<event>
 8    1  0.1319619E-024  0.7839128E+02  0.7818608E-02  0.1333680E+00
         -2   -1    0    0    0  501 -0.00000000000E+00  0.00000000000E+00  0.81350253780E+01  0.81350257777E+01  0.25500000000E-02 0.  1.
          1   -1    0    0  501    0  0.00000000000E+00 -0.00000000000E+00 -0.18884981399E+03  0.18884981406E+03  0.50400000000E-02 0. -1.
        -24    2    1    2    0    0 -0.35527136788E-14  0.00000000000E+00 -0.18071478862E+03  0.19698483984E+03  0.78391276950E+02 0.  0.
         66    2    3    3    0    0  0.17289426527E+02  0.35123105546E+02 -0.87104878197E+02  0.95518671558E+02  0.19999994208E+01 0.  0.
         13    1    3    3    0    0 -0.17289426527E+02 -0.35123105546E+02 -0.93609910418E+02  0.10146616828E+03  0.10566000000E+00 0. -1.
         13    1    4    4    0    0  0.35682055493E+01  0.72961023850E+01 -0.18745731979E+02  0.20429851500E+02  0.10566000000E+00 0. -1.
        -13    1    4    4    0    0  0.23450850939E+01  0.53162952486E+01 -0.14276757761E+02  0.15414259485E+02  0.10566000000E+00 0.  1.
        -14    1    4    4    0    0  0.11376135884E+02  0.22510707913E+02 -0.54082388457E+02  0.59674560573E+02  0.00000000000E+00 0.  1.
<mgrwt>
<rscale>  0 0.78391277E+02</rscale>
<asrwt>0</asrwt>
<pdfrwt beam="1">  1        1 0.29053814E-01 0.78391277E+02</pdfrwt>
<pdfrwt beam="2">  1       -2 0.12515425E-02 0.78391277E+02</pdfrwt>
<totfact> 0.17403660E+05</totfact>
</mgrwt>
</event>
<event>
 8    1  0.1319619E-024  0.8041272E+02  0.7818608E-02  0.1327884E+00
         -2   -1    0    0    0  501 -0.00000000000E+00  0.00000000000E+00  0.56408799727E+03  0.56408799728E+03  0.25500000000E-02 0.  1.
          1   -1    0    0  501    0  0.00000000000E+00 -0.00000000000E+00 -0.28657762052E+01  0.28657806370E+01  0.50400000000E-02 0. -1.
        -24    2    1    2    0    0  0.17763568394E-14  0.00000000000E+00  0.56122222107E+03  0.56695377792E+03  0.80412715864E+02 0.  0.
         66    2    3    3    0    0 -0.92401027643E+01 -0.17085912659E+02  0.52878302884E+03  0.52914345833E+03  0.19999995436E+01 0.  0.
         13    1    3    3    0    0  0.92401027643E+01  0.17085912659E+02  0.32439192233E+02  0.37810319587E+02  0.10566000000E+00 0. -1.
         13    1    4    4    0    0 -0.33653895630E+00 -0.60648810004E+00  0.15512104396E+02  0.15527962942E+02  0.10566000000E+00 0. -1.
        -13    1    4    4    0    0 -0.39176482779E+01 -0.55205164590E+01  0.18658680129E+03  0.18670958639E+03  0.10566000000E+00 0.  1.
        -14    1    4    4    0    0 -0.49859155301E+01 -0.10958908100E+02  0.32668412315E+03  0.32690590900E+03  0.00000000000E+00 0.  1.
<mgrwt>
<rscale>  0 0.80412716E+02</rscale>
<asrwt>0</asrwt>
<pdfrwt beam="1">  1        1 0.44088891E-03 0.80412716E+02</pdfrwt>
<pdfrwt beam="2">  1       -2 0.86782784E-01 0.80412716E+02</pdfrwt>
<totfact> 0.45174170E+04</totfact>
</mgrwt>
</event>
<event>
 8    1  0.1319619E-024  0.8272143E+02  0.7818608E-02  0.1321501E+00
         -2   -1    0    0    0  501 -0.00000000000E+00  0.00000000000E+00  0.10093082233E+02  0.10093082555E+02  0.25500000000E-02 0.  1.
          1   -1    0    0  501    0  0.00000000000E+00 -0.00000000000E+00 -0.16949317794E+03  0.16949317801E+03  0.50400000000E-02 0. -1.
        -24    2    1    2    0    0  0.00000000000E+00  0.00000000000E+00 -0.15940009571E+03  0.17958626057E+03  0.82721426934E+02 0.  0.
         66    2    3    3    0    0 -0.23830484092E+02 -0.26381863846E+02 -0.33959544955E+02  0.49205135981E+02  0.20000003186E+01 0.  0.
         13    1    3    3    0    0  0.23830484092E+02  0.26381863846E+02 -0.12544055075E+03  0.13038112459E+03  0.10566000000E+00 0. -1.
         13    1    4    4    0    0 -0.15081028979E+02 -0.15655193344E+02 -0.20608304432E+02  0.29953896062E+02  0.10566000000E+00 0. -1.
        -13    1    4    4    0    0 -0.19796275402E+01 -0.25567794342E+01 -0.36075274183E+01  0.48457676773E+01  0.10566000000E+00 0.  1.
        -14    1    4    4    0    0 -0.67698275726E+01 -0.81698910678E+01 -0.97437131052E+01  0.14405472241E+02  0.00000000000E+00 0.  1.
<mgrwt>
<rscale>  0 0.82721427E+02</rscale>
<asrwt>0</asrwt>
<pdfrwt beam="1">  1        1 0.26075872E-01 0.82721427E+02</pdfrwt>
<pdfrwt beam="2">  1       -2 0.15527820E-02 0.82721427E+02</pdfrwt>
<totfact> 0.14772727E+05</totfact>
</mgrwt>
</event>
<event>
 8    1  0.1319619E-024  0.7968918E+02  0.7818608E-02  0.1329936E+00
         -2   -1    0    0    0  501 -0.00000000000E+00  0.00000000000E+00  0.30503136041E+01  0.30503146700E+01  0.25500000000E-02 0.  1.
          1   -1    0    0  501    0  0.00000000000E+00 -0.00000000000E+00 -0.52046814758E+03  0.52046814760E+03  0.50400000000E-02 0. -1.
        -24    2    1    2    0    0  0.00000000000E+00  0.00000000000E+00 -0.51741783397E+03  0.52351846227E+03  0.79689180105E+02 0.  0.
         66    2    3    3    0    0  0.36270491743E+02 -0.15853506385E+02 -0.28728342895E+03  0.29000457023E+03  0.19999925894E+01 0.  0.
         13    1    3    3    0    0 -0.36270491743E+02  0.15853506385E+02 -0.23013440502E+03  0.23351389204E+03  0.10566000000E+00 0. -1.
         13    1    4    4    0    0  0.24403004177E+02 -0.10357042420E+02 -0.19824326780E+03  0.20000794817E+03  0.10566000000E+00 0. -1.
        -13    1    4    4    0    0  0.38179850358E+01 -0.16621695845E+01 -0.29452185387E+02  0.29745288796E+02  0.10566000000E+00 0.  1.
         14    1    4    4    0    0  0.80495025298E+01 -0.38342943807E+01 -0.59587975765E+02  0.60251333265E+02  0.00000000000E+00 0. -1.
<mgrwt>
<rscale>  0 0.79689180E+02</rscale>
<asrwt>0</asrwt>
<pdfrwt beam="1">  1        1 0.80071952E-01 0.79689180E+02</pdfrwt>
<pdfrwt beam="2">  1       -2 0.46927951E-03 0.79689180E+02</pdfrwt>
<totfact> 0.19899092E+05</totfact>
</mgrwt>
</event>
<event>
 8    1  0.1319619E-024  0.7916810E+02  0.7818608E-02  0.1331429E+00
          1   -1    0    0  501    0  0.00000000000E+00  0.00000000000E+00  0.14588060609E+03  0.14588060618E+03  0.50400000000E-02 0. -1.
         -2   -1    0    0    0  501 -0.00000000000E+00 -0.00000000000E+00 -0.10740954603E+02  0.10740954906E+02  0.25500000000E-02 0.  1.
        -24    2    1    2    0    0  0.00000000000E+00  0.00000000000E+00  0.13513965149E+03  0.15662156108E+03  0.79168099585E+02 0.  0.
         66    2    3    3    0    0 -0.86032989012E+01  0.33744419892E+02  0.30485860660E+02  0.46325914186E+02  0.19999997833E+01 0.  0.
         13    1    3    3    0    0  0.86032989012E+01 -0.33744419892E+02  0.10465379083E+03  0.11029564690E+03  0.10566000000E+00 0. -1.
         13    1    4    4    0    0 -0.32231248156E+01  0.15088617647E+02  0.12717677934E+02  0.19995134712E+02  0.10566000000E+00 0. -1.
        -13    1    4    4    0    0 -0.15307152319E+01  0.55697233964E+01  0.48306958969E+01  0.75307167466E+01  0.10566000000E+00 0.  1.
         14    1    4    4    0    0 -0.38494588536E+01  0.13086078849E+02  0.12937486830E+02  0.18800062728E+02  0.00000000000E+00 0. -1.
<mgrwt>
<rscale>  0 0.79168100E+02</rscale>
<asrwt>0</asrwt>
<pdfrwt beam="1">  1        1 0.22443169E-01 0.79168100E+02</pdfrwt>
<pdfrwt beam="2">  1       -2 0.16524546E-02 0.79168100E+02</pdfrwt>
<totfact> 0.16152710E+05</totfact>
</mgrwt>
</event>
<event>
 8    1  0.1319619E-024  0.7324951E+02  0.7818608E-02  0.1349379E+00
         -2   -1    0    0    0  501 -0.00000000000E+00  0.00000000000E+00  0.30678312125E+02  0.30678312231E+02  0.25500000000E-02 0.  1.
          1   -1    0    0  501    0  0.00000000000E+00 -0.00000000000E+00 -0.43723809130E+02  0.43723809420E+02  0.50400000000E-02 0. -1.
        -24    2    1    2    0    0  0.00000000000E+00 -0.44408920985E-15 -0.13045497005E+02  0.74402121652E+02  0.73249509993E+02 0.  0.
         66    2    3    3    0    0  0.36536041499E+02  0.21079344137E+01 -0.67360541407E+01  0.37265267326E+02  0.20000018869E+01 0.  0.
         13    1    3    3    0    0 -0.36536041499E+02 -0.21079344137E+01 -0.63094428639E+01  0.37136854326E+02  0.10566000000E+00 0. -1.
         13    1    4    4    0    0  0.10772140583E+02  0.13532656995E+00 -0.20558598703E+01  0.10967910004E+02  0.10566000000E+00 0. -1.
        -13    1    4    4    0    0  0.17267191211E+02  0.69644417088E+00 -0.29088613632E+01  0.17524655924E+02  0.10566000000E+00 0.  1.
         14    1    4    4    0    0  0.84967097054E+01  0.12761636729E+01 -0.17713329072E+01  0.87727013973E+01  0.00000000000E+00 0. -1.
<mgrwt>
<rscale>  0 0.73249510E+02</rscale>
<asrwt>0</asrwt>
<pdfrwt beam="1">  1        1 0.67267400E-02 0.73249510E+02</pdfrwt>
<pdfrwt beam="2">  1       -2 0.47197403E-02 0.73249510E+02</pdfrwt>
<totfact> 0.16455243E+05</totfact>
</mgrwt>
</event>
<event>
 8    1  0.1319619E-024  0.8234029E+02  0.7818608E-02  0.1322538E+00
          1   -1    0    0  501    0  0.00000000000E+00  0.00000000000E+00  0.37924159827E+02  0.37924160162E+02  0.50400000000E-02 0. -1.
         -2   -1    0    0    0  501 -0.00000000000E+00 -0.00000000000E+00 -0.44693960143E+02  0.44693960215E+02  0.25500000000E-02 0.  1.
        -24    2    1    2    0    0 -0.17763568394E-14 -0.35527136788E-14 -0.67698003154E+01  0.82618120377E+02  0.82340291586E+02 0.  0.
         66    2    3    3    0    0 -0.91007051793E+01 -0.28999267881E+02 -0.31214846291E+02  0.43613610265E+02  0.19999997443E+01 0.  0.
         13    1    3    3    0    0  0.91007051793E+01  0.28999267881E+02  0.24445045975E+02  0.39004510113E+02  0.10566000000E+00 0. -1.
         13    1    4    4    0    0 -0.12074812713E+01 -0.22799375200E+01 -0.27018847273E+01  0.37373080192E+01  0.10566000000E+00 0. -1.
        -13    1    4    4    0    0 -0.67931236396E+01 -0.23924925944E+02 -0.25255683774E+02  0.35445864881E+02  0.10566000000E+00 0.  1.
        -14    1    4    4    0    0 -0.11001002685E+01 -0.27944044167E+01 -0.32572777892E+01  0.44304373645E+01  0.00000000000E+00 0.  1.
<mgrwt>
<rscale>  0 0.82340292E+02</rscale>
<asrwt>0</asrwt>
<pdfrwt beam="1">  1        1 0.58344862E-02 0.82340292E+02</pdfrwt>
<pdfrwt beam="2">  1       -2 0.68759939E-02 0.82340292E+02</pdfrwt>
<totfact> 0.11599260E+05</totfact>
</mgrwt>
</event>
<event>
 8    1  0.1319619E-024  0.8000395E+02  0.7818608E-02  0.1329040E+00
         -2   -1    0    0    0  501 -0.00000000000E+00  0.00000000000E+00  0.18636557941E+03  0.18636557942E+03  0.25500000000E-02 0.  1.
          1   -1    0    0  501    0  0.00000000000E+00 -0.00000000000E+00 -0.85861238419E+01  0.85861253211E+01  0.50400000000E-02 0. -1.
        -24    2    1    2    0    0  0.00000000000E+00  0.00000000000E+00  0.17777945556E+03  0.19495170475E+03  0.80003952166E+02 0.  0.
         66    2    3    3    0    0  0.24476550098E+02  0.16407831457E+02  0.15477572844E+03  0.15756853924E+03  0.20000012324E+01 0.  0.
         13    1    3    3    0    0 -0.24476550098E+02 -0.16407831457E+02  0.23003727123E+02  0.37383165508E+02  0.10566000000E+00 0. -1.
         13    1    4    4    0    0  0.87259800553E+01  0.66784696266E+01  0.55207638671E+02  0.56290667220E+02  0.10566000000E+00 0. -1.
        -13    1    4    4    0    0  0.49791503503E+01  0.31196507648E+01  0.33640711313E+02  0.34150150523E+02  0.10566000000E+00 0.  1.
         14    1    4    4    0    0  0.10771419692E+02  0.66097110652E+01  0.65927378458E+02  0.67127721494E+02  0.00000000000E+00 0. -1.
<mgrwt>
<rscale>  0 0.80003952E+02</rscale>
<asrwt>0</asrwt>
<pdfrwt beam="1">  1        1 0.13209423E-02 0.80003952E+02</pdfrwt>
<pdfrwt beam="2">  1       -2 0.28671627E-01 0.80003952E+02</pdfrwt>
<totfact> 0.87473751E+04</totfact>
</mgrwt>
</event>
<event>
 8    1  0.1319619E-024  0.7919365E+02  0.7818608E-02  0.1331355E+00
          1   -1    0    0  501    0  0.00000000000E+00  0.00000000000E+00  0.12005064735E+03  0.12005064746E+03  0.50400000000E-02 0. -1.
         -2   -1    0    0    0  501 -0.00000000000E+00 -0.00000000000E+00 -0.13060392449E+02  0.13060392698E+02  0.25500000000E-02 0.  1.
        -24    2    1    2    0    0  0.00000000000E+00  0.00000000000E+00  0.10699025490E+03  0.13311104015E+03  0.79193651052E+02 0.  0.
         66    2    3    3    0    0 -0.28637017419E+02 -0.29036529985E+01  0.78862315760E+01  0.29911580026E+02  0.20000009453E+01 0.  0.
         13    1    3    3    0    0  0.28637017419E+02  0.29036529985E+01  0.99104023325E+02  0.10319946013E+03  0.10566000000E+00 0. -1.
         13    1    4    4    0    0 -0.12629057004E+02 -0.99334763540E+00  0.28044115276E+01  0.12975195890E+02  0.10566000000E+00 0. -1.
        -13    1    4    4    0    0 -0.13363468581E+02 -0.18271374597E+01  0.39164182615E+01  0.14045291733E+02  0.10566000000E+00 0.  1.
        -14    1    4    4    0    0 -0.26444918342E+01 -0.83167903454E-01  0.11654017869E+01  0.28910924036E+01  0.00000000000E+00 0.  1.
<mgrwt>
<rscale>  0 0.79193651E+02</rscale>
<asrwt>0</asrwt>
<pdfrwt beam="1">  1        1 0.18469330E-01 0.79193651E+02</pdfrwt>
<pdfrwt beam="2">  1       -2 0.20092913E-02 0.79193651E+02</pdfrwt>
<totfact> 0.15585938E+05</totfact>
</mgrwt>
</event>
<event>
 8    1  0.1319619E-024  0.7939035E+02  0.7818608E-02  0.1330790E+00
          1   -1    0    0  501    0  0.00000000000E+00  0.00000000000E+00  0.28438926188E+02  0.28438926635E+02  0.50400000000E-02 0. -1.
         -2   -1    0    0    0  501 -0.00000000000E+00 -0.00000000000E+00 -0.55406691165E+02  0.55406691224E+02  0.25500000000E-02 0.  1.
        -24    2    1    2    0    0  0.00000000000E+00  0.00000000000E+00 -0.26967764977E+02  0.83845617859E+02  0.79390347564E+02 0.  0.
         66    2    3    3    0    0 -0.29987255724E+02  0.17219942720E+02 -0.34024075757E+02  0.48553060301E+02  0.20000000804E+01 0.  0.
         13    1    3    3    0    0  0.29987255724E+02 -0.17219942720E+02  0.70563107800E+01  0.35292557558E+02  0.10566000000E+00 0. -1.
         13    1    4    4    0    0 -0.13485097421E+02  0.79853123305E+01 -0.16553625555E+02  0.22795761635E+02  0.10566000000E+00 0. -1.
        -13    1    4    4    0    0 -0.11438551154E+02  0.60805841061E+01 -0.12271924901E+02  0.17844474225E+02  0.10566000000E+00 0.  1.
         14    1    4    4    0    0 -0.50636071495E+01  0.31540462836E+01 -0.51985253008E+01  0.79128244405E+01  0.00000000000E+00 0. -1.
<mgrwt>
<rscale>  0 0.79390348E+02</rscale>
<asrwt>0</asrwt>
<pdfrwt beam="1">  1        1 0.43752195E-02 0.79390348E+02</pdfrwt>
<pdfrwt beam="2">  1       -2 0.85241063E-02 0.79390348E+02</pdfrwt>
<totfact> 0.12246899E+05</totfact>
</mgrwt>
</event>
<event>
 8    1  0.1319619E-024  0.7886021E+02  0.7818608E-02  0.1332317E+00
          1   -1    0    0  501    0  0.00000000000E+00  0.00000000000E+00  0.12089501810E+02  0.12089502861E+02  0.50400000000E-02 0. -1.
         -2   -1    0    0    0  501 -0.00000000000E+00 -0.00000000000E+00 -0.12860193104E+03  0.12860193107E+03  0.25500000000E-02 0.  1.
        -24    2    1    2    0    0 -0.35527136788E-14 -0.35527136788E-14 -0.11651242923E+03  0.14069143393E+03  0.78860214401E+02 0.  0.
         66    2    3    3    0    0 -0.27096990569E+02 -0.24167594883E+02 -0.85608298324E+02  0.93011291191E+02  0.20000016705E+01 0.  0.
         13    1    3    3    0    0  0.27096990569E+02  0.24167594883E+02 -0.30904130908E+02  0.47680142738E+02  0.10566000000E+00 0. -1.
         13    1    4    4    0    0 -0.12803778126E+02 -0.12044046340E+02 -0.40471063324E+02  0.44123847488E+02  0.10566000000E+00 0. -1.
        -13    1    4    4    0    0 -0.11353554080E+02 -0.10215603401E+02 -0.36788964861E+02  0.39833413646E+02  0.10566000000E+00 0.  1.
         14    1    4    4    0    0 -0.29396583618E+01 -0.19079451424E+01 -0.83482701386E+01  0.90540300561E+01  0.00000000000E+00 0. -1.
<mgrwt>
<rscale>  0 0.78860214E+02</rscale>
<asrwt>0</asrwt>
<pdfrwt beam="1">  1        1 0.18599235E-02 0.78860214E+02</pdfrwt>
<pdfrwt beam="2">  1       -2 0.19784912E-01 0.78860214E+02</pdfrwt>
<totfact> 0.10287236E+05</totfact>
</mgrwt>
</event>
<event>
 8    1  0.1319619E-024  0.7877024E+02  0.7818608E-02  0.1332578E+00
         -2   -1    0    0    0  501 -0.00000000000E+00  0.00000000000E+00  0.21750253517E+03  0.21750253518E+03  0.25500000000E-02 0.  1.
          1   -1    0    0  501    0  0.00000000000E+00 -0.00000000000E+00 -0.71318130192E+01  0.71318148001E+01  0.50400000000E-02 0. -1.
        -24    2    1    2    0    0 -0.55511151231E-16  0.00000000000E+00  0.21037072215E+03  0.22463434998E+03  0.78770238383E+02 0.  0.
         66    2    3    3    0    0 -0.30679261043E+00  0.37591092940E+02  0.71996161190E+02  0.81244271265E+02  0.19999993087E+01 0.  0.
         13    1    3    3    0    0  0.30679261043E+00 -0.37591092940E+02  0.13837456096E+03  0.14339007872E+03  0.10566000000E+00 0. -1.
         13    1    4    4    0    0  0.34364772760E+00  0.15901945489E+02  0.31459941829E+02  0.35252362587E+02  0.10566000000E+00 0. -1.
        -13    1    4    4    0    0 -0.23779703475E+00  0.18125798674E+02  0.34400656733E+02  0.38884668864E+02  0.10566000000E+00 0.  1.
         14    1    4    4    0    0 -0.41264330328E+00  0.35633487768E+01  0.61355626280E+01  0.71072398132E+01  0.00000000000E+00 0. -1.
<mgrwt>
<rscale>  0 0.78770238E+02</rscale>
<asrwt>0</asrwt>
<pdfrwt beam="1">  1        1 0.10972021E-02 0.78770238E+02</pdfrwt>
<pdfrwt beam="2">  1       -2 0.33461930E-01 0.78770238E+02</pdfrwt>
<totfact> 0.85491653E+04</totfact>
</mgrwt>
</event>
<event>
 8    1  0.1319619E-024  0.7685418E+02  0.7818608E-02  0.1338224E+00
         -2   -1    0    0    0  501 -0.00000000000E+00  0.00000000000E+00  0.47548015622E+02  0.47548015691E+02  0.25500000000E-02 0.  1.
          1   -1    0    0  501    0  0.00000000000E+00 -0.00000000000E+00 -0.31055790852E+02  0.31055791261E+02  0.50400000000E-02 0. -1.
        -24    2    1    2    0    0  0.71054273576E-14  0.00000000000E+00  0.16492224770E+02  0.78603806951E+02  0.76854180039E+02 0.  0.
         66    2    3    3    0    0 -0.37585339586E+02  0.32741630995E+01  0.92919118142E+00  0.37792079785E+02  0.20000006037E+01 0.  0.
         13    1    3    3    0    0  0.37585339586E+02 -0.32741630995E+01  0.15563033589E+02  0.40811727167E+02  0.10566000000E+00 0. -1.
         13    1    4    4    0    0 -0.13295666295E+01  0.12561349679E+00  0.24295731383E+00  0.13615132995E+01  0.10566000000E+00 0. -1.
        -13    1    4    4    0    0 -0.16807246635E+02  0.21939080213E+01  0.12891149913E+00  0.16950650550E+02  0.10566000000E+00 0.  1.
         14    1    4    4    0    0 -0.19448526322E+02  0.95464158144E+00  0.55732236846E+00  0.19479915935E+02  0.00000000000E+00 0. -1.
<mgrwt>
<rscale>  0 0.76854180E+02</rscale>
<asrwt>0</asrwt>
<pdfrwt beam="1">  1        1 0.47778140E-02 0.76854180E+02</pdfrwt>
<pdfrwt beam="2">  1       -2 0.73150794E-02 0.76854180E+02</pdfrwt>
<totfact> 0.13645036E+05</totfact>
</mgrwt>
</event>
<event>
 8    1  0.1319619E-024  0.8208247E+02  0.7818608E-02  0.1323243E+00
         -2   -1    0    0    0  501 -0.00000000000E+00  0.00000000000E+00  0.58603823949E+02  0.58603824005E+02  0.25500000000E-02 0.  1.
          1   -1    0    0  501    0  0.00000000000E+00 -0.00000000000E+00 -0.28741863203E+02  0.28741863645E+02  0.50400000000E-02 0. -1.
        -24    2    1    2    0    0  0.00000000000E+00 -0.35527136788E-14  0.29861960746E+02  0.87345687650E+02  0.82082473473E+02 0.  0.
         66    2    3    3    0    0 -0.18929309150E+02 -0.25964198812E+02  0.42068015267E+02  0.52973354359E+02  0.19999996646E+01 0.  0.
         13    1    3    3    0    0  0.18929309150E+02  0.25964198812E+02 -0.12206054521E+02  0.34372333291E+02  0.10566000000E+00 0. -1.
         13    1    4    4    0    0 -0.51325075955E+00 -0.91529267335E+00  0.17615968435E+01  0.20531864247E+01  0.10566000000E+00 0. -1.
        -13    1    4    4    0    0 -0.12040227820E+02 -0.17060874309E+02  0.27782606322E+02  0.34755213943E+02  0.10566000000E+00 0.  1.
         14    1    4    4    0    0 -0.63758305710E+01 -0.79880318294E+01  0.12523812102E+02  0.16164953991E+02  0.00000000000E+00 0. -1.
<mgrwt>
<rscale>  0 0.82082473E+02</rscale>
<asrwt>0</asrwt>
<pdfrwt beam="1">  1        1 0.44218252E-02 0.82082473E+02</pdfrwt>
<pdfrwt beam="2">  1       -2 0.90159729E-02 0.82082473E+02</pdfrwt>
<totfact> 0.11142878E+05</totfact>
</mgrwt>
</event>
<event>
 8    1  0.1319619E-024  0.8104705E+02  0.7818608E-02  0.1326106E+00
          1   -1    0    0  501    0  0.00000000000E+00  0.00000000000E+00  0.13223058862E+02  0.13223059822E+02  0.50400000000E-02 0. -1.
         -2   -1    0    0    0  501 -0.00000000000E+00 -0.00000000000E+00 -0.12418880426E+03  0.12418880429E+03  0.25500000000E-02 0.  1.
        -24    2    1    2    0    0  0.35527136788E-14  0.00000000000E+00 -0.11096574540E+03  0.13741186411E+03  0.81047046498E+02 0.  0.
         66    2    3    3    0    0  0.24803737463E+02 -0.27211640147E+02 -0.84111669540E+02  0.91839380022E+02  0.20000045999E+01 0.  0.
         13    1    3    3    0    0 -0.24803737463E+02  0.27211640147E+02 -0.26854075860E+02  0.45572484088E+02  0.10566000000E+00 0. -1.
         13    1    4    4    0    0  0.91447913948E+01 -0.89586928259E+01 -0.29396425645E+02  0.32063162532E+02  0.10566000000E+00 0. -1.
        -13    1    4    4    0    0  0.83917597362E+01 -0.93816157304E+01 -0.29719051865E+02  0.32274905933E+02  0.10566000000E+00 0.  1.
        -14    1    4    4    0    0  0.72671863324E+01 -0.88713315903E+01 -0.24996192030E+02  0.27501311557E+02  0.00000000000E+00 0.  1.
<mgrwt>
<rscale>  0 0.81047046E+02</rscale>
<asrwt>0</asrwt>
<pdfrwt beam="1">  1        1 0.20343169E-02 0.81047046E+02</pdfrwt>
<pdfrwt beam="2">  1       -2 0.19105969E-01 0.81047046E+02</pdfrwt>
<totfact> 0.96874001E+04</totfact>
</mgrwt>
</event>
<event>
 8    1  0.1319619E-024  0.7940219E+02  0.7818608E-02  0.1330757E+00
          1   -1    0    0  501    0  0.00000000000E+00  0.00000000000E+00  0.18897430763E+02  0.18897431435E+02  0.50400000000E-02 0. -1.
         -2   -1    0    0    0  501 -0.00000000000E+00 -0.00000000000E+00 -0.83406931946E+02  0.83406931985E+02  0.25500000000E-02 0.  1.
        -24    2    1    2    0    0  0.35527136788E-14  0.00000000000E+00 -0.64509501183E+02  0.10230436342E+03  0.79402185309E+02 0.  0.
         66    2    3    3    0    0 -0.16545823801E+02  0.35866665347E+02 -0.37094281376E+02  0.54223312999E+02  0.19999983554E+01 0.  0.
         13    1    3    3    0    0  0.16545823801E+02 -0.35866665347E+02 -0.27415219807E+02  0.48081050420E+02  0.10566000000E+00 0. -1.
         13    1    4    4    0    0 -0.28473101336E+01  0.51237944088E+01 -0.56588900996E+01  0.81482909457E+01  0.10566000000E+00 0. -1.
        -13    1    4    4    0    0 -0.51909739568E+01  0.13296537724E+02 -0.13124956113E+02  0.19391229024E+02  0.10566000000E+00 0.  1.
        -14    1    4    4    0    0 -0.85075397111E+01  0.17446333215E+02 -0.18310435163E+02  0.26683793029E+02  0.00000000000E+00 0.  1.
<mgrwt>
<rscale>  0 0.79402185E+02</rscale>
<asrwt>0</asrwt>
<pdfrwt beam="1">  1        1 0.29072971E-02 0.79402185E+02</pdfrwt>
<pdfrwt beam="2">  1       -2 0.12831836E-01 0.79402185E+02</pdfrwt>
<totfact> 0.11288456E+05</totfact>
</mgrwt>
</event>
<event>
 8    1  0.1319619E-024  0.8181296E+02  0.7818608E-02  0.1323984E+00
         -2   -1    0    0    0  501 -0.00000000000E+00  0.00000000000E+00  0.22700690418E+01  0.22700704740E+01  0.25500000000E-02 0.  1.
          1   -1    0    0  501    0  0.00000000000E+00 -0.00000000000E+00 -0.73713148795E+03  0.73713148796E+03  0.50400000000E-02 0. -1.
        -24    2    1    2    0    0  0.00000000000E+00  0.00000000000E+00 -0.73486141891E+03  0.73940155844E+03  0.81812955120E+02 0.  0.
         66    2    3    3    0    0 -0.33709920132E+02  0.69612596392E+01 -0.56699558241E+03  0.56804296345E+03  0.19999995281E+01 0.  0.
         13    1    3    3    0    0  0.33709920132E+02 -0.69612596392E+01 -0.16786583649E+03  0.17135859499E+03  0.10566000000E+00 0. -1.
         13    1    4    4    0    0 -0.80020525012E+01  0.15614485320E+01 -0.12975671626E+03  0.13001264379E+03  0.10566000000E+00 0. -1.
        -13    1    4    4    0    0 -0.18091478438E+02  0.36580649280E+01 -0.31908447134E+03  0.31961788756E+03  0.10566000000E+00 0.  1.
        -14    1    4    4    0    0 -0.76163891926E+01  0.17417461792E+01 -0.11815439481E+03  0.11841243211E+03  0.00000000000E+00 0.  1.
<mgrwt>
<rscale>  0 0.81812955E+02</rscale>
<asrwt>0</asrwt>
<pdfrwt beam="1">  1        1 0.11340465E+00 0.81812955E+02</pdfrwt>
<pdfrwt beam="2">  1       -2 0.34924209E-03 0.81812955E+02</pdfrwt>
<totfact> 0.18858024E+05</totfact>
</mgrwt>
</event>
<event>
 8    1  0.1319619E-024  0.7976380E+02  0.7818608E-02  0.1329723E+00
          1   -1    0    0  501    0  0.00000000000E+00  0.00000000000E+00  0.12943316779E+04  0.12943316779E+04  0.50400000000E-02 0. -1.
         -2   -1    0    0    0  501 -0.00000000000E+00 -0.00000000000E+00 -0.12288689884E+01  0.12288716341E+01  0.25500000000E-02 0.  1.
        -24    2    1    2    0    0  0.88817841970E-15  0.00000000000E+00  0.12931028089E+04  0.12955605495E+04  0.79763795795E+02 0.  0.
         66    2    3    3    0    0 -0.47688748268E+01 -0.24891560921E+02  0.11465884728E+04  0.11468702882E+04  0.19999985762E+01 0.  0.
         13    1    3    3    0    0  0.47688748268E+01  0.24891560921E+02  0.14651433607E+03  0.14869026132E+03  0.10566000000E+00 0. -1.
         13    1    4    4    0    0 -0.13546104543E+00 -0.10845694674E+00  0.10113025231E+02  0.10115065791E+02  0.10566000000E+00 0.  1.
        -13    1    4    4    0    0 -0.41591461097E+01 -0.22231067958E+02  0.10268752204E+04  0.10271242614E+04  0.10566000000E+00 0.  1.
         14    1    4    4    0    0 -0.47426767167E+00 -0.25520360162E+01  0.10960022717E+03  0.10963096102E+03  0.00000000000E+00 0. -1.
<mgrwt>
<rscale>  0 0.79763796E+02</rscale>
<asrwt>0</asrwt>
<pdfrwt beam="1">  1        1 0.19912925E+00 0.79763796E+02</pdfrwt>
<pdfrwt beam="2">  1       -2 0.18905574E-03 0.79763796E+02</pdfrwt>
<totfact> 0.17381209E+05</totfact>
</mgrwt>
</event>
<event>
 8    1  0.1319619E-024  0.7737662E+02  0.7818608E-02  0.1336665E+00
         -2   -1    0    0    0  501 -0.00000000000E+00  0.00000000000E+00  0.41717872269E+02  0.41717872346E+02  0.25500000000E-02 0.  1.
          1   -1    0    0  501    0  0.00000000000E+00 -0.00000000000E+00 -0.35878756189E+02  0.35878756543E+02  0.50400000000E-02 0. -1.
        -24    2    1    2    0    0  0.17763568394E-14  0.35527136788E-14  0.58391160795E+01  0.77596628889E+02  0.77376621394E+02 0.  0.
         66    2    3    3    0    0 -0.14272737636E+02  0.21898551675E+02  0.31489742231E+02  0.40973912017E+02  0.19999987854E+01 0.  0.
         13    1    3    3    0    0  0.14272737636E+02 -0.21898551675E+02 -0.25650626152E+02  0.36622716872E+02  0.10566000000E+00 0. -1.
         13    1    4    4    0    0 -0.21632733779E+00  0.89055615179E+00  0.10589821262E+01  0.14044553948E+01  0.10566000000E+00 0. -1.
        -13    1    4    4    0    0 -0.95740125848E+01  0.14148901031E+02  0.21190202893E+02  0.27219275891E+02  0.10566000000E+00 0.  1.
         14    1    4    4    0    0 -0.44823977135E+01  0.68590944923E+01  0.92405572121E+01  0.12350180732E+02  0.00000000000E+00 0. -1.
<mgrwt>
<rscale>  0 0.77376621E+02</rscale>
<asrwt>0</asrwt>
<pdfrwt beam="1">  1        1 0.55198087E-02 0.77376621E+02</pdfrwt>
<pdfrwt beam="2">  1       -2 0.64181342E-02 0.77376621E+02</pdfrwt>
<totfact> 0.13705584E+05</totfact>
</mgrwt>
</event>
<event>
 8    1  0.1319619E-024  0.7976087E+02  0.7818608E-02  0.1329731E+00
         -2   -1    0    0    0  501 -0.00000000000E+00  0.00000000000E+00  0.10836427890E+02  0.10836428190E+02  0.25500000000E-02 0.  1.
          1   -1    0    0  501    0  0.00000000000E+00 -0.00000000000E+00 -0.14676877236E+03  0.14676877244E+03  0.50400000000E-02 0. -1.
        -24    2    1    2    0    0  0.00000000000E+00  0.00000000000E+00 -0.13593234447E+03  0.15760520063E+03  0.79760873832E+02 0.  0.
         66    2    3    3    0    0 -0.15390497168E+02 -0.33460789557E+02 -0.37914772850E+02  0.52896331140E+02  0.20000017430E+01 0.  0.
         13    1    3    3    0    0  0.15390497168E+02  0.33460789557E+02 -0.98017571618E+02  0.10470886949E+03  0.10566000000E+00 0. -1.
         13    1    4    4    0    0 -0.48714778977E+01 -0.12026490016E+02 -0.13467994427E+02  0.18702026547E+02  0.10566000000E+00 0.  1.
        -13    1    4    4    0    0 -0.32803744043E+01 -0.73652250609E+01 -0.75539659388E+01  0.11049025381E+02  0.10566000000E+00 0.  1.
        -14    1    4    4    0    0 -0.72386448655E+01 -0.14069074480E+02 -0.16892812483E+02  0.23145279212E+02  0.00000000000E+00 0.  1.
<mgrwt>
<rscale>  0 0.79760874E+02</rscale>
<asrwt>0</asrwt>
<pdfrwt beam="1">  1        1 0.22579810E-01 0.79760874E+02</pdfrwt>
<pdfrwt beam="2">  1       -2 0.16671429E-02 0.79760874E+02</pdfrwt>
<totfact> 0.15851605E+05</totfact>
</mgrwt>
</event>
<event>
 8    1  0.1319619E-024  0.8028744E+02  0.7818608E-02  0.1328238E+00
          1   -1    0    0  501    0  0.00000000000E+00  0.00000000000E+00  0.15138377908E+03  0.15138377916E+03  0.50400000000E-02 0. -1.
         -2   -1    0    0    0  501 -0.00000000000E+00 -0.00000000000E+00 -0.10645249745E+02  0.10645250051E+02  0.25500000000E-02 0.  1.
        -24    2    1    2    0    0 -0.35527136788E-14  0.00000000000E+00  0.14073852933E+03  0.16202902921E+03  0.80287437803E+02 0.  0.
         66    2    3    3    0    0 -0.28777277114E+02  0.89512593514E+01  0.16970689869E+02  0.34644783830E+02  0.20000024855E+01 0.  0.
         13    1    3    3    0    0  0.28777277114E+02 -0.89512593514E+01  0.12376783947E+03  0.12738424538E+03  0.10566000000E+00 0. -1.
         13    1    4    4    0    0 -0.15983158816E+01  0.19264869268E+00  0.66878684041E+00  0.17464727452E+01  0.10566000000E+00 0. -1.
        -13    1    4    4    0    0 -0.16025469220E+02  0.55774822468E+01  0.92916507392E+01  0.19346056689E+02  0.10566000000E+00 0.  1.
         14    1    4    4    0    0 -0.11153492013E+02  0.31811284119E+01  0.70102522892E+01  0.13552254396E+02  0.00000000000E+00 0. -1.
<mgrwt>
<rscale>  0 0.80287438E+02</rscale>
<asrwt>0</asrwt>
<pdfrwt beam="1">  1        1 0.23289811E-01 0.80287438E+02</pdfrwt>
<pdfrwt beam="2">  1       -2 0.16377308E-02 0.80287438E+02</pdfrwt>
<totfact> 0.15664405E+05</totfact>
</mgrwt>
</event>
<event>
 8    1  0.1319619E-024  0.8000675E+02  0.7818608E-02  0.1329032E+00
          1   -1    0    0  501    0  0.00000000000E+00  0.00000000000E+00  0.20758529713E+02  0.20758530325E+02  0.50400000000E-02 0. -1.
         -2   -1    0    0    0  501 -0.00000000000E+00 -0.00000000000E+00 -0.77089747848E+02  0.77089747890E+02  0.25500000000E-02 0.  1.
        -24    2    1    2    0    0  0.00000000000E+00 -0.35527136788E-14 -0.56331218135E+02  0.97848278215E+02  0.80006746047E+02 0.  0.
         66    2    3    3    0    0 -0.11411644850E+02 -0.24118077017E+02 -0.64594031620E+02  0.69916351538E+02  0.20000035955E+01 0.  0.
         13    1    3    3    0    0  0.11411644850E+02  0.24118077017E+02  0.82628134846E+01  0.27931926677E+02  0.10566000000E+00 0. -1.
         13    1    4    4    0    0 -0.22402072465E+01 -0.62552589089E+01 -0.15855938991E+02  0.17192113246E+02  0.10566000000E+00 0. -1.
        -13    1    4    4    0    0 -0.63883250817E+01 -0.12970869679E+02 -0.33913323988E+02  0.36867043081E+02  0.10566000000E+00 0.  1.
        -14    1    4    4    0    0 -0.27831125220E+01 -0.48919484289E+01 -0.14824768641E+02  0.15857195212E+02  0.00000000000E+00 0.  1.
<mgrwt>
<rscale>  0 0.80006746E+02</rscale>
<asrwt>0</asrwt>
<pdfrwt beam="1">  1        1 0.31936200E-02 0.80006746E+02</pdfrwt>
<pdfrwt beam="2">  1       -2 0.11859961E-01 0.80006746E+02</pdfrwt>
<totfact> 0.11262478E+05</totfact>
</mgrwt>
</event>
<event>
 8    1  0.1319619E-024  0.8267897E+02  0.7818608E-02  0.1321616E+00
         -2   -1    0    0    0  501 -0.00000000000E+00  0.00000000000E+00  0.51218405159E+02  0.51218405223E+02  0.25500000000E-02 0.  1.
          1   -1    0    0  501    0  0.00000000000E+00 -0.00000000000E+00 -0.33365990851E+02  0.33365991232E+02  0.50400000000E-02 0. -1.
        -24    2    1    2    0    0  0.00000000000E+00 -0.35527136788E-14  0.17852414308E+02  0.84584396455E+02  0.82678966050E+02 0.  0.
         66    2    3    3    0    0  0.34780475165E+02  0.18779410553E+02 -0.33706935028E+01  0.39720388803E+02  0.19999996296E+01 0.  0.
         13    1    3    3    0    0 -0.34780475165E+02 -0.18779410553E+02  0.21223107811E+02  0.44864007652E+02  0.10566000000E+00 0. -1.
         13    1    4    4    0    0  0.16340619246E+02  0.80272702065E+01 -0.13609218395E+01  0.18256948721E+02  0.10566000000E+00 0. -1.
        -13    1    4    4    0    0  0.21275739264E+01  0.12595445466E+01  0.71701357307E-01  0.24757480481E+01  0.10566000000E+00 0.  1.
         14    1    4    4    0    0  0.16312281992E+02  0.94925958001E+01 -0.20814730206E+01  0.18987692033E+02  0.00000000000E+00 0. -1.
<mgrwt>
<rscale>  0 0.82678966E+02</rscale>
<asrwt>0</asrwt>
<pdfrwt beam="1">  1        1 0.51332294E-02 0.82678966E+02</pdfrwt>
<pdfrwt beam="2">  1       -2 0.78797546E-02 0.82678966E+02</pdfrwt>
<totfact> 0.11212104E+05</totfact>
</mgrwt>
</event>
<event>
 8    1  0.1319619E-024  0.7788218E+02  0.7818608E-02  0.1335171E+00
         -2   -1    0    0    0  501 -0.00000000000E+00  0.00000000000E+00  0.25238558234E+02  0.25238558363E+02  0.25500000000E-02 0.  1.
          1   -1    0    0  501    0  0.00000000000E+00 -0.00000000000E+00 -0.60083014732E+02  0.60083014944E+02  0.50400000000E-02 0. -1.
        -24    2    1    2    0    0  0.00000000000E+00  0.00000000000E+00 -0.34844456498E+02  0.85321573306E+02  0.77882184887E+02 0.  0.
         66    2    3    3    0    0 -0.11421348174E+02 -0.31013540839E+02 -0.39941693854E+02  0.51880880996E+02  0.19999988771E+01 0.  0.
         13    1    3    3    0    0  0.11421348174E+02  0.31013540839E+02  0.50972373560E+01  0.33440692310E+02  0.10566000000E+00 0. -1.
         13    1    4    4    0    0 -0.17406497684E+00 -0.29864683952E+00 -0.28822690116E+00  0.46230653583E+00  0.10566000000E+00 0. -1.
        -13    1    4    4    0    0 -0.90702523980E+01 -0.25623032699E+02 -0.32359210458E+02  0.42260370902E+02  0.10566000000E+00 0.  1.
        -14    1    4    4    0    0 -0.21770307990E+01 -0.50918613006E+01 -0.72942564949E+01  0.91582035584E+01  0.00000000000E+00 0.  1.
<mgrwt>
<rscale>  0 0.77882185E+02</rscale>
<asrwt>0</asrwt>
<pdfrwt beam="1">  1        1 0.92435408E-02 0.77882185E+02</pdfrwt>
<pdfrwt beam="2">  1       -2 0.38828551E-02 0.77882185E+02</pdfrwt>
<totfact> 0.14578420E+05</totfact>
</mgrwt>
</event>
<event>
 8    1  0.1319619E-024  0.8406051E+02  0.7818608E-02  0.1317908E+00
          1   -1    0    0  501    0  0.00000000000E+00  0.00000000000E+00  0.32433113209E+03  0.32433113213E+03  0.50400000000E-02 0. -1.
         -2   -1    0    0    0  501 -0.00000000000E+00 -0.00000000000E+00 -0.54467246945E+01  0.54467252914E+01  0.25500000000E-02 0.  1.
        -24    2    1    2    0    0  0.00000000000E+00  0.00000000000E+00  0.31888440739E+03  0.32977785742E+03  0.84060513708E+02 0.  0.
         66    2    3    3    0    0  0.97381717227E+01  0.39926930964E+02  0.12543379296E+03  0.13200995509E+03  0.20000051127E+01 0.  0.
         13    1    3    3    0    0 -0.97381717227E+01 -0.39926930964E+02  0.19345061443E+03  0.19776790233E+03  0.10566000000E+00 0. -1.
         13    1    4    4    0    0  0.46279719689E+01  0.18783284202E+02  0.58446962295E+02  0.61565318610E+02  0.10566000000E+00 0. -1.
        -13    1    4    4    0    0  0.48731927171E+01  0.18396089915E+02  0.59217381857E+02  0.62200270172E+02  0.10566000000E+00 0.  1.
         14    1    4    4    0    0  0.23700703672E+00  0.27475568472E+01  0.77694488105E+01  0.82443663057E+01  0.00000000000E+00 0. -1.
<mgrwt>
<rscale>  0 0.84060514E+02</rscale>
<asrwt>0</asrwt>
<pdfrwt beam="1">  1        1 0.49897108E-01 0.84060514E+02</pdfrwt>
<pdfrwt beam="2">  1       -2 0.83795751E-03 0.84060514E+02</pdfrwt>
<totfact> 0.16064570E+05</totfact>
</mgrwt>
</event>
<event>
 8    1  0.1319619E-024  0.8021366E+02  0.7818608E-02  0.1328446E+00
         -2   -1    0    0    0  501 -0.00000000000E+00  0.00000000000E+00  0.32373019395E+03  0.32373019396E+03  0.25500000000E-02 0.  1.
          1   -1    0    0  501    0  0.00000000000E+00 -0.00000000000E+00 -0.49688208737E+01  0.49688234298E+01  0.50400000000E-02 0. -1.
        -24    2    1    2    0    0  0.35527136788E-14  0.00000000000E+00  0.31876137308E+03  0.32869901739E+03  0.80213658859E+02 0.  0.
         66    2    3    3    0    0  0.30970471619E+02 -0.24794400697E+02  0.18288373664E+03  0.18714805248E+03  0.20000007349E+01 0.  0.
         13    1    3    3    0    0 -0.30970471619E+02  0.24794400697E+02  0.13587763644E+03  0.14155096491E+03  0.10566000000E+00 0. -1.
         13    1    4    4    0    0  0.61435027582E+01 -0.44525660211E+01  0.37057058085E+02  0.37825979013E+02  0.10566000000E+00 0.  1.
        -13    1    4    4    0    0  0.17641663493E+02 -0.15105405415E+02  0.10449401598E+03  0.10704397275E+03  0.10566000000E+00 0. -1.
        -14    1    4    4    0    0  0.71853053677E+01 -0.52364292603E+01  0.41332662575E+02  0.42278100716E+02  0.00000000000E+00 0.  1.
<mgrwt>
<rscale>  0 0.80213659E+02</rscale>
<asrwt>0</asrwt>
<pdfrwt beam="1">  1        1 0.76443409E-03 0.80213659E+02</pdfrwt>
<pdfrwt beam="2">  1       -2 0.49804651E-01 0.80213659E+02</pdfrwt>
<totfact> 0.66880741E+04</totfact>
</mgrwt>
</event>
<event>
 8    1  0.1319619E-024  0.7961794E+02  0.7818608E-02  0.1330139E+00
          1   -1    0    0  501    0  0.00000000000E+00  0.00000000000E+00  0.14868876487E+02  0.14868877341E+02  0.50400000000E-02 0. -1.
         -2   -1    0    0    0  501 -0.00000000000E+00 -0.00000000000E+00 -0.10658195413E+03  0.10658195416E+03  0.25500000000E-02 0.  1.
        -24    2    1    2    0    0 -0.17763568394E-14  0.00000000000E+00 -0.91713077647E+02  0.12145083151E+03  0.79617936810E+02 0.  0.
         66    2    3    3    0    0  0.92666410349E+01 -0.23115058998E+02 -0.93212100405E+02  0.96502187819E+02  0.20000008501E+01 0.  0.
         13    1    3    3    0    0 -0.92666410349E+01  0.23115058998E+02  0.14990227575E+01  0.24948643687E+02  0.10566000000E+00 0. -1.
         13    1    4    4    0    0  0.39383531013E+01 -0.11620459678E+02 -0.46338927191E+02  0.47935926459E+02  0.10566000000E+00 0.  1.
        -13    1    4    4    0    0  0.68954227206E+00 -0.16963179378E+01 -0.55779038386E+01  0.58717236277E+01  0.10566000000E+00 0. -1.
        -14    1    4    4    0    0  0.46387456615E+01 -0.97982813813E+01 -0.41295269376E+02  0.42694537732E+02  0.00000000000E+00 0.  1.
<mgrwt>
<rscale>  0 0.79617937E+02</rscale>
<asrwt>0</asrwt>
<pdfrwt beam="1">  1        1 0.22875196E-02 0.79617937E+02</pdfrwt>
<pdfrwt beam="2">  1       -2 0.16397223E-01 0.79617937E+02</pdfrwt>
<totfact> 0.10571542E+05</totfact>
</mgrwt>
</event>
<event>
 8    1  0.1319619E-024  0.8281664E+02  0.7818608E-02  0.1321243E+00
         -2   -1    0    0    0  501 -0.00000000000E+00  0.00000000000E+00  0.55212818744E+01  0.55212824632E+01  0.25500000000E-02 0.  1.
          1   -1    0    0  501    0  0.00000000000E+00 -0.00000000000E+00 -0.31055270888E+03  0.31055270892E+03  0.50400000000E-02 0. -1.
        -24    2    1    2    0    0  0.00000000000E+00  0.00000000000E+00 -0.30503142700E+03  0.31607399138E+03  0.82816644271E+02 0.  0.
         66    2    3    3    0    0  0.21750444714E+02 -0.33974949251E+02 -0.11736271479E+03  0.12411843473E+03  0.19999987310E+01 0.  0.
         13    1    3    3    0    0 -0.21750444714E+02  0.33974949251E+02 -0.18766871221E+03  0.19195555665E+03  0.10566000000E+00 0. -1.
         13    1    4    4    0    0  0.16449620127E+01 -0.27748606075E+01 -0.10749513897E+02  0.11223589642E+02  0.10566000000E+00 0. -1.
        -13    1    4    4    0    0  0.12085200156E+02 -0.19580744318E+02 -0.66912854842E+02  0.70758737397E+02  0.10566000000E+00 0.  1.
        -14    1    4    4    0    0  0.80202825458E+01 -0.11619344326E+02 -0.39700346050E+02  0.42136107688E+02  0.00000000000E+00 0.  1.
<mgrwt>
<rscale>  0 0.82816644E+02</rscale>
<asrwt>0</asrwt>
<pdfrwt beam="1">  1        1 0.47777326E-01 0.82816644E+02</pdfrwt>
<pdfrwt beam="2">  1       -2 0.84942827E-03 0.82816644E+02</pdfrwt>
<totfact> 0.16574792E+05</totfact>
</mgrwt>
</event>
<event>
 8    1  0.1319619E-024  0.8138127E+02  0.7818608E-02  0.1325177E+00
         -2   -1    0    0    0  501 -0.00000000000E+00  0.00000000000E+00  0.79886506545E+01  0.79886510614E+01  0.25500000000E-02 0.  1.
          1   -1    0    0  501    0  0.00000000000E+00 -0.00000000000E+00 -0.20726000364E+03  0.20726000370E+03  0.50400000000E-02 0. -1.
        -24    2    1    2    0    0  0.00000000000E+00  0.00000000000E+00 -0.19927135299E+03  0.21524865477E+03  0.81381270920E+02 0.  0.
         66    2    3    3    0    0  0.28850974448E+02  0.25549226022E+02 -0.65354086967E+02  0.75896629378E+02  0.19999976842E+01 0.  0.
         13    1    3    3    0    0 -0.28850974448E+02 -0.25549226022E+02 -0.13391726602E+03  0.13935202539E+03  0.10566000000E+00 0. -1.
         13    1    4    4    0    0  0.18028315481E+02  0.16321993279E+02 -0.40902025831E+02  0.47585864548E+02  0.10566000000E+00 0.  1.
        -13    1    4    4    0    0  0.54921510914E+00  0.42935343885E+00 -0.81755734766E+00  0.10796044016E+01  0.10566000000E+00 0. -1.
        -14    1    4    4    0    0  0.10273443858E+02  0.87978793036E+01 -0.23634503788E+02  0.27231160428E+02  0.00000000000E+00 0.  1.
<mgrwt>
<rscale>  0 0.81381271E+02</rscale>
<asrwt>0</asrwt>
<pdfrwt beam="1">  1        1 0.31886150E-01 0.81381271E+02</pdfrwt>
<pdfrwt beam="2">  1       -2 0.12290234E-02 0.81381271E+02</pdfrwt>
<totfact> 0.16043672E+05</totfact>
</mgrwt>
</event>
<event>
 8    1  0.1319619E-024  0.8128718E+02  0.7818608E-02  0.1325438E+00
         -2   -1    0    0    0  501 -0.00000000000E+00  0.00000000000E+00  0.45777695845E+02  0.45777695916E+02  0.25500000000E-02 0.  1.
          1   -1    0    0  501    0  0.00000000000E+00 -0.00000000000E+00 -0.36085288356E+02  0.36085288708E+02  0.50400000000E-02 0. -1.
        -24    2    1    2    0    0  0.00000000000E+00  0.00000000000E+00  0.96924074892E+01  0.81862984624E+02  0.81287179116E+02 0.  0.
         66    2    3    3    0    0 -0.33947664891E+01  0.32135802014E+02  0.29633662830E+02  0.43890638907E+02  0.20000000979E+01 0.  0.
         13    1    3    3    0    0  0.33947664891E+01 -0.32135802014E+02 -0.19941255340E+02  0.37972345716E+02  0.10566000000E+00 0. -1.
         13    1    4    4    0    0 -0.15070309534E+01  0.77954481905E+01  0.66802020711E+01  0.10376724846E+02  0.10566000000E+00 0. -1.
        -13    1    4    4    0    0 -0.94042942136E+00  0.95346407119E+01  0.92275519548E+01  0.13302355435E+02  0.10566000000E+00 0.  1.
         14    1    4    4    0    0 -0.94730611442E+00  0.14805713112E+02  0.13725908804E+02  0.20211558626E+02  0.00000000000E+00 0. -1.
<mgrwt>
<rscale>  0 0.81287179E+02</rscale>
<asrwt>0</asrwt>
<pdfrwt beam="1">  1        1 0.55515829E-02 0.81287179E+02</pdfrwt>
<pdfrwt beam="2">  1       -2 0.70427225E-02 0.81287179E+02</pdfrwt>
<totfact> 0.11930688E+05</totfact>
</mgrwt>
</event>
<event>
 8    1  0.1319619E-024  0.7913253E+02  0.7818608E-02  0.1331531E+00
         -2   -1    0    0    0  501 -0.00000000000E+00  0.00000000000E+00  0.51362964148E+02  0.51362964211E+02  0.25500000000E-02 0.  1.
          1   -1    0    0  501    0  0.00000000000E+00 -0.00000000000E+00 -0.30478953010E+02  0.30478953427E+02  0.50400000000E-02 0. -1.
        -24    2    1    2    0    0  0.00000000000E+00  0.00000000000E+00  0.20884011138E+02  0.81841917638E+02  0.79132531625E+02 0.  0.
         66    2    3    3    0    0  0.33278950283E+02  0.98997074646E+00  0.32510104784E+02  0.46576555149E+02  0.20000006176E+01 0.  0.
         13    1    3    3    0    0 -0.33278950283E+02 -0.98997074646E+00 -0.11626093645E+02  0.35265362489E+02  0.10566000000E+00 0. -1.
         13    1    4    4    0    0  0.23410486860E+01 -0.11573748068E+00  0.28761313432E+01  0.37117650321E+01  0.10566000000E+00 0. -1.
        -13    1    4    4    0    0  0.50478896485E+01 -0.14438424879E+00  0.48446099671E+01  0.69988175061E+01  0.10566000000E+00 0.  1.
         14    1    4    4    0    0  0.25890011948E+02  0.12500924759E+01  0.24789363473E+02  0.35865972611E+02  0.00000000000E+00 0. -1.
<mgrwt>
<rscale>  0 0.79132532E+02</rscale>
<asrwt>0</asrwt>
<pdfrwt beam="1">  1        1 0.46890698E-02 0.79132532E+02</pdfrwt>
<pdfrwt beam="2">  1       -2 0.79019945E-02 0.79132532E+02</pdfrwt>
<totfact> 0.12513823E+05</totfact>
</mgrwt>
</event>
<event>
 8    1  0.1319619E-024  0.8427319E+02  0.7818608E-02  0.1317344E+00
          1   -1    0    0  501    0  0.00000000000E+00  0.00000000000E+00  0.14609606660E+02  0.14609607530E+02  0.50400000000E-02 0. -1.
         -2   -1    0    0    0  501 -0.00000000000E+00 -0.00000000000E+00 -0.12152912874E+03  0.12152912877E+03  0.25500000000E-02 0.  1.
        -24    2    1    2    0    0  0.00000000000E+00  0.00000000000E+00 -0.10691952208E+03  0.13613873630E+03  0.84273194545E+02 0.  0.
         66    2    3    3    0    0 -0.27863564690E+02  0.11953177927E+02 -0.10070478197E+03  0.10518892437E+03  0.19999997778E+01 0.  0.
         13    1    3    3    0    0  0.27863564690E+02 -0.11953177927E+02 -0.62147401152E+01  0.30949811930E+02  0.10566000000E+00 0. -1.
         13    1    4    4    0    0 -0.11132159584E+02  0.54429476889E+01 -0.42884143648E+02  0.44638678262E+02  0.10566000000E+00 0.  1.
        -13    1    4    4    0    0 -0.13445069139E+01  0.29606020625E+00 -0.44726114299E+01  0.46808938810E+01  0.10566000000E+00 0. -1.
        -14    1    4    4    0    0 -0.15386898192E+02  0.62141700318E+01 -0.53348026890E+02  0.55869352226E+02  0.00000000000E+00 0.  1.
<mgrwt>
<rscale>  0 0.84273195E+02</rscale>
<asrwt>0</asrwt>
<pdfrwt beam="1">  1        1 0.22476320E-02 0.84273195E+02</pdfrwt>
<pdfrwt beam="2">  1       -2 0.18696788E-01 0.84273195E+02</pdfrwt>
<totfact> 0.88167799E+04</totfact>
</mgrwt>
</event>
<event>
 8    1  0.1319619E-024  0.7927750E+02  0.7818608E-02  0.1331114E+00
          1   -1    0    0  501    0  0.00000000000E+00  0.00000000000E+00  0.24868997379E+02  0.24868997889E+02  0.50400000000E-02 0. -1.
         -2   -1    0    0    0  501 -0.00000000000E+00 -0.00000000000E+00 -0.63180298120E+02  0.63180298172E+02  0.25500000000E-02 0.  1.
        -24    2    1    2    0    0 -0.44408920985E-15  0.00000000000E+00 -0.38311300742E+02  0.88049296061E+02  0.79277504831E+02 0.  0.
         66    2    3    3    0    0  0.33854806373E+01 -0.95125572329E+01 -0.61711164331E+02  0.62563711816E+02  0.20000022135E+01 0.  0.
         13    1    3    3    0    0 -0.33854806373E+01  0.95125572329E+01  0.23399863589E+02  0.25485584245E+02  0.10566000000E+00 0. -1.
         13    1    4    4    0    0 -0.11081224604E+00 -0.66673410255E+00 -0.31346200825E+01  0.32083984813E+01  0.10566000000E+00 0. -1.
        -13    1    4    4    0    0  0.23632234189E+00 -0.18083851109E+01 -0.11462376242E+02  0.11607038301E+02  0.10566000000E+00 0.  1.
        -14    1    4    4    0    0  0.32599705415E+01 -0.70374380195E+01 -0.47114168006E+02  0.47748275034E+02  0.00000000000E+00 0.  1.
<mgrwt>
<rscale>  0 0.79277505E+02</rscale>
<asrwt>0</asrwt>
<pdfrwt beam="1">  1        1 0.38259997E-02 0.79277505E+02</pdfrwt>
<pdfrwt beam="2">  1       -2 0.97200458E-02 0.79277505E+02</pdfrwt>
<totfact> 0.11996625E+05</totfact>
</mgrwt>
</event>
<event>
 8    1  0.1319619E-024  0.8862799E+02  0.7818608E-02  0.1306209E+00
          1   -1    0    0  501    0  0.00000000000E+00  0.00000000000E+00  0.24544534674E+02  0.24544535191E+02  0.50400000000E-02 0. -1.
         -2   -1    0    0    0  501 -0.00000000000E+00 -0.00000000000E+00 -0.80006811127E+02  0.80006811167E+02  0.25500000000E-02 0.  1.
        -24    2    1    2    0    0 -0.88817841970E-15  0.00000000000E+00 -0.55462276453E+02  0.10455134636E+03  0.88627986076E+02 0.  0.
         66    2    3    3    0    0 -0.45951050533E+01 -0.37914471537E+02 -0.54205053568E+02  0.66338600896E+02  0.19999985256E+01 0.  0.
         13    1    3    3    0    0  0.45951050533E+01  0.37914471537E+02 -0.12572228848E+01  0.38212745462E+02  0.10566000000E+00 0. -1.
         13    1    4    4    0    0  0.35844814940E-02 -0.30532148550E+01 -0.43228894571E+01  0.52934554965E+01  0.10566000000E+00 0. -1.
        -13    1    4    4    0    0 -0.33907977746E+01 -0.29194679046E+02 -0.42013535658E+02  0.51273532516E+02  0.10566000000E+00 0.  1.
        -14    1    4    4    0    0 -0.12078917602E+01 -0.56665776355E+01 -0.78686284534E+01  0.97716128833E+01  0.00000000000E+00 0.  1.
<mgrwt>
<rscale>  0 0.88627986E+02</rscale>
<asrwt>0</asrwt>
<pdfrwt beam="1">  1        1 0.37760824E-02 0.88627986E+02</pdfrwt>
<pdfrwt beam="2">  1       -2 0.12308740E-01 0.88627986E+02</pdfrwt>
<totfact> 0.86055924E+04</totfact>
</mgrwt>
</event>
<event>
 8    1  0.1319619E-024  0.8004908E+02  0.7818608E-02  0.1328912E+00
         -2   -1    0    0    0  501 -0.00000000000E+00  0.00000000000E+00  0.32193183985E+01  0.32193194084E+01  0.25500000000E-02 0.  1.
          1   -1    0    0  501    0  0.00000000000E+00 -0.00000000000E+00 -0.49760951172E+03  0.49760951174E+03  0.50400000000E-02 0. -1.
        -24    2    1    2    0    0  0.00000000000E+00  0.22204460493E-15 -0.49439019332E+03  0.50082883115E+03  0.80049077836E+02 0.  0.
         66    2    3    3    0    0 -0.25274087676E+02 -0.18845357151E+01 -0.44096056504E+03  0.44169282415E+03  0.19999991612E+01 0.  0.
         13    1    3    3    0    0  0.25274087676E+02  0.18845357151E+01 -0.53429628274E+02  0.59136007003E+02  0.10566000000E+00 0. -1.
         13    1    4    4    0    0 -0.10416243020E+02 -0.12028951449E+01 -0.19641486752E+03  0.19669457650E+03  0.10566000000E+00 0.  1.
        -13    1    4    4    0    0 -0.40637067654E+01  0.43715311705E-01 -0.65877842719E+02  0.66003158629E+02  0.10566000000E+00 0. -1.
        -14    1    4    4    0    0 -0.10794137891E+02 -0.72535588199E+00 -0.17866785480E+03  0.17899508902E+03  0.00000000000E+00 0.  1.
<mgrwt>
<rscale>  0 0.80049078E+02</rscale>
<asrwt>0</asrwt>
<pdfrwt beam="1">  1        1 0.76555249E-01 0.80049078E+02</pdfrwt>
<pdfrwt beam="2">  1       -2 0.49528023E-03 0.80049078E+02</pdfrwt>
<totfact> 0.19565878E+05</totfact>
</mgrwt>
</event>
<event>
 8    1  0.1319619E-024  0.8066917E+02  0.7818608E-02  0.1327163E+00
         -2   -1    0    0    0  501 -0.00000000000E+00  0.00000000000E+00  0.15950979457E+02  0.15950979660E+02  0.25500000000E-02 0.  1.
          1   -1    0    0  501    0  0.00000000000E+00 -0.00000000000E+00 -0.10199241130E+03  0.10199241142E+03  0.50400000000E-02 0. -1.
        -24    2    1    2    0    0  0.00000000000E+00  0.00000000000E+00 -0.86041431838E+02  0.11794339108E+03  0.80669173212E+02 0.  0.
         66    2    3    3    0    0  0.13140975376E+02  0.34608981654E+02 -0.19726976403E+02  0.41995481243E+02  0.20000004719E+01 0.  0.
         13    1    3    3    0    0 -0.13140975376E+02 -0.34608981654E+02 -0.66314455436E+02  0.75947909837E+02  0.10566000000E+00 0. -1.
         13    1    4    4    0    0  0.10207122793E+02  0.26413777952E+02 -0.14486949964E+02  0.31808110674E+02  0.10566000000E+00 0. -1.
        -13    1    4    4    0    0  0.16000507605E+01  0.38118600228E+01 -0.21493085192E+01  0.46605933545E+01  0.10566000000E+00 0.  1.
         14    1    4    4    0    0  0.13338018222E+01  0.43833436791E+01 -0.30907179201E+01  0.55267772138E+01  0.00000000000E+00 0. -1.
<mgrwt>
<rscale>  0 0.80669173E+02</rscale>
<asrwt>0</asrwt>
<pdfrwt beam="1">  1        1 0.15691140E-01 0.80669173E+02</pdfrwt>
<pdfrwt beam="2">  1       -2 0.24539969E-02 0.80669173E+02</pdfrwt>
<totfact> 0.14419796E+05</totfact>
</mgrwt>
</event>
<event>
 8    1  0.1474779E-024  0.8015434E+02  0.7818608E-02  0.1328614E+00
          1   -1    0    0  501    0  0.00000000000E+00  0.00000000000E+00  0.33770284455E+02  0.33770284831E+02  0.50400000000E-02 0. -1.
         -2   -1    0    0    0  501 -0.00000000000E+00 -0.00000000000E+00 -0.47561919654E+02  0.47561919723E+02  0.25500000000E-02 0.  1.
        -24    2    1    2    0    0  0.00000000000E+00  0.00000000000E+00 -0.13791635199E+02  0.81332204554E+02  0.80154340470E+02 0.  0.
         66    2    3    3    0    0  0.21920533301E+02  0.77827863048E+01 -0.39984337391E+02  0.46301498666E+02  0.19999998171E+01 0.  0.
         13    1    3    3    0    0 -0.21920533301E+02 -0.77827863048E+01  0.26192702192E+02  0.35030705888E+02  0.10566000000E+00 0. -1.
         13    1    4    4    0    0  0.10237448345E+01  0.27619308113E-01 -0.17735981812E+01  0.20507634814E+01  0.10566000000E+00 0. -1.
        -13    1    4    4    0    0  0.71768438426E+00  0.46510845413E+00 -0.14463737928E+01  0.16836145443E+01  0.10566000000E+00 0.  1.
        -14    1    4    4    0    0  0.20179104082E+02  0.72900585426E+01 -0.36764365416E+02  0.42567120640E+02  0.00000000000E+00 0.  1.
<mgrwt>
<rscale>  0 0.80154340E+02</rscale>
<asrwt>0</asrwt>
<pdfrwt beam="1">  1        1 0.51954284E-02 0.80154340E+02</pdfrwt>
<pdfrwt beam="2">  1       -2 0.73172184E-02 0.80154340E+02</pdfrwt>
<totfact> 0.12278006E+05</totfact>
</mgrwt>
</event>
<event>
 8    1  0.1319619E-024  0.8249037E+02  0.7818608E-02  0.1322129E+00
          1   -1    0    0  501    0  0.00000000000E+00  0.00000000000E+00  0.25232387896E+01  0.25232438232E+01  0.50400000000E-02 0. -1.
         -2   -1    0    0    0  501 -0.00000000000E+00 -0.00000000000E+00 -0.67419846900E+03  0.67419846900E+03  0.25500000000E-02 0.  1.
        -24    2    1    2    0    0  0.00000000000E+00  0.00000000000E+00 -0.67167523021E+03  0.67672171283E+03  0.82490373588E+02 0.  0.
         66    2    3    3    0    0 -0.23792865421E+02 -0.25920554972E+02 -0.51220950595E+03  0.51342044525E+03  0.19999997945E+01 0.  0.
         13    1    3    3    0    0  0.23792865421E+02  0.25920554972E+02 -0.15946572426E+03  0.16330126758E+03  0.10566000000E+00 0. -1.
         13    1    4    4    0    0 -0.67547920650E+01 -0.84811178647E+01 -0.16135684585E+03  0.16172074524E+03  0.10566000000E+00 0. -1.
        -13    1    4    4    0    0 -0.12011131215E+02 -0.12397734497E+02 -0.25348313317E+03  0.25407022860E+03  0.10566000000E+00 0.  1.
         14    1    4    4    0    0 -0.50269421410E+01 -0.50417026101E+01 -0.97369526930E+02  0.97629471406E+02  0.00000000000E+00 0. -1.
<mgrwt>
<rscale>  0 0.82490374E+02</rscale>
<asrwt>0</asrwt>
<pdfrwt beam="1">  1        1 0.38819151E-03 0.82490374E+02</pdfrwt>
<pdfrwt beam="2">  1       -2 0.10372270E+00 0.82490374E+02</pdfrwt>
<totfact> 0.36204656E+04</totfact>
</mgrwt>
</event>
<event>
 8    1  0.1319619E-024  0.8063263E+02  0.7818608E-02  0.1327266E+00
         -2   -1    0    0    0  501 -0.00000000000E+00  0.00000000000E+00  0.30004303351E+02  0.30004303460E+02  0.25500000000E-02 0.  1.
          1   -1    0    0  501    0  0.00000000000E+00 -0.00000000000E+00 -0.54172410072E+02  0.54172410307E+02  0.50400000000E-02 0. -1.
        -24    2    1    2    0    0  0.00000000000E+00 -0.11102230246E-15 -0.24168106721E+02  0.84176713767E+02  0.80632634572E+02 0.  0.
         66    2    3    3    0    0  0.23902820402E+02 -0.75553777821E+00  0.21760399217E+02  0.32394916943E+02  0.20000022934E+01 0.  0.
         13    1    3    3    0    0 -0.23902820402E+02  0.75553777821E+00 -0.45928505938E+02  0.51781796823E+02  0.10566000000E+00 0. -1.
         13    1    4    4    0    0  0.29363257787E+01  0.10777414353E+00  0.34184953790E+01  0.45089798222E+01  0.10566000000E+00 0. -1.
        -13    1    4    4    0    0  0.18334174623E+02 -0.52220417313E+00  0.16281621682E+02  0.24525844020E+02  0.10566000000E+00 0.  1.
         14    1    4    4    0    0  0.26323200004E+01 -0.34110774861E+00  0.20602821564E+01  0.33600931006E+01  0.00000000000E+00 0. -1.
<mgrwt>
<rscale>  0 0.80632635E+02</rscale>
<asrwt>0</asrwt>
<pdfrwt beam="1">  1        1 0.83342170E-02 0.80632635E+02</pdfrwt>
<pdfrwt beam="2">  1       -2 0.46160467E-02 0.80632635E+02</pdfrwt>
<totfact> 0.13035848E+05</totfact>
</mgrwt>
</event>
<event>
 8    1  0.1319619E-024  0.8098765E+02  0.7818608E-02  0.1326272E+00
         -2   -1    0    0    0  501 -0.00000000000E+00  0.00000000000E+00  0.31129175734E+02  0.31129175838E+02  0.25500000000E-02 0.  1.
          1   -1    0    0  501    0  0.00000000000E+00 -0.00000000000E+00 -0.52675662790E+02  0.52675663031E+02  0.50400000000E-02 0. -1.
        -24    2    1    2    0    0  0.35527136788E-14  0.35527136788E-14 -0.21546487056E+02  0.83804838869E+02  0.80987652845E+02 0.  0.
         66    2    3    3    0    0  0.31470354901E+02  0.25440118899E+02 -0.10363151322E+02  0.41820781783E+02  0.19999991090E+01 0.  0.
         13    1    3    3    0    0 -0.31470354901E+02 -0.25440118899E+02 -0.11183335734E+02  0.41984057086E+02  0.10566000000E+00 0. -1.
         13    1    4    4    0    0  0.55312716373E+01  0.38993748280E+01 -0.20254145196E+01  0.70649527944E+01  0.10566000000E+00 0. -1.
        -13    1    4    4    0    0  0.25941510492E+02  0.21553931491E+02 -0.83345163866E+01  0.34742038754E+02  0.10566000000E+00 0.  1.
        -14    1    4    4    0    0 -0.24272280916E-02 -0.13187420639E-01 -0.32204160878E-02  0.13790234918E-01  0.00000000000E+00 0.  1.
<mgrwt>
<rscale>  0 0.80987653E+02</rscale>
<asrwt>0</asrwt>
<pdfrwt beam="1">  1        1 0.81039482E-02 0.80987653E+02</pdfrwt>
<pdfrwt beam="2">  1       -2 0.47891040E-02 0.80987653E+02</pdfrwt>
<totfact> 0.12820851E+05</totfact>
</mgrwt>
</event>
<event>
 8    1  0.1319619E-024  0.7860690E+02  0.7818608E-02  0.1333052E+00
         -2   -1    0    0    0  501 -0.00000000000E+00  0.00000000000E+00  0.20717743167E+02  0.20717743324E+02  0.25500000000E-02 0.  1.
          1   -1    0    0  501    0  0.00000000000E+00 -0.00000000000E+00 -0.74562224605E+02  0.74562224775E+02  0.50400000000E-02 0. -1.
        -24    2    1    2    0    0  0.00000000000E+00  0.00000000000E+00 -0.53844481438E+02  0.95279968099E+02  0.78606896261E+02 0.  0.
         66    2    3    3    0    0  0.65772554002E+01 -0.31374473334E+02  0.57115613265E+00  0.32123886509E+02  0.19999998852E+01 0.  0.
         13    1    3    3    0    0 -0.65772554002E+01  0.31374473334E+02 -0.54415637570E+02  0.63156081590E+02  0.10566000000E+00 0. -1.
         13    1    4    4    0    0  0.26681146284E+01 -0.10167388282E+02  0.63441994365E+00  0.10531299675E+02  0.10566000000E+00 0. -1.
        -13    1    4    4    0    0  0.25838657694E+01 -0.15907957011E+02 -0.37773083983E+00  0.16121206629E+02  0.10566000000E+00 0.  1.
        -14    1    4    4    0    0  0.13252750025E+01 -0.52991280415E+01  0.31446702883E+00  0.54713802047E+01  0.00000000000E+00 0.  1.
<mgrwt>
<rscale>  0 0.78606896E+02</rscale>
<asrwt>0</asrwt>
<pdfrwt beam="1">  1        1 0.11471111E-01 0.78606896E+02</pdfrwt>
<pdfrwt beam="2">  1       -2 0.31873451E-02 0.78606896E+02</pdfrwt>
<totfact> 0.14698135E+05</totfact>
</mgrwt>
</event>
<event>
 8    1  0.1319619E-024  0.7921393E+02  0.7818608E-02  0.1331297E+00
         -2   -1    0    0    0  501 -0.00000000000E+00  0.00000000000E+00  0.61215583624E+01  0.61215588935E+01  0.25500000000E-02 0.  1.
          1   -1    0    0  501    0  0.00000000000E+00 -0.00000000000E+00 -0.25626016268E+03  0.25626016273E+03  0.50400000000E-02 0. -1.
        -24    2    1    2    0    0  0.00000000000E+00  0.00000000000E+00 -0.25013860431E+03  0.26238172162E+03  0.79213928522E+02 0.  0.
         66    2    3    3    0    0  0.97750622670E+01  0.37951129914E+02 -0.10674633495E+03  0.11373047144E+03  0.20000008634E+01 0.  0.
         13    1    3    3    0    0 -0.97750622670E+01 -0.37951129914E+02 -0.14339226936E+03  0.14865125018E+03  0.10566000000E+00 0. -1.
         13    1    4    4    0    0  0.13852444904E+01  0.63928948431E+01 -0.18729956987E+02  0.19839618432E+02  0.10566000000E+00 0. -1.
        -13    1    4    4    0    0  0.74689391908E+00  0.43708609927E+01 -0.12875438071E+02  0.13618015491E+02  0.10566000000E+00 0.  1.
        -14    1    4    4    0    0  0.76429238575E+01  0.27187374078E+02 -0.75140939896E+02  0.80272837516E+02  0.00000000000E+00 0.  1.
<mgrwt>
<rscale>  0 0.79213929E+02</rscale>
<asrwt>0</asrwt>
<pdfrwt beam="1">  1        1 0.39424632E-01 0.79213929E+02</pdfrwt>
<pdfrwt beam="2">  1       -2 0.94177845E-03 0.79213929E+02</pdfrwt>
<totfact> 0.17961710E+05</totfact>
</mgrwt>
</event>
<event>
 8    1  0.1319619E-024  0.8005046E+02  0.7818608E-02  0.1328908E+00
         -2   -1    0    0    0  501 -0.00000000000E+00  0.00000000000E+00  0.31309474113E+01  0.31309484498E+01  0.25500000000E-02 0.  1.
          1   -1    0    0  501    0  0.00000000000E+00 -0.00000000000E+00 -0.51167216912E+03  0.51167216915E+03  0.50400000000E-02 0. -1.
        -24    2    1    2    0    0  0.00000000000E+00  0.00000000000E+00 -0.50854122171E+03  0.51480311760E+03  0.80050457264E+02 0.  0.
         66    2    3    3    0    0 -0.38365788484E+02  0.91362064690E+01 -0.29738186805E+03  0.29999229897E+03  0.20000010956E+01 0.  0.
         13    1    3    3    0    0  0.38365788484E+02 -0.91362064690E+01 -0.21115935366E+03  0.21481081862E+03  0.10566000000E+00 0. -1.
         13    1    4    4    0    0 -0.43108051394E+01  0.12637779043E+01 -0.30598753804E+02  0.30926931208E+02  0.10566000000E+00 0. -1.
        -13    1    4    4    0    0 -0.74595238902E+01  0.13641133380E+01 -0.55772296733E+02  0.56285571409E+02  0.10566000000E+00 0. -1.
        -14    1    4    4    0    0 -0.26595459455E+02  0.65083152267E+01 -0.21101081751E+03  0.21277979636E+03  0.00000000000E+00 0.  1.
<mgrwt>
<rscale>  0 0.80050457E+02</rscale>
<asrwt>0</asrwt>
<pdfrwt beam="1">  1        1 0.78718729E-01 0.80050457E+02</pdfrwt>
<pdfrwt beam="2">  1       -2 0.48168470E-03 0.80050457E+02</pdfrwt>
<totfact> 0.19628106E+05</totfact>
</mgrwt>
</event>
<event>
 8    1  0.1319619E-024  0.8054438E+02  0.7818608E-02  0.1327514E+00
          1   -1    0    0  501    0  0.00000000000E+00  0.00000000000E+00  0.26441672130E+02  0.26441672610E+02  0.50400000000E-02 0. -1.
         -2   -1    0    0    0  501 -0.00000000000E+00 -0.00000000000E+00 -0.61336863488E+02  0.61336863541E+02  0.25500000000E-02 0.  1.
        -24    2    1    2    0    0  0.00000000000E+00  0.35527136788E-14 -0.34895191358E+02  0.87778536151E+02  0.80544379250E+02 0.  0.
         66    2    3    3    0    0  0.28640871191E+02 -0.16391592978E+02 -0.42568125460E+02  0.53898322092E+02  0.19999990572E+01 0.  0.
         13    1    3    3    0    0 -0.28640871191E+02  0.16391592978E+02  0.76729341017E+01  0.33880214059E+02  0.10566000000E+00 0. -1.
         13    1    4    4    0    0  0.13907167128E+01 -0.94004500199E+00 -0.28481309008E+01  0.33076866908E+01  0.10566000000E+00 0. -1.
        -13    1    4    4    0    0  0.45845269421E+01 -0.28523195083E+01 -0.69051304338E+01  0.87661624559E+01  0.10566000000E+00 0.  1.
         14    1    4    4    0    0  0.22665627536E+02 -0.12599228468E+02 -0.32814864125E+02  0.41824472945E+02  0.00000000000E+00 0. -1.
<mgrwt>
<rscale>  0 0.80544379E+02</rscale>
<asrwt>0</asrwt>
<pdfrwt beam="1">  1        1 0.40679496E-02 0.80544379E+02</pdfrwt>
<pdfrwt beam="2">  1       -2 0.94364405E-02 0.80544379E+02</pdfrwt>
<totfact> 0.11589500E+05</totfact>
</mgrwt>
</event>
<event>
 8    1  0.1319619E-024  0.7966616E+02  0.7818608E-02  0.1330001E+00
          1   -1    0    0  501    0  0.00000000000E+00  0.00000000000E+00  0.47484469368E+01  0.47484496115E+01  0.50400000000E-02 0. -1.
         -2   -1    0    0    0  501 -0.00000000000E+00 -0.00000000000E+00 -0.33414588302E+03  0.33414588303E+03  0.25500000000E-02 0.  1.
        -24    2    1    2    0    0  0.00000000000E+00 -0.35527136788E-14 -0.32939743608E+03  0.33889433264E+03  0.79666164701E+02 0.  0.
         66    2    3    3    0    0  0.28669081096E+01  0.26660272969E+02 -0.28996326076E+03  0.29120728341E+03  0.20000007326E+01 0.  0.
         13    1    3    3    0    0 -0.28669081096E+01 -0.26660272969E+02 -0.39434175316E+02  0.47687049225E+02  0.10566000000E+00 0. -1.
         13    1    4    4    0    0  0.47053316907E+00  0.25104386331E+01 -0.25990069576E+02  0.26115485524E+02  0.10566000000E+00 0. -1.
        -13    1    4    4    0    0  0.16803413960E+01  0.11907545927E+02 -0.13811297680E+03  0.13863556081E+03  0.10566000000E+00 0.  1.
        -14    1    4    4    0    0  0.71603354446E+00  0.12242288409E+02 -0.12586021439E+03  0.12645623708E+03  0.00000000000E+00 0.  1.
<mgrwt>
<rscale>  0 0.79666165E+02</rscale>
<asrwt>0</asrwt>
<pdfrwt beam="1">  1        1 0.73053077E-03 0.79666165E+02</pdfrwt>
<pdfrwt beam="2">  1       -2 0.51407040E-01 0.79666165E+02</pdfrwt>
<totfact> 0.66835334E+04</totfact>
</mgrwt>
</event>
<event>
 8    1  0.1319619E-024  0.8075268E+02  0.7818608E-02  0.1326929E+00
          1   -1    0    0  501    0  0.00000000000E+00  0.00000000000E+00  0.48833868235E+02  0.48833868495E+02  0.50400000000E-02 0. -1.
         -2   -1    0    0    0  501 -0.00000000000E+00 -0.00000000000E+00 -0.33383568041E+02  0.33383568139E+02  0.25500000000E-02 0.  1.
        -24    2    1    2    0    0  0.00000000000E+00 -0.35527136788E-14  0.15450300194E+02  0.82217436634E+02  0.80752678659E+02 0.  0.
         66    2    3    3    0    0  0.24097818226E+02  0.24397237634E+02 -0.13923564155E+02  0.37064749912E+02  0.19999999600E+01 0.  0.
         13    1    3    3    0    0 -0.24097818226E+02 -0.24397237634E+02  0.29373864348E+02  0.45152686722E+02  0.10566000000E+00 0. -1.
         13    1    4    4    0    0  0.17965457799E+01  0.23216921118E+01 -0.13655835918E+01  0.32394156237E+01  0.10566000000E+00 0. -1.
        -13    1    4    4    0    0  0.20931468975E+02  0.20243596294E+02 -0.11711086191E+02  0.31386148030E+02  0.10566000000E+00 0.  1.
        -14    1    4    4    0    0  0.13698034715E+01  0.18319492286E+01 -0.84689437158E+00  0.24391862584E+01  0.00000000000E+00 0.  1.
<mgrwt>
<rscale>  0 0.80752679E+02</rscale>
<asrwt>0</asrwt>
<pdfrwt beam="1">  1        1 0.75129029E-02 0.80752679E+02</pdfrwt>
<pdfrwt beam="2">  1       -2 0.51359336E-02 0.80752679E+02</pdfrwt>
<totfact> 0.12770604E+05</totfact>
</mgrwt>
</event>
<event>
 8    1  0.1319619E-024  0.7990036E+02  0.7818608E-02  0.1329334E+00
         -2   -1    0    0    0  501 -0.00000000000E+00  0.00000000000E+00  0.27224011066E+01  0.27224023008E+01  0.25500000000E-02 0.  1.
          1   -1    0    0  501    0  0.00000000000E+00 -0.00000000000E+00 -0.58625331894E+03  0.58625331896E+03  0.50400000000E-02 0. -1.
        -24    2    1    2    0    0 -0.35527136788E-14  0.00000000000E+00 -0.58353091783E+03  0.58897572126E+03  0.79900364011E+02 0.  0.
         66    2    3    3    0    0  0.29617188844E+02  0.81575514533E+01 -0.47992344927E+03  0.48090980514E+03  0.20000004664E+01 0.  0.
         13    1    3    3    0    0 -0.29617188844E+02 -0.81575514533E+01 -0.10360746856E+03  0.10806591612E+03  0.10566000000E+00 0. -1.
         13    1    4    4    0    0  0.92631738336E+01  0.25641707547E+01 -0.14342980353E+03  0.14375152544E+03  0.10566000000E+00 0.  1.
        -13    1    4    4    0    0  0.52326461464E+01  0.18364348351E+01 -0.80416500683E+02  0.80607554390E+02  0.10566000000E+00 0. -1.
         14    1    4    4    0    0  0.15121368864E+02  0.37569458635E+01 -0.25607714506E+03  0.25655072531E+03  0.00000000000E+00 0. -1.
<mgrwt>
<rscale>  0 0.79900364E+02</rscale>
<asrwt>0</asrwt>
<pdfrwt beam="1">  1        1 0.90192718E-01 0.79900364E+02</pdfrwt>
<pdfrwt beam="2">  1       -2 0.41883150E-03 0.79900364E+02</pdfrwt>
<totfact> 0.19971091E+05</totfact>
</mgrwt>
</event>
<event>
 8    1  0.1319619E-024  0.8046023E+02  0.7818608E-02  0.1327750E+00
          1   -1    0    0  501    0  0.00000000000E+00  0.00000000000E+00  0.24707673968E+02  0.24707674482E+02  0.50400000000E-02 0. -1.
         -2   -1    0    0    0  501 -0.00000000000E+00 -0.00000000000E+00 -0.65504426064E+02  0.65504426113E+02  0.25500000000E-02 0.  1.
        -24    2    1    2    0    0  0.00000000000E+00  0.35527136788E-14 -0.40796752096E+02  0.90212100596E+02  0.80460226897E+02 0.  0.
         66    2    3    3    0    0  0.33682048216E+01  0.24992965651E+02 -0.55518399818E+02  0.61010538798E+02  0.19999975677E+01 0.  0.
         13    1    3    3    0    0 -0.33682048216E+01 -0.24992965651E+02  0.14721647723E+02  0.29201561798E+02  0.10566000000E+00 0. -1.
         13    1    4    4    0    0  0.17511236891E+00  0.11805155759E+01 -0.18173503122E+01  0.21767424192E+01  0.10566000000E+00 0. -1.
        -13    1    4    4    0    0  0.26858555787E+01  0.19184367853E+02 -0.43807976507E+02  0.47899934862E+02  0.10566000000E+00 0.  1.
         14    1    4    4    0    0  0.50723687395E+00  0.46280822217E+01 -0.98930729991E+01  0.10933861517E+02  0.00000000000E+00 0. -1.
<mgrwt>
<rscale>  0 0.80460227E+02</rscale>
<asrwt>0</asrwt>
<pdfrwt beam="1">  1        1 0.38011807E-02 0.80460227E+02</pdfrwt>
<pdfrwt beam="2">  1       -2 0.10077604E-01 0.80460227E+02</pdfrwt>
<totfact> 0.11474671E+05</totfact>
</mgrwt>
</event>
<event>
 8    1  0.1319619E-024  0.8002443E+02  0.7818608E-02  0.1328982E+00
         -2   -1    0    0    0  501 -0.00000000000E+00  0.00000000000E+00  0.88261131427E+02  0.88261131464E+02  0.25500000000E-02 0.  1.
          1   -1    0    0  501    0  0.00000000000E+00 -0.00000000000E+00 -0.18139096777E+02  0.18139097477E+02  0.50400000000E-02 0. -1.
        -24    2    1    2    0    0  0.00000000000E+00 -0.17763568394E-14  0.70122034650E+02  0.10640022894E+03  0.80024427365E+02 0.  0.
         66    2    3    3    0    0  0.35897236502E+02 -0.15348278937E+02  0.46581449758E+02  0.60811287782E+02  0.20000013285E+01 0.  0.
         13    1    3    3    0    0 -0.35897236502E+02  0.15348278937E+02  0.23540584892E+02  0.45588941158E+02  0.10566000000E+00 0. -1.
         13    1    4    4    0    0  0.66129672628E+00 -0.17686793755E+00  0.69401041289E+00  0.98051523004E+00  0.10566000000E+00 0. -1.
        -13    1    4    4    0    0  0.78384033295E+01 -0.39601440579E+01  0.11025854142E+02  0.14096238197E+02  0.10566000000E+00 0.  1.
        -14    1    4    4    0    0  0.27397536447E+02 -0.11211266941E+02  0.34861585203E+02  0.45734534355E+02  0.00000000000E+00 0.  1.
<mgrwt>
<rscale>  0 0.80024427E+02</rscale>
<asrwt>0</asrwt>
<pdfrwt beam="1">  1        1 0.27906303E-02 0.80024427E+02</pdfrwt>
<pdfrwt beam="2">  1       -2 0.13578636E-01 0.80024427E+02</pdfrwt>
<totfact> 0.10925513E+05</totfact>
</mgrwt>
</event>
<event>
 8    1  0.1319619E-024  0.7983282E+02  0.7818608E-02  0.1329527E+00
         -2   -1    0    0    0  501 -0.00000000000E+00  0.00000000000E+00  0.10817806473E+02  0.10817806774E+02  0.25500000000E-02 0.  1.
          1   -1    0    0  501    0  0.00000000000E+00 -0.00000000000E+00 -0.14728677302E+03  0.14728677311E+03  0.50400000000E-02 0. -1.
        -24    2    1    2    0    0  0.00000000000E+00  0.00000000000E+00 -0.13646896655E+03  0.15810457988E+03  0.79832821251E+02 0.  0.
         66    2    3    3    0    0 -0.38084288790E+02  0.36231923853E+01 -0.45890764562E+02  0.59778782581E+02  0.19999997603E+01 0.  0.
         13    1    3    3    0    0  0.38084288790E+02 -0.36231923853E+01 -0.90578201990E+02  0.98325797304E+02  0.10566000000E+00 0. -1.
         13    1    4    4    0    0 -0.10599896802E+02  0.12026335887E+01 -0.14122048723E+02  0.17698801200E+02  0.10566000000E+00 0. -1.
        -13    1    4    4    0    0 -0.14655237747E+02  0.11724865885E+01 -0.17218388769E+02  0.22641439752E+02  0.10566000000E+00 0.  1.
        -14    1    4    4    0    0 -0.12829154242E+02  0.12480722082E+01 -0.14550327070E+02  0.19438541628E+02  0.00000000000E+00 0.  1.
<mgrwt>
<rscale>  0 0.79832821E+02</rscale>
<asrwt>0</asrwt>
<pdfrwt beam="1">  1        1 0.22659502E-01 0.79832821E+02</pdfrwt>
<pdfrwt beam="2">  1       -2 0.16642780E-02 0.79832821E+02</pdfrwt>
<totfact> 0.15823686E+05</totfact>
</mgrwt>
</event>
<event>
 8    1  0.1319619E-024  0.7926072E+02  0.7818608E-02  0.1331163E+00
          1   -1    0    0  501    0  0.00000000000E+00  0.00000000000E+00  0.22466324931E+03  0.22466324937E+03  0.50400000000E-02 0. -1.
         -2   -1    0    0    0  501 -0.00000000000E+00 -0.00000000000E+00 -0.69907532913E+01  0.69907537564E+01  0.25500000000E-02 0.  1.
        -24    2    1    2    0    0  0.00000000000E+00  0.35527136788E-14  0.21767249602E+03  0.23165400313E+03  0.79260719401E+02 0.  0.
         66    2    3    3    0    0 -0.22316154197E+02 -0.20954565576E+02  0.18234884338E+03  0.18491134427E+03  0.20000006780E+01 0.  0.
         13    1    3    3    0    0  0.22316154197E+02  0.20954565576E+02  0.35323652645E+02  0.46742658855E+02  0.10566000000E+00 0. -1.
         13    1    4    4    0    0 -0.64706235099E+01 -0.56051031033E+01  0.51189493493E+02  0.51900496698E+02  0.10566000000E+00 0.  1.
        -13    1    4    4    0    0 -0.24033707192E+00 -0.50378343186E+00  0.28173955880E+01  0.28740983959E+01  0.10566000000E+00 0. -1.
        -14    1    4    4    0    0 -0.15605193615E+02 -0.14845679041E+02  0.12834195430E+03  0.13013674918E+03  0.00000000000E+00 0.  1.
<mgrwt>
<rscale>  0 0.79260719E+02</rscale>
<asrwt>0</asrwt>
<pdfrwt beam="1">  1        1 0.34563577E-01 0.79260719E+02</pdfrwt>
<pdfrwt beam="2">  1       -2 0.10755006E-02 0.79260719E+02</pdfrwt>
<totfact> 0.17480407E+05</totfact>
</mgrwt>
</event>
<event>
 8    1  0.1319619E-024  0.7953584E+02  0.7818608E-02  0.1330374E+00
         -2   -1    0    0    0  501 -0.00000000000E+00  0.00000000000E+00  0.49601551365E+02  0.49601551430E+02  0.25500000000E-02 0.  1.
          1   -1    0    0  501    0  0.00000000000E+00 -0.00000000000E+00 -0.31883830404E+02  0.31883830802E+02  0.50400000000E-02 0. -1.
        -24    2    1    2    0    0  0.00000000000E+00  0.00000000000E+00  0.17717720961E+02  0.81485382232E+02  0.79535840232E+02 0.  0.
         66    2    3    3    0    0  0.77188237495E+01  0.12636993245E+02  0.46649461888E+02  0.48984141711E+02  0.20000015862E+01 0.  0.
         13    1    3    3    0    0 -0.77188237495E+01 -0.12636993245E+02 -0.28931740927E+02  0.32501240522E+02  0.10566000000E+00 0. -1.
         13    1    4    4    0    0  0.16762597132E+01  0.23346815650E+01  0.72921725597E+01  0.78388474479E+01  0.10566000000E+00 0. -1.
        -13    1    4    4    0    0  0.15154742578E+01  0.21558406290E+01  0.73554853272E+01  0.78140027820E+01  0.10566000000E+00 0.  1.
         14    1    4    4    0    0  0.45270897785E+01  0.81464710505E+01  0.32001804001E+02  0.33331291481E+02  0.00000000000E+00 0. -1.
<mgrwt>
<rscale>  0 0.79535840E+02</rscale>
<asrwt>0</asrwt>
<pdfrwt beam="1">  1        1 0.49052047E-02 0.79535840E+02</pdfrwt>
<pdfrwt beam="2">  1       -2 0.76310079E-02 0.79535840E+02</pdfrwt>
<totfact> 0.12429580E+05</totfact>
</mgrwt>
</event>
<event>
 8    1  0.1319619E-024  0.7571496E+02  0.7818608E-02  0.1341671E+00
          1   -1    0    0  501    0  0.00000000000E+00  0.00000000000E+00  0.10272050233E+02  0.10272051469E+02  0.50400000000E-02 0. -1.
         -2   -1    0    0    0  501 -0.00000000000E+00 -0.00000000000E+00 -0.13952312119E+03  0.13952312121E+03  0.25500000000E-02 0.  1.
        -24    2    1    2    0    0 -0.71054273576E-14  0.00000000000E+00 -0.12925107095E+03  0.14979517268E+03  0.75714955029E+02 0.  0.
         66    2    3    3    0    0 -0.37056587120E+02  0.44365308084E+01 -0.76915924264E+02  0.85515687633E+02  0.19999928675E+01 0.  0.
         13    1    3    3    0    0  0.37056587120E+02 -0.44365308084E+01 -0.52335146690E+02  0.64279485045E+02  0.10566000000E+00 0. -1.
         13    1    4    4    0    0 -0.16506103851E+02  0.20419737516E+01 -0.34056246846E+02  0.37900662718E+02  0.10566000000E+00 0. -1.
        -13    1    4    4    0    0 -0.18519398987E+02  0.23270408605E+01 -0.39510302608E+02  0.43697350426E+02  0.10566000000E+00 0.  1.
         14    1    4    4    0    0 -0.20310842814E+01  0.67516196376E-01 -0.33493748094E+01  0.39176744899E+01  0.00000000000E+00 0. -1.
<mgrwt>
<rscale>  0 0.75714955E+02</rscale>
<asrwt>0</asrwt>
<pdfrwt beam="1">  1        1 0.15803156E-02 0.75714955E+02</pdfrwt>
<pdfrwt beam="2">  1       -2 0.21465094E-01 0.75714955E+02</pdfrwt>
<totfact> 0.11141498E+05</totfact>
</mgrwt>
</event>
<event>
 8    1  0.1319619E-024  0.7726050E+02  0.7818608E-02  0.1337011E+00
          1   -1    0    0  501    0  0.00000000000E+00  0.00000000000E+00  0.51916825668E+01  0.51916850132E+01  0.50400000000E-02 0. -1.
         -2   -1    0    0    0  501 -0.00000000000E+00 -0.00000000000E+00 -0.28743976024E+03  0.28743976025E+03  0.25500000000E-02 0.  1.
        -24    2    1    2    0    0  0.00000000000E+00  0.00000000000E+00 -0.28224807767E+03  0.29263144526E+03  0.77260503541E+02 0.  0.
         66    2    3    3    0    0  0.22957415232E+02  0.80212286858E+01 -0.25477724411E+03  0.25594301542E+03  0.20000004766E+01 0.  0.
         13    1    3    3    0    0 -0.22957415232E+02 -0.80212286858E+01 -0.27470833561E+02  0.36688429843E+02  0.10566000000E+00 0. -1.
         13    1    4    4    0    0  0.82316839345E+01  0.36946767586E+01 -0.95010883933E+02  0.95438412007E+02  0.10566000000E+00 0. -1.
        -13    1    4    4    0    0  0.40039986694E+01  0.11932106829E+01 -0.39395149311E+02  0.39616217769E+02  0.10566000000E+00 0.  1.
        -14    1    4    4    0    0  0.10721732628E+02  0.31333412443E+01 -0.12037121087E+03  0.12088838564E+03  0.00000000000E+00 0.  1.
<mgrwt>
<rscale>  0 0.77260504E+02</rscale>
<asrwt>0</asrwt>
<pdfrwt beam="1">  1        1 0.79872081E-03 0.77260504E+02</pdfrwt>
<pdfrwt beam="2">  1       -2 0.44221489E-01 0.77260504E+02</pdfrwt>
<totfact> 0.78661614E+04</totfact>
</mgrwt>
</event>
<event>
 8    1  0.1319619E-024  0.7783725E+02  0.7818608E-02  0.1335304E+00
         -2   -1    0    0    0  501 -0.00000000000E+00  0.00000000000E+00  0.31752817308E+02  0.31752817410E+02  0.25500000000E-02 0.  1.
          1   -1    0    0  501    0  0.00000000000E+00 -0.00000000000E+00 -0.47701568839E+02  0.47701569105E+02  0.50400000000E-02 0. -1.
        -24    2    1    2    0    0 -0.44408920985E-15  0.00000000000E+00 -0.15948751531E+02  0.79454386515E+02  0.77837245976E+02 0.  0.
         66    2    3    3    0    0 -0.27347001794E+01 -0.38719378898E+02 -0.54822891381E+01  0.39252062125E+02  0.19999998944E+01 0.  0.
         13    1    3    3    0    0  0.27347001794E+01  0.38719378898E+02 -0.10466462393E+02  0.40202324390E+02  0.10566000000E+00 0. -1.
         13    1    4    4    0    0 -0.13142732165E+00 -0.14209510958E+02 -0.18969081815E+01  0.14336558146E+02  0.10566000000E+00 0. -1.
        -13    1    4    4    0    0 -0.98152086682E+00 -0.11828399186E+02 -0.15710142554E+01  0.11973038894E+02  0.10566000000E+00 0.  1.
        -14    1    4    4    0    0 -0.16217519909E+01 -0.12681468754E+02 -0.20143667012E+01  0.12942465085E+02  0.00000000000E+00 0.  1.
<mgrwt>
<rscale>  0 0.77837246E+02</rscale>
<asrwt>0</asrwt>
<pdfrwt beam="1">  1        1 0.73387030E-02 0.77837246E+02</pdfrwt>
<pdfrwt beam="2">  1       -2 0.48850488E-02 0.77837246E+02</pdfrwt>
<totfact> 0.14094607E+05</totfact>
</mgrwt>
</event>
<event>
 8    1  0.1319619E-024  0.8136362E+02  0.7818608E-02  0.1325226E+00
          1   -1    0    0  501    0  0.00000000000E+00  0.00000000000E+00  0.30070394822E+02  0.30070395244E+02  0.50400000000E-02 0. -1.
         -2   -1    0    0    0  501 -0.00000000000E+00 -0.00000000000E+00 -0.55037835417E+02  0.55037835476E+02  0.25500000000E-02 0.  1.
        -24    2    1    2    0    0  0.00000000000E+00  0.00000000000E+00 -0.24967440596E+02  0.85108230720E+02  0.81363615004E+02 0.  0.
         66    2    3    3    0    0  0.74552781505E+01 -0.30890732231E+02 -0.39019553531E+02  0.50362129471E+02  0.20000042510E+01 0.  0.
         13    1    3    3    0    0 -0.74552781505E+01  0.30890732231E+02  0.14052112935E+02  0.34746101250E+02  0.10566000000E+00 0. -1.
         13    1    4    4    0    0  0.20062155477E+00 -0.18358618350E+01 -0.27722810445E+01  0.33327682054E+01  0.10566000000E+00 0. -1.
        -13    1    4    4    0    0  0.35058476635E+01 -0.13465024830E+02 -0.17616377710E+02  0.22448736917E+02  0.10566000000E+00 0.  1.
         14    1    4    4    0    0  0.37488089322E+01 -0.15589845567E+02 -0.18630894776E+02  0.24580624348E+02  0.00000000000E+00 0. -1.
<mgrwt>
<rscale>  0 0.81363615E+02</rscale>
<asrwt>0</asrwt>
<pdfrwt beam="1">  1        1 0.46262146E-02 0.81363615E+02</pdfrwt>
<pdfrwt beam="2">  1       -2 0.84673593E-02 0.81363615E+02</pdfrwt>
<totfact> 0.11525162E+05</totfact>
</mgrwt>
</event>
<event>
 8    1  0.1319619E-024  0.7842557E+02  0.7818608E-02  0.1333580E+00
         -2   -1    0    0    0  501 -0.00000000000E+00  0.00000000000E+00  0.33052386035E+02  0.33052386133E+02  0.25500000000E-02 0.  1.
          1   -1    0    0  501    0  0.00000000000E+00 -0.00000000000E+00 -0.46521373387E+02  0.46521373660E+02  0.50400000000E-02 0. -1.
        -24    2    1    2    0    0 -0.35527136788E-14  0.35527136788E-14 -0.13468987353E+02  0.79573759793E+02  0.78425567434E+02 0.  0.
         66    2    3    3    0    0 -0.21459399313E+02  0.24905672839E+02  0.14900334196E+02  0.36149942278E+02  0.20000022676E+01 0.  0.
         13    1    3    3    0    0  0.21459399313E+02 -0.24905672839E+02 -0.28369321548E+02  0.43423817516E+02  0.10566000000E+00 0. -1.
         13    1    4    4    0    0 -0.15243089010E+01  0.21082777786E+01  0.82018640793E+00  0.27298759306E+01  0.10566000000E+00 0. -1.
        -13    1    4    4    0    0 -0.10863081170E+02  0.11654446319E+02  0.77821920815E+01  0.17731506680E+02  0.10566000000E+00 0.  1.
        -14    1    4    4    0    0 -0.90720092426E+01  0.11142948742E+02  0.62979557064E+01  0.15688559668E+02  0.00000000000E+00 0.  1.
<mgrwt>
<rscale>  0 0.78425567E+02</rscale>
<asrwt>0</asrwt>
<pdfrwt beam="1">  1        1 0.71571344E-02 0.78425567E+02</pdfrwt>
<pdfrwt beam="2">  1       -2 0.50849825E-02 0.78425567E+02</pdfrwt>
<totfact> 0.13749389E+05</totfact>
</mgrwt>
</event>
<event>
 8    1  0.1319619E-024  0.7922248E+02  0.7818608E-02  0.1331273E+00
         -2   -1    0    0    0  501 -0.00000000000E+00  0.00000000000E+00  0.18363321803E+02  0.18363321980E+02  0.25500000000E-02 0.  1.
          1   -1    0    0  501    0  0.00000000000E+00 -0.00000000000E+00 -0.85444802788E+02  0.85444802937E+02  0.50400000000E-02 0. -1.
        -24    2    1    2    0    0  0.00000000000E+00 -0.35527136788E-14 -0.67081480985E+02  0.10380812492E+03  0.79222482336E+02 0.  0.
         66    2    3    3    0    0 -0.13906811323E+01 -0.30753195777E+02 -0.95198056313E+00  0.30864207866E+02  0.20000039308E+01 0.  0.
         13    1    3    3    0    0  0.13906811323E+01  0.30753195777E+02 -0.66129500422E+02  0.72943917050E+02  0.10566000000E+00 0. -1.
         13    1    4    4    0    0 -0.62988620602E+00 -0.15723351868E+02  0.14068088234E+00  0.15736947154E+02  0.10566000000E+00 0. -1.
        -13    1    4    4    0    0 -0.38587106002E+00 -0.32918919227E+01  0.13822614999E+00  0.33189937346E+01  0.10566000000E+00 0.  1.
         14    1    4    4    0    0 -0.37492386627E+00 -0.11737951986E+02 -0.12308875955E+01  0.11808266977E+02  0.00000000000E+00 0. -1.
<mgrwt>
<rscale>  0 0.79222482E+02</rscale>
<asrwt>0</asrwt>
<pdfrwt beam="1">  1        1 0.13145354E-01 0.79222482E+02</pdfrwt>
<pdfrwt beam="2">  1       -2 0.28251265E-02 0.79222482E+02</pdfrwt>
<totfact> 0.14706223E+05</totfact>
</mgrwt>
</event>
<event>
 8    1  0.1319619E-024  0.7826648E+02  0.7818608E-02  0.1334044E+00
          1   -1    0    0  501    0  0.00000000000E+00  0.00000000000E+00  0.29243034360E+01  0.29243077792E+01  0.50400000000E-02 0. -1.
         -2   -1    0    0    0  501 -0.00000000000E+00 -0.00000000000E+00 -0.52368352118E+03  0.52368352119E+03  0.25500000000E-02 0.  1.
        -24    2    1    2    0    0 -0.35527136788E-14 -0.22204460493E-15 -0.52075921775E+03  0.52660782897E+03  0.78266484924E+02 0.  0.
         66    2    3    3    0    0  0.28256284008E+02 -0.14597979518E+01 -0.44219802474E+03  0.44310680618E+03  0.20000007781E+01 0.  0.
         13    1    3    3    0    0 -0.28256284008E+02  0.14597979518E+01 -0.78561193008E+02  0.83501022789E+02  0.10566000000E+00 0. -1.
         13    1    4    4    0    0  0.19683537915E+01 -0.24742667929E+00 -0.37962702151E+02  0.38014649219E+02  0.10566000000E+00 0. -1.
        -13    1    4    4    0    0  0.46038994329E+01 -0.49546444363E-01 -0.75708077364E+02  0.75848022301E+02  0.10566000000E+00 0.  1.
        -14    1    4    4    0    0  0.21684030784E+02 -0.11628248281E+01 -0.32852724522E+03  0.32924413466E+03  0.00000000000E+00 0.  1.
<mgrwt>
<rscale>  0 0.78266485E+02</rscale>
<asrwt>0</asrwt>
<pdfrwt beam="1">  1        1 0.44989359E-03 0.78266485E+02</pdfrwt>
<pdfrwt beam="2">  1       -2 0.80566621E-01 0.78266485E+02</pdfrwt>
<totfact> 0.51432594E+04</totfact>
</mgrwt>
</event>
<event>
 8    1  0.1319619E-024  0.7998255E+02  0.7818608E-02  0.1329101E+00
         -2   -1    0    0    0  501 -0.00000000000E+00  0.00000000000E+00  0.30151191085E+01  0.30151201868E+01  0.25500000000E-02 0.  1.
          1   -1    0    0  501    0  0.00000000000E+00 -0.00000000000E+00 -0.53042739169E+03  0.53042739171E+03  0.50400000000E-02 0. -1.
        -24    2    1    2    0    0 -0.71054273576E-14  0.00000000000E+00 -0.52741227258E+03  0.53344251190E+03  0.79982549555E+02 0.  0.
         66    2    3    3    0    0 -0.31242272017E+02  0.23721199982E+02 -0.31489200670E+03  0.31733224036E+03  0.20000003383E+01 0.  0.
         13    1    3    3    0    0  0.31242272017E+02 -0.23721199982E+02 -0.21252026588E+03  0.21611027153E+03  0.10566000000E+00 0. -1.
         13    1    4    4    0    0 -0.70363183074E+01  0.46931200244E+01 -0.65326029024E+02  0.65871362389E+02  0.10566000000E+00 0. -1.
        -13    1    4    4    0    0 -0.18647921142E+02  0.14937616203E+02 -0.18997239440E+03  0.19146905531E+03  0.10566000000E+00 0.  1.
        -14    1    4    4    0    0 -0.55580325678E+01  0.40904637554E+01 -0.59593583271E+02  0.59991822667E+02  0.00000000000E+00 0.  1.
<mgrwt>
<rscale>  0 0.79982550E+02</rscale>
<asrwt>0</asrwt>
<pdfrwt beam="1">  1        1 0.81604140E-01 0.79982550E+02</pdfrwt>
<pdfrwt beam="2">  1       -2 0.46386498E-03 0.79982550E+02</pdfrwt>
<totfact> 0.19747503E+05</totfact>
</mgrwt>
</event>
<event>
 8    1  0.1319619E-024  0.7928131E+02  0.7818608E-02  0.1331103E+00
         -2   -1    0    0    0  501 -0.00000000000E+00  0.00000000000E+00  0.71255101462E+01  0.71255106025E+01  0.25500000000E-02 0.  1.
          1   -1    0    0  501    0  0.00000000000E+00 -0.00000000000E+00 -0.22052895830E+03  0.22052895836E+03  0.50400000000E-02 0. -1.
        -24    2    1    2    0    0 -0.71054273576E-14  0.00000000000E+00 -0.21340344815E+03  0.22765446896E+03  0.79281306457E+02 0.  0.
         66    2    3    3    0    0  0.38117618078E+02  0.60455405815E+01 -0.81106225876E+02  0.89842758444E+02  0.20000000239E+01 0.  0.
         13    1    3    3    0    0 -0.38117618078E+02 -0.60455405815E+01 -0.13229722228E+03  0.13781171051E+03  0.10566000000E+00 0. -1.
         13    1    4    4    0    0  0.10334360197E+02  0.11004790547E+01 -0.21041141966E+02  0.23468082029E+02  0.10566000000E+00 0. -1.
        -13    1    4    4    0    0  0.21259541173E+02  0.34783202060E+01 -0.44869084378E+02  0.49772609930E+02  0.10566000000E+00 0.  1.
         14    1    4    4    0    0  0.65237167080E+01  0.14667413208E+01 -0.15195999532E+02  0.16602066485E+02  0.00000000000E+00 0. -1.
<mgrwt>
<rscale>  0 0.79281306E+02</rscale>
<asrwt>0</asrwt>
<pdfrwt beam="1">  1        1 0.33927527E-01 0.79281306E+02</pdfrwt>
<pdfrwt beam="2">  1       -2 0.10962325E-02 0.79281306E+02</pdfrwt>
<totfact> 0.17405314E+05</totfact>
</mgrwt>
</event>
<event>
 8    1  0.1319619E-024  0.7871766E+02  0.7818608E-02  0.1332730E+00
         -2   -1    0    0    0  501 -0.00000000000E+00  0.00000000000E+00  0.19872931745E+03  0.19872931747E+03  0.25500000000E-02 0.  1.
          1   -1    0    0  501    0  0.00000000000E+00 -0.00000000000E+00 -0.77951117816E+01  0.77951134109E+01  0.50400000000E-02 0. -1.
        -24    2    1    2    0    0  0.00000000000E+00  0.00000000000E+00  0.19093420567E+03  0.20652443088E+03  0.78717657835E+02 0.  0.
         66    2    3    3    0    0  0.83270748160E+01 -0.32449655699E+02  0.14960243467E+03  0.15332060782E+03  0.19999982821E+01 0.  0.
         13    1    3    3    0    0 -0.83270748160E+01  0.32449655699E+02  0.41331770998E+02  0.53203823057E+02  0.10566000000E+00 0. -1.
         13    1    4    4    0    0  0.20717896839E+01 -0.75658447898E+01  0.33168067484E+02  0.34083224386E+02  0.10566000000E+00 0. -1.
        -13    1    4    4    0    0  0.39560841811E+01 -0.14922337480E+02  0.66738158336E+02  0.68500508757E+02  0.10566000000E+00 0.  1.
        -14    1    4    4    0    0  0.22992009509E+01 -0.99614734292E+01  0.49696208851E+02  0.50736874678E+02  0.00000000000E+00 0.  1.
<mgrwt>
<rscale>  0 0.78717658E+02</rscale>
<asrwt>0</asrwt>
<pdfrwt beam="1">  1        1 0.11992482E-02 0.78717658E+02</pdfrwt>
<pdfrwt beam="2">  1       -2 0.30573739E-01 0.78717658E+02</pdfrwt>
<totfact> 0.88924348E+04</totfact>
</mgrwt>
</event>
<event>
 8    1  0.1319619E-024  0.7975173E+02  0.7818608E-02  0.1329757E+00
         -2   -1    0    0    0  501 -0.00000000000E+00  0.00000000000E+00  0.61168564381E+01  0.61168569696E+01  0.25500000000E-02 0.  1.
          1   -1    0    0  501    0  0.00000000000E+00 -0.00000000000E+00 -0.25995123553E+03  0.25995123558E+03  0.50400000000E-02 0. -1.
        -24    2    1    2    0    0  0.00000000000E+00  0.00000000000E+00 -0.25383437909E+03  0.26606809255E+03  0.79751726398E+02 0.  0.
         66    2    3    3    0    0 -0.20160753159E+02 -0.34269919317E+02 -0.11804718873E+03  0.12457938075E+03  0.20000003327E+01 0.  0.
         13    1    3    3    0    0  0.20160753159E+02  0.34269919317E+02 -0.13578719036E+03  0.14148871180E+03  0.10566000000E+00 0. -1.
         13    1    4    4    0    0 -0.33428186238E+01 -0.59262402113E+01 -0.18262959173E+02  0.19489525422E+02  0.10566000000E+00 0. -1.
        -13    1    4    4    0    0 -0.37193903594E+01 -0.55986573513E+01 -0.20269048655E+02  0.21354726086E+02  0.10566000000E+00 0.  1.
         14    1    4    4    0    0 -0.13098544176E+02 -0.22745021755E+02 -0.79515180905E+02  0.83735129238E+02  0.00000000000E+00 0. -1.
<mgrwt>
<rscale>  0 0.79751726E+02</rscale>
<asrwt>0</asrwt>
<pdfrwt beam="1">  1        1 0.39992489E-01 0.79751726E+02</pdfrwt>
<pdfrwt beam="2">  1       -2 0.94105508E-03 0.79751726E+02</pdfrwt>
<totfact> 0.17693025E+05</totfact>
</mgrwt>
</event>
<event>
 8    1  0.1319619E-024  0.7846573E+02  0.7818608E-02  0.1333463E+00
         -2   -1    0    0    0  501 -0.00000000000E+00  0.00000000000E+00  0.52930871296E+02  0.52930871358E+02  0.25500000000E-02 0.  1.
          1   -1    0    0  501    0  0.00000000000E+00 -0.00000000000E+00 -0.29079769397E+02  0.29079769834E+02  0.50400000000E-02 0. -1.
        -24    2    1    2    0    0  0.35527136788E-14  0.00000000000E+00  0.23851101899E+02  0.82010641191E+02  0.78465726319E+02 0.  0.
         66    2    3    3    0    0  0.29661894073E+02 -0.25637237502E+02  0.11576218889E+02  0.40928043614E+02  0.20000008858E+01 0.  0.
         13    1    3    3    0    0 -0.29661894073E+02  0.25637237502E+02  0.12274883011E+02  0.41082597577E+02  0.10566000000E+00 0. -1.
         13    1    4    4    0    0  0.11519295846E+01 -0.14731506921E+01  0.70347975115E+00  0.20007904752E+01  0.10566000000E+00 0. -1.
        -13    1    4    4    0    0  0.19360490372E+02 -0.16186333355E+02  0.75823882353E+01  0.26350137577E+02  0.10566000000E+00 0.  1.
         14    1    4    4    0    0  0.91494741166E+01 -0.79777534547E+01  0.32903509021E+01  0.12577115562E+02  0.00000000000E+00 0. -1.
<mgrwt>
<rscale>  0 0.78465726E+02</rscale>
<asrwt>0</asrwt>
<pdfrwt beam="1">  1        1 0.44738107E-02 0.78465726E+02</pdfrwt>
<pdfrwt beam="2">  1       -2 0.81432110E-02 0.78465726E+02</pdfrwt>
<totfact> 0.12716468E+05</totfact>
</mgrwt>
</event>
<event>
 8    1  0.1319619E-024  0.8092710E+02  0.7818608E-02  0.1326441E+00
         -2   -1    0    0    0  501 -0.00000000000E+00  0.00000000000E+00  0.16436988725E+02  0.16436988923E+02  0.25500000000E-02 0.  1.
          1   -1    0    0  501    0  0.00000000000E+00 -0.00000000000E+00 -0.99610644698E+02  0.99610644826E+02  0.50400000000E-02 0. -1.
        -24    2    1    2    0    0  0.00000000000E+00  0.00000000000E+00 -0.83173655973E+02  0.11604763375E+03  0.80927104550E+02 0.  0.
         66    2    3    3    0    0  0.26760803181E+02 -0.16724324045E+02 -0.53506583027E+01  0.32069816844E+02  0.20000016342E+01 0.  0.
         13    1    3    3    0    0 -0.26760803181E+02  0.16724324045E+02 -0.77822997671E+02  0.83977816905E+02  0.10566000000E+00 0. -1.
         13    1    4    4    0    0  0.13309773850E+02 -0.84790344530E+01 -0.33328619480E+01  0.16129576498E+02  0.10566000000E+00 0. -1.
        -13    1    4    4    0    0  0.13014666632E+01 -0.11469737358E+01 -0.12705890359E+00  0.17426050117E+01  0.10566000000E+00 0.  1.
        -14    1    4    4    0    0  0.12149562667E+02 -0.70983158557E+01 -0.18907374511E+01  0.14197635335E+02  0.00000000000E+00 0.  1.
<mgrwt>
<rscale>  0 0.80927105E+02</rscale>
<asrwt>0</asrwt>
<pdfrwt beam="1">  1        1 0.15324714E-01 0.80927105E+02</pdfrwt>
<pdfrwt beam="2">  1       -2 0.25287676E-02 0.80927105E+02</pdfrwt>
<totfact> 0.14238707E+05</totfact>
</mgrwt>
</event>
<event>
 8    1  0.1319619E-024  0.8085368E+02  0.7818608E-02  0.1326646E+00
         -2   -1    0    0    0  501 -0.00000000000E+00  0.00000000000E+00  0.55894970428E+01  0.55894976245E+01  0.25500000000E-02 0.  1.
          1   -1    0    0  501    0  0.00000000000E+00 -0.00000000000E+00 -0.29239288621E+03  0.29239288625E+03  0.50400000000E-02 0. -1.
        -24    2    1    2    0    0  0.00000000000E+00  0.71054273576E-14 -0.28680338916E+03  0.29798238387E+03  0.80853676872E+02 0.  0.
         66    2    3    3    0    0 -0.93115069711E+01  0.37075195717E+02 -0.19168978214E+03  0.19547441489E+03  0.20000003385E+01 0.  0.
         13    1    3    3    0    0  0.93115069711E+01 -0.37075195717E+02 -0.95113607021E+02  0.10250796898E+03  0.10566000000E+00 0. -1.
         13    1    4    4    0    0 -0.40340795147E+01  0.13875870207E+02 -0.71281876456E+02  0.72731909412E+02  0.10566000000E+00 0. -1.
        -13    1    4    4    0    0 -0.20438389494E+01  0.73335566757E+01 -0.36207208380E+02  0.36999073419E+02  0.10566000000E+00 0.  1.
         14    1    4    4    0    0 -0.32335885070E+01  0.15865768835E+02 -0.84200697305E+02  0.85743432064E+02  0.00000000000E+00 0. -1.
<mgrwt>
<rscale>  0 0.80853677E+02</rscale>
<asrwt>0</asrwt>
<pdfrwt beam="1">  1        1 0.44983509E-01 0.80853677E+02</pdfrwt>
<pdfrwt beam="2">  1       -2 0.85992289E-03 0.80853677E+02</pdfrwt>
<totfact> 0.17457409E+05</totfact>
</mgrwt>
</event>
<event>
 8    1  0.1319619E-024  0.8094905E+02  0.7818608E-02  0.1326380E+00
         -2   -1    0    0    0  501 -0.00000000000E+00  0.00000000000E+00  0.61786532796E+03  0.61786532796E+03  0.25500000000E-02 0.  1.
          1   -1    0    0  501    0  0.00000000000E+00 -0.00000000000E+00 -0.26513636456E+01  0.26513684358E+01  0.50400000000E-02 0. -1.
        -24    2    1    2    0    0  0.17763568394E-14  0.00000000000E+00  0.61521396431E+03  0.62051669640E+03  0.80949049562E+02 0.  0.
         66    2    3    3    0    0  0.11053761660E+02  0.35158983059E+02  0.43556779644E+03  0.43712886547E+03  0.19999993427E+01 0.  0.
         13    1    3    3    0    0 -0.11053761660E+02 -0.35158983059E+02  0.17964616787E+03  0.18338783093E+03  0.10566000000E+00 0. -1.
         13    1    4    4    0    0  0.60018142189E+00  0.31649035864E+01  0.39712788564E+02  0.39843362961E+02  0.10566000000E+00 0. -1.
        -13    1    4    4    0    0  0.55852252658E+01  0.16818512470E+02  0.21593491243E+03  0.21666092096E+03  0.10566000000E+00 0.  1.
        -14    1    4    4    0    0  0.48683549727E+01  0.15175567002E+02  0.17992009544E+03  0.18062458154E+03  0.00000000000E+00 0.  1.
<mgrwt>
<rscale>  0 0.80949050E+02</rscale>
<asrwt>0</asrwt>
<pdfrwt beam="1">  1        1 0.40790210E-03 0.80949050E+02</pdfrwt>
<pdfrwt beam="2">  1       -2 0.95056290E-01 0.80949050E+02</pdfrwt>
<totfact> 0.41108543E+04</totfact>
</mgrwt>
</event>
<event>
 8    1  0.1319619E-024  0.8169403E+02  0.7818608E-02  0.1324312E+00
         -2   -1    0    0    0  501 -0.00000000000E+00  0.00000000000E+00  0.84436423278E+01  0.84436427128E+01  0.25500000000E-02 0.  1.
          1   -1    0    0  501    0  0.00000000000E+00 -0.00000000000E+00 -0.19760174789E+03  0.19760174796E+03  0.50400000000E-02 0. -1.
        -24    2    1    2    0    0  0.00000000000E+00  0.00000000000E+00 -0.18915810557E+03  0.20604539067E+03  0.81694027415E+02 0.  0.
         66    2    3    3    0    0 -0.22151041552E+02 -0.29860187641E+02 -0.52118362484E+02  0.64051722516E+02  0.20000003826E+01 0.  0.
         13    1    3    3    0    0  0.22151041552E+02  0.29860187641E+02 -0.13703974308E+03  0.14199366815E+03  0.10566000000E+00 0. -1.
         13    1    4    4    0    0 -0.94149699009E+01 -0.12685962892E+02 -0.20786432129E+02  0.26108662115E+02  0.10566000000E+00 0.  1.
        -13    1    4    4    0    0 -0.66719482402E+01 -0.91441183567E+01 -0.17363409751E+02  0.20727492758E+02  0.10566000000E+00 0.  1.
        -14    1    4    4    0    0 -0.60641234112E+01 -0.80301063920E+01 -0.13968520604E+02  0.17215567643E+02  0.00000000000E+00 0.  1.
<mgrwt>
<rscale>  0 0.81694027E+02</rscale>
<asrwt>0</asrwt>
<pdfrwt beam="1">  1        1 0.30400266E-01 0.81694027E+02</pdfrwt>
<pdfrwt beam="2">  1       -2 0.12990221E-02 0.81694027E+02</pdfrwt>
<totfact> 0.15733528E+05</totfact>
</mgrwt>
</event>
<event>
 8    1  0.1319619E-024  0.8150596E+02  0.7818608E-02  0.1324831E+00
         -2   -1    0    0    0  501 -0.00000000000E+00  0.00000000000E+00  0.84326468727E+01  0.84326472582E+01  0.25500000000E-02 0.  1.
          1   -1    0    0  501    0  0.00000000000E+00 -0.00000000000E+00 -0.19694944970E+03  0.19694944977E+03  0.50400000000E-02 0. -1.
        -24    2    1    2    0    0 -0.71054273576E-14 -0.88817841970E-15 -0.18851680283E+03  0.20538209703E+03  0.81505955790E+02 0.  0.
         66    2    3    3    0    0  0.37157641335E+02  0.31998851145E+01 -0.53073369000E+02  0.64897704632E+02  0.19999988140E+01 0.  0.
         13    1    3    3    0    0 -0.37157641335E+02 -0.31998851145E+01 -0.13544343383E+03  0.14048439239E+03  0.10566000000E+00 0. -1.
         13    1    4    4    0    0  0.67635372643E+01  0.77735853901E+00 -0.95042429609E+01  0.11691514911E+02  0.10566000000E+00 0. -1.
        -13    1    4    4    0    0  0.30158196710E+02  0.24298908937E+01 -0.42895722744E+02  0.52492622266E+02  0.10566000000E+00 0.  1.
         14    1    4    4    0    0  0.23590735981E+00 -0.73643183011E-02 -0.67340329450E+00  0.71356745486E+00  0.00000000000E+00 0. -1.
<mgrwt>
<rscale>  0 0.81505956E+02</rscale>
<asrwt>0</asrwt>
<pdfrwt beam="1">  1        1 0.30299912E-01 0.81505956E+02</pdfrwt>
<pdfrwt beam="2">  1       -2 0.12973305E-02 0.81505956E+02</pdfrwt>
<totfact> 0.15820144E+05</totfact>
</mgrwt>
</event>
<event>
 8    1  0.1319619E-024  0.8040863E+02  0.7818608E-02  0.1327896E+00
         -2   -1    0    0    0  501 -0.00000000000E+00  0.00000000000E+00  0.91083326255E+01  0.91083329824E+01  0.25500000000E-02 0.  1.
          1   -1    0    0  501    0  0.00000000000E+00 -0.00000000000E+00 -0.17746243382E+03  0.17746243389E+03  0.50400000000E-02 0. -1.
        -24    2    1    2    0    0 -0.71054273576E-14  0.00000000000E+00 -0.16835410120E+03  0.18657076687E+03  0.80408629282E+02 0.  0.
         66    2    3    3    0    0 -0.35585943210E+02 -0.18557421007E+02 -0.79799280561E+02  0.89345746174E+02  0.19999881944E+01 0.  0.
         13    1    3    3    0    0  0.35585943210E+02  0.18557421007E+02 -0.88554820634E+02  0.97225020701E+02  0.10566000000E+00 0. -1.
         13    1    4    4    0    0 -0.11209588843E+02 -0.49762973180E+01 -0.24061677532E+02  0.27007293584E+02  0.10566000000E+00 0. -1.
        -13    1    4    4    0    0 -0.11725584082E+02 -0.60468301250E+01 -0.26291640090E+02  0.29416236661E+02  0.10566000000E+00 0.  1.
         14    1    4    4    0    0 -0.12650770285E+02 -0.75342935643E+01 -0.29445962939E+02  0.32922215929E+02  0.00000000000E+00 0. -1.
<mgrwt>
<rscale>  0 0.80408629E+02</rscale>
<asrwt>0</asrwt>
<pdfrwt beam="1">  1        1 0.27301911E-01 0.80408629E+02</pdfrwt>
<pdfrwt beam="2">  1       -2 0.14012821E-02 0.80408629E+02</pdfrwt>
<totfact> 0.16074512E+05</totfact>
</mgrwt>
</event>
<event>
 8    1  0.1319619E-024  0.8011689E+02  0.7818608E-02  0.1328720E+00
          1   -1    0    0  501    0  0.00000000000E+00  0.00000000000E+00  0.27322994860E+02  0.27322995325E+02  0.50400000000E-02 0. -1.
         -2   -1    0    0    0  501 -0.00000000000E+00 -0.00000000000E+00 -0.58729983400E+02  0.58729983455E+02  0.25500000000E-02 0.  1.
        -24    2    1    2    0    0  0.00000000000E+00  0.00000000000E+00 -0.31406988540E+02  0.86052978780E+02  0.80116891027E+02 0.  0.
         66    2    3    3    0    0  0.14819232982E+02  0.36788284907E+02 -0.98610218136E+01  0.40917323044E+02  0.20000003247E+01 0.  0.
         13    1    3    3    0    0 -0.14819232982E+02 -0.36788284907E+02 -0.21545966726E+02  0.45135655737E+02  0.10566000000E+00 0. -1.
         13    1    4    4    0    0  0.28431772409E+00  0.15110474960E+01 -0.26091602585E+00  0.15631194170E+01  0.10566000000E+00 0. -1.
        -13    1    4    4    0    0  0.63407643252E+01  0.14472661048E+02 -0.36904611147E+01  0.16226332836E+02  0.10566000000E+00 0.  1.
        -14    1    4    4    0    0  0.81941509330E+01  0.20804576363E+02 -0.59096446731E+01  0.23127870790E+02  0.00000000000E+00 0.  1.
<mgrwt>
<rscale>  0 0.80116891E+02</rscale>
<asrwt>0</asrwt>
<pdfrwt beam="1">  1        1 0.42035377E-02 0.80116891E+02</pdfrwt>
<pdfrwt beam="2">  1       -2 0.90353821E-02 0.80116891E+02</pdfrwt>
<totfact> 0.11842273E+05</totfact>
</mgrwt>
</event>
<event>
 8    1  0.1319619E-024  0.8586298E+02  0.7818608E-02  0.1313191E+00
         -2   -1    0    0    0  501 -0.00000000000E+00  0.00000000000E+00  0.72948992348E+02  0.72948992393E+02  0.25500000000E-02 0.  1.
          1   -1    0    0  501    0  0.00000000000E+00 -0.00000000000E+00 -0.25265772474E+02  0.25265772976E+02  0.50400000000E-02 0. -1.
        -24    2    1    2    0    0  0.00000000000E+00  0.00000000000E+00  0.47683219874E+02  0.98214765369E+02  0.85862976182E+02 0.  0.
         66    2    3    3    0    0 -0.23749216398E+02  0.32893900732E+01  0.64558095837E+02  0.68895523064E+02  0.19999983943E+01 0.  0.
         13    1    3    3    0    0  0.23749216398E+02 -0.32893900732E+01 -0.16874875963E+02  0.29319242305E+02  0.10566000000E+00 0. -1.
         13    1    4    4    0    0 -0.67304884055E+00  0.12901516237E+00  0.29131722021E+01  0.29945577251E+01  0.10566000000E+00 0. -1.
        -13    1    4    4    0    0 -0.34914631118E+01  0.37276597850E+00  0.97375056740E+01  0.10351784867E+02  0.10566000000E+00 0. -1.
        -14    1    4    4    0    0 -0.19584704445E+02  0.27876089323E+01  0.51907417961E+02  0.55549180472E+02  0.00000000000E+00 0.  1.
<mgrwt>
<rscale>  0 0.85862976E+02</rscale>
<asrwt>0</asrwt>
<pdfrwt beam="1">  1        1 0.38870421E-02 0.85862976E+02</pdfrwt>
<pdfrwt beam="2">  1       -2 0.11222922E-01 0.85862976E+02</pdfrwt>
<totfact> 0.95183125E+04</totfact>
</mgrwt>
</event>
<event>
 8    1  0.1319619E-024  0.7850583E+02  0.7818608E-02  0.1333346E+00
          1   -1    0    0  501    0  0.00000000000E+00  0.00000000000E+00  0.12880935612E+02  0.12880936598E+02  0.50400000000E-02 0. -1.
         -2   -1    0    0    0  501 -0.00000000000E+00 -0.00000000000E+00 -0.11961794863E+03  0.11961794865E+03  0.25500000000E-02 0.  1.
        -24    2    1    2    0    0  0.00000000000E+00  0.00000000000E+00 -0.10673701301E+03  0.13249888525E+03  0.78505825553E+02 0.  0.
         66    2    3    3    0    0  0.18242526044E+02  0.81677081273E+01 -0.11037046438E+03  0.11218351311E+03  0.19999984510E+01 0.  0.
         13    1    3    3    0    0 -0.18242526044E+02 -0.81677081273E+01  0.36334513632E+01  0.20315372144E+02  0.10566000000E+00 0. -1.
         13    1    4    4    0    0  0.10191396835E+02  0.45031503453E+01 -0.63397209257E+02  0.64368938457E+02  0.10566000000E+00 0. -1.
        -13    1    4    4    0    0  0.78254407504E+01  0.36230206805E+01 -0.44310331191E+02  0.45141781269E+02  0.10566000000E+00 0.  1.
         14    1    4    4    0    0  0.22568845894E+00  0.41537101562E-01 -0.26629239278E+01  0.26727933808E+01  0.00000000000E+00 0. -1.
<mgrwt>
<rscale>  0 0.78505826E+02</rscale>
<asrwt>0</asrwt>
<pdfrwt beam="1">  1        1 0.19816826E-02 0.78505826E+02</pdfrwt>
<pdfrwt beam="2">  1       -2 0.18402761E-01 0.78505826E+02</pdfrwt>
<totfact> 0.10625279E+05</totfact>
</mgrwt>
</event>
<event>
 8    1  0.1319619E-024  0.7524698E+02  0.7818608E-02  0.1343108E+00
          1   -1    0    0  501    0  0.00000000000E+00  0.00000000000E+00  0.60353556446E+01  0.60353577490E+01  0.50400000000E-02 0. -1.
         -2   -1    0    0    0  501 -0.00000000000E+00 -0.00000000000E+00 -0.23453905150E+03  0.23453905151E+03  0.25500000000E-02 0.  1.
        -24    2    1    2    0    0 -0.35527136788E-14  0.00000000000E+00 -0.22850369585E+03  0.24057440926E+03  0.75246975837E+02 0.  0.
         66    2    3    3    0    0  0.24884746952E+02 -0.25709742872E+02 -0.15124229891E+03  0.15542996652E+03  0.20000001949E+01 0.  0.
         13    1    3    3    0    0 -0.24884746952E+02  0.25709742872E+02 -0.77261396939E+02  0.85144442746E+02  0.10566000000E+00 0. -1.
         13    1    4    4    0    0  0.10052923096E+01 -0.16122969561E+01 -0.83810017805E+01  0.85943277214E+01  0.10566000000E+00 0. -1.
        -13    1    4    4    0    0  0.38139374226E+01 -0.35426594685E+01 -0.22069747563E+02  0.22675570033E+02  0.10566000000E+00 0.  1.
        -14    1    4    4    0    0  0.20065517220E+02 -0.20554786447E+02 -0.12079154957E+03  0.12416006876E+03  0.00000000000E+00 0.  1.
<mgrwt>
<rscale>  0 0.75246976E+02</rscale>
<asrwt>0</asrwt>
<pdfrwt beam="1">  1        1 0.92851660E-03 0.75246976E+02</pdfrwt>
<pdfrwt beam="2">  1       -2 0.36082924E-01 0.75246976E+02</pdfrwt>
<totfact> 0.93022548E+04</totfact>
</mgrwt>
</event>
<event>
 8    1  0.1319619E-024  0.7951863E+02  0.7818608E-02  0.1330423E+00
          1   -1    0    0  501    0  0.00000000000E+00  0.00000000000E+00  0.89334457982E+01  0.89334472199E+01  0.50400000000E-02 0. -1.
         -2   -1    0    0    0  501 -0.00000000000E+00 -0.00000000000E+00 -0.17695332595E+03  0.17695332597E+03  0.25500000000E-02 0.  1.
        -24    2    1    2    0    0  0.17763568394E-14  0.00000000000E+00 -0.16801988015E+03  0.18588677319E+03  0.79518628762E+02 0.  0.
         66    2    3    3    0    0  0.68692972461E+01  0.30872095342E+02 -0.27836503540E+02  0.42179905719E+02  0.20000004221E+01 0.  0.
         13    1    3    3    0    0 -0.68692972461E+01 -0.30872095342E+02 -0.14018337661E+03  0.14370686747E+03  0.10566000000E+00 0. -1.
         13    1    4    4    0    0  0.14019674227E+01  0.76821735692E+01 -0.67138519118E+01  0.10298945331E+02  0.10566000000E+00 0. -1.
        -13    1    4    4    0    0  0.13502444911E+01  0.90776228438E+01 -0.82442627564E+01  0.12337156444E+02  0.10566000000E+00 0.  1.
         14    1    4    4    0    0  0.41170853324E+01  0.14112298929E+02 -0.12878388872E+02  0.19543803945E+02  0.00000000000E+00 0. -1.
<mgrwt>
<rscale>  0 0.79518629E+02</rscale>
<asrwt>0</asrwt>
<pdfrwt beam="1">  1        1 0.13743765E-02 0.79518629E+02</pdfrwt>
<pdfrwt beam="2">  1       -2 0.27223586E-01 0.79518629E+02</pdfrwt>
<totfact> 0.90614786E+04</totfact>
</mgrwt>
</event>
<event>
 8    1  0.1319619E-024  0.8019437E+02  0.7818608E-02  0.1328501E+00
          1   -1    0    0  501    0  0.00000000000E+00  0.00000000000E+00  0.80574801423E+02  0.80574801580E+02  0.50400000000E-02 0. -1.
         -2   -1    0    0    0  501 -0.00000000000E+00 -0.00000000000E+00 -0.19953935398E+02  0.19953935561E+02  0.25500000000E-02 0.  1.
        -24    2    1    2    0    0  0.00000000000E+00  0.00000000000E+00  0.60620866025E+02  0.10052873714E+03  0.80194373827E+02 0.  0.
         66    2    3    3    0    0 -0.15711797494E+02 -0.36859120482E+02  0.31042881778E+02  0.50725889237E+02  0.19999966323E+01 0.  0.
         13    1    3    3    0    0  0.15711797494E+02  0.36859120482E+02  0.29577984247E+02  0.49802847904E+02  0.10566000000E+00 0. -1.
         13    1    4    4    0    0 -0.70021910425E+01 -0.15004490090E+02  0.12759968914E+02  0.20904386453E+02  0.10566000000E+00 0. -1.
        -13    1    4    4    0    0 -0.82514562522E+01 -0.20951372769E+02  0.17777053349E+02  0.28689394225E+02  0.10566000000E+00 0.  1.
         14    1    4    4    0    0 -0.45815019968E+00 -0.90325762326E+00  0.50585951501E+00  0.11321085586E+01  0.00000000000E+00 0. -1.
<mgrwt>
<rscale>  0 0.80194374E+02</rscale>
<asrwt>0</asrwt>
<pdfrwt beam="1">  1        1 0.12396123E-01 0.80194374E+02</pdfrwt>
<pdfrwt beam="2">  1       -2 0.30698362E-02 0.80194374E+02</pdfrwt>
<totfact> 0.14092312E+05</totfact>
</mgrwt>
</event>
<event>
 8    1  0.1319619E-024  0.7852572E+02  0.7818608E-02  0.1333288E+00
         -2   -1    0    0    0  501 -0.00000000000E+00  0.00000000000E+00  0.65863031984E+01  0.65863036920E+01  0.25500000000E-02 0.  1.
          1   -1    0    0  501    0  0.00000000000E+00 -0.00000000000E+00 -0.23405729401E+03  0.23405729407E+03  0.50400000000E-02 0. -1.
        -24    2    1    2    0    0 -0.71054273576E-14  0.00000000000E+00 -0.22747099081E+03  0.24064359776E+03  0.78525724959E+02 0.  0.
         66    2    3    3    0    0 -0.38530280974E+02 -0.73718854046E+01 -0.11626104337E+03  0.12271738854E+03  0.19999995185E+01 0.  0.
         13    1    3    3    0    0  0.38530280974E+02  0.73718854046E+01 -0.11120994744E+03  0.11792620922E+03  0.10566000000E+00 0. -1.
         13    1    4    4    0    0 -0.61814940453E+01 -0.10657668629E+01 -0.17781961712E+02  0.18856194048E+02  0.10566000000E+00 0. -1.
        -13    1    4    4    0    0 -0.21799775605E+02 -0.37029965147E+01 -0.64205431086E+02  0.67906486763E+02  0.10566000000E+00 0.  1.
         14    1    4    4    0    0 -0.10549011323E+02 -0.26031220270E+01 -0.34273650577E+02  0.35954707731E+02  0.00000000000E+00 0. -1.
<mgrwt>
<rscale>  0 0.78525725E+02</rscale>
<asrwt>0</asrwt>
<pdfrwt beam="1">  1        1 0.36008808E-01 0.78525725E+02</pdfrwt>
<pdfrwt beam="2">  1       -2 0.10132776E-02 0.78525725E+02</pdfrwt>
<totfact> 0.18059761E+05</totfact>
</mgrwt>
</event>
<event>
 8    1  0.1319619E-024  0.7311886E+02  0.7818608E-02  0.1349797E+00
         -2   -1    0    0    0  501 -0.00000000000E+00  0.00000000000E+00  0.92103687770E+01  0.92103691300E+01  0.25500000000E-02 0.  1.
          1   -1    0    0  501    0  0.00000000000E+00 -0.00000000000E+00 -0.14511816240E+03  0.14511816248E+03  0.50400000000E-02 0. -1.
        -24    2    1    2    0    0  0.00000000000E+00  0.00000000000E+00 -0.13590779362E+03  0.15432853161E+03  0.73118857374E+02 0.  0.
         66    2    3    3    0    0 -0.61347379498E+01 -0.35919848959E+02 -0.73474580426E+02  0.82038920793E+02  0.19999992910E+01 0.  0.
         13    1    3    3    0    0  0.61347379498E+01  0.35919848959E+02 -0.62433213193E+02  0.72289610820E+02  0.10566000000E+00 0. -1.
         13    1    4    4    0    0 -0.93781315462E+00 -0.43709897538E+01 -0.80065291978E+01  0.91706444032E+01  0.10566000000E+00 0. -1.
        -13    1    4    4    0    0 -0.52433908862E+01 -0.30960829798E+02 -0.64406456806E+02  0.71653813382E+02  0.10566000000E+00 0.  1.
        -14    1    4    4    0    0  0.46466091099E-01 -0.58802940692E+00 -0.10615944225E+01  0.12144630085E+01  0.00000000000E+00 0.  1.
<mgrwt>
<rscale>  0 0.73118857E+02</rscale>
<asrwt>0</asrwt>
<pdfrwt beam="1">  1        1 0.22325870E-01 0.73118857E+02</pdfrwt>
<pdfrwt beam="2">  1       -2 0.14169800E-02 0.73118857E+02</pdfrwt>
<totfact> 0.19931181E+05</totfact>
</mgrwt>
</event>
<event>
 8    1  0.1319619E-024  0.7874344E+02  0.7818608E-02  0.1332656E+00
         -2   -1    0    0    0  501 -0.00000000000E+00  0.00000000000E+00  0.20428410009E+02  0.20428410168E+02  0.25500000000E-02 0.  1.
          1   -1    0    0  501    0  0.00000000000E+00 -0.00000000000E+00 -0.75881202215E+02  0.75881202382E+02  0.50400000000E-02 0. -1.
        -24    2    1    2    0    0  0.00000000000E+00  0.00000000000E+00 -0.55452792206E+02  0.96309612550E+02  0.78743439766E+02 0.  0.
         66    2    3    3    0    0  0.65307735203E+01 -0.38799460676E+02 -0.27402133972E+02  0.47988812237E+02  0.20000005464E+01 0.  0.
         13    1    3    3    0    0 -0.65307735203E+01  0.38799460676E+02 -0.28050658234E+02  0.48320800313E+02  0.10566000000E+00 0. -1.
         13    1    4    4    0    0  0.34102996021E+01 -0.23078432041E+02 -0.15496145337E+02  0.28006889388E+02  0.10566000000E+00 0. -1.
        -13    1    4    4    0    0  0.24630677472E+01 -0.12087166824E+02 -0.87492187341E+01  0.15123699846E+02  0.10566000000E+00 0.  1.
         14    1    4    4    0    0  0.65740617099E+00 -0.36338618113E+01 -0.31567699010E+01  0.48582230028E+01  0.00000000000E+00 0. -1.
<mgrwt>
<rscale>  0 0.78743440E+02</rscale>
<asrwt>0</asrwt>
<pdfrwt beam="1">  1        1 0.11674031E-01 0.78743440E+02</pdfrwt>
<pdfrwt beam="2">  1       -2 0.31428324E-02 0.78743440E+02</pdfrwt>
<totfact> 0.14669383E+05</totfact>
</mgrwt>
</event>
<event>
 8    1  0.1319619E-024  0.8047305E+02  0.7818608E-02  0.1327714E+00
         -2   -1    0    0    0  501 -0.00000000000E+00  0.00000000000E+00  0.23595945918E+02  0.23595946056E+02  0.25500000000E-02 0.  1.
          1   -1    0    0  501    0  0.00000000000E+00 -0.00000000000E+00 -0.68612538622E+02  0.68612538807E+02  0.50400000000E-02 0. -1.
        -24    2    1    2    0    0  0.35527136788E-14  0.00000000000E+00 -0.45016592704E+02  0.92208484863E+02  0.80473045562E+02 0.  0.
         66    2    3    3    0    0  0.21887393178E+02 -0.33679725614E+02 -0.20350849054E+02  0.45072596504E+02  0.20000002048E+01 0.  0.
         13    1    3    3    0    0 -0.21887393178E+02  0.33679725614E+02 -0.24665743650E+02  0.47135888359E+02  0.10566000000E+00 0. -1.
         13    1    4    4    0    0  0.16831295121E+01 -0.24497797038E+01 -0.16457652453E+01  0.33991253037E+01  0.10566000000E+00 0. -1.
        -13    1    4    4    0    0  0.14286508622E+02 -0.22514192582E+02 -0.12526988746E+02  0.29460648454E+02  0.10566000000E+00 0.  1.
        -14    1    4    4    0    0  0.59177550437E+01 -0.87157533275E+01 -0.61780950623E+01  0.12212822746E+02  0.00000000000E+00 0.  1.
<mgrwt>
<rscale>  0 0.80473046E+02</rscale>
<asrwt>0</asrwt>
<pdfrwt beam="1">  1        1 0.10555775E-01 0.80473046E+02</pdfrwt>
<pdfrwt beam="2">  1       -2 0.36301456E-02 0.80473046E+02</pdfrwt>
<totfact> 0.13605111E+05</totfact>
</mgrwt>
</event>
<event>
 8    1  0.1319619E-024  0.7548625E+02  0.7818608E-02  0.1342372E+00
         -2   -1    0    0    0  501 -0.00000000000E+00  0.00000000000E+00  0.61661286692E+01  0.61661291964E+01  0.25500000000E-02 0.  1.
          1   -1    0    0  501    0  0.00000000000E+00 -0.00000000000E+00 -0.23102717905E+03  0.23102717911E+03  0.50400000000E-02 0. -1.
        -24    2    1    2    0    0  0.35527136788E-14 -0.35527136788E-14 -0.22486105038E+03  0.23719330830E+03  0.75486247255E+02 0.  0.
         66    2    3    3    0    0  0.29664114121E+02 -0.17951648263E+02 -0.65869205586E+02  0.74464579377E+02  0.19999988524E+01 0.  0.
         13    1    3    3    0    0 -0.29664114121E+02  0.17951648263E+02 -0.15899184480E+03  0.16272872893E+03  0.10566000000E+00 0. -1.
         13    1    4    4    0    0  0.16873851141E+02 -0.96418290754E+01 -0.38576788868E+02  0.43195735017E+02  0.10566000000E+00 0. -1.
        -13    1    4    4    0    0  0.99820146624E+01 -0.65778559593E+01 -0.21732432028E+02  0.24803599973E+02  0.10566000000E+00 0.  1.
         14    1    4    4    0    0  0.28082483174E+01 -0.17319632281E+01 -0.55599846895E+01  0.64652443870E+01  0.00000000000E+00 0. -1.
<mgrwt>
<rscale>  0 0.75486247E+02</rscale>
<asrwt>0</asrwt>
<pdfrwt beam="1">  1        1 0.35542636E-01 0.75486247E+02</pdfrwt>
<pdfrwt beam="2">  1       -2 0.94863540E-03 0.75486247E+02</pdfrwt>
<totfact> 0.19990226E+05</totfact>
</mgrwt>
</event>
<event>
 8    1  0.1319619E-024  0.8231124E+02  0.7818608E-02  0.1322618E+00
         -2   -1    0    0    0  501 -0.00000000000E+00  0.00000000000E+00  0.50958493685E+02  0.50958493749E+02  0.25500000000E-02 0.  1.
          1   -1    0    0  501    0  0.00000000000E+00 -0.00000000000E+00 -0.33238524384E+02  0.33238524766E+02  0.50400000000E-02 0. -1.
        -24    2    1    2    0    0 -0.35527136788E-14  0.35527136788E-14  0.17719969301E+02  0.84197018515E+02  0.82311242335E+02 0.  0.
         66    2    3    3    0    0 -0.17954798650E+02  0.29058634844E+02  0.32303045225E+02  0.47055985667E+02  0.20000006745E+01 0.  0.
         13    1    3    3    0    0  0.17954798650E+02 -0.29058634844E+02 -0.14583075924E+02  0.37141032848E+02  0.10566000000E+00 0. -1.
         13    1    4    4    0    0 -0.10590493581E+01  0.19352134820E+01  0.22526177495E+01  0.31546929366E+01  0.10566000000E+00 0. -1.
        -13    1    4    4    0    0 -0.85230682925E+01  0.14538709573E+02  0.14800229489E+02  0.22429327367E+02  0.10566000000E+00 0.  1.
        -14    1    4    4    0    0 -0.83726809995E+01  0.12584711789E+02  0.15250197987E+02  0.21471965363E+02  0.00000000000E+00 0.  1.
<mgrwt>
<rscale>  0 0.82311242E+02</rscale>
<asrwt>0</asrwt>
<pdfrwt beam="1">  1        1 0.51136192E-02 0.82311242E+02</pdfrwt>
<pdfrwt beam="2">  1       -2 0.78397682E-02 0.82311242E+02</pdfrwt>
<totfact> 0.11348799E+05</totfact>
</mgrwt>
</event>
<event>
 8    1  0.1319619E-024  0.7963028E+02  0.7818608E-02  0.1330104E+00
          1   -1    0    0  501    0  0.00000000000E+00  0.00000000000E+00  0.12519183315E+03  0.12519183326E+03  0.50400000000E-02 0. -1.
         -2   -1    0    0    0  501 -0.00000000000E+00 -0.00000000000E+00 -0.12662529726E+02  0.12662529983E+02  0.25500000000E-02 0.  1.
        -24    2    1    2    0    0 -0.35527136788E-14 -0.35527136788E-14  0.11252930343E+03  0.13785436324E+03  0.79630279002E+02 0.  0.
         66    2    3    3    0    0  0.26682001231E+02  0.24029362947E+02  0.26621491269E+02  0.44744198233E+02  0.20000012010E+01 0.  0.
         13    1    3    3    0    0 -0.26682001231E+02 -0.24029362947E+02  0.85907812159E+02  0.93110165005E+02  0.10566000000E+00 0. -1.
         13    1    4    4    0    0  0.37992397687E+00  0.43957637099E+00  0.22636933949E+00  0.63243713332E+00  0.10566000000E+00 0. -1.
        -13    1    4    4    0    0  0.23501925576E+02  0.21370114290E+02  0.23941539087E+02  0.39777264215E+02  0.10566000000E+00 0.  1.
        -14    1    4    4    0    0  0.28001516787E+01  0.22196722861E+01  0.24535828428E+01  0.43344968852E+01  0.00000000000E+00 0.  1.
<mgrwt>
<rscale>  0 0.79630279E+02</rscale>
<asrwt>0</asrwt>
<pdfrwt beam="1">  1        1 0.19260283E-01 0.79630279E+02</pdfrwt>
<pdfrwt beam="2">  1       -2 0.19480815E-02 0.79630279E+02</pdfrwt>
<totfact> 0.15471279E+05</totfact>
</mgrwt>
</event>
<event>
 8    1  0.1319619E-024  0.8156631E+02  0.7818608E-02  0.1324664E+00
         -2   -1    0    0    0  501 -0.00000000000E+00  0.00000000000E+00  0.70635488945E+02  0.70635488991E+02  0.25500000000E-02 0.  1.
          1   -1    0    0  501    0  0.00000000000E+00 -0.00000000000E+00 -0.23547164922E+02  0.23547165462E+02  0.50400000000E-02 0. -1.
        -24    2    1    2    0    0  0.00000000000E+00  0.00000000000E+00  0.47088324023E+02  0.94182654453E+02  0.81566305179E+02 0.  0.
         66    2    3    3    0    0 -0.19358941166E+02  0.29457397819E+02  0.47186957025E+02  0.58933146912E+02  0.20000005969E+01 0.  0.
         13    1    3    3    0    0  0.19358941166E+02 -0.29457397819E+02 -0.98633001993E-01  0.35249507540E+02  0.10566000000E+00 0. -1.
         13    1    4    4    0    0 -0.27405833598E+01  0.35965655849E+01  0.55373345662E+01  0.71497775694E+01  0.10566000000E+00 0. -1.
        -13    1    4    4    0    0 -0.15332338019E+02  0.23213465912E+02  0.37325728912E+02  0.46552838707E+02  0.10566000000E+00 0.  1.
         14    1    4    4    0    0 -0.12860197869E+01  0.26473663218E+01  0.43238935462E+01  0.52305306359E+01  0.00000000000E+00 0. -1.
<mgrwt>
<rscale>  0 0.81566305E+02</rscale>
<asrwt>0</asrwt>
<pdfrwt beam="1">  1        1 0.36226408E-02 0.81566305E+02</pdfrwt>
<pdfrwt beam="2">  1       -2 0.10866998E-01 0.81566305E+02</pdfrwt>
<totfact> 0.10918748E+05</totfact>
</mgrwt>
</event>
<event>
 8    1  0.1319619E-024  0.7849291E+02  0.7818608E-02  0.1333384E+00
          1   -1    0    0  501    0  0.00000000000E+00  0.00000000000E+00  0.24465576927E+02  0.24465577446E+02  0.50400000000E-02 0. -1.
         -2   -1    0    0    0  501 -0.00000000000E+00 -0.00000000000E+00 -0.62957191974E+02  0.62957192026E+02  0.25500000000E-02 0.  1.
        -24    2    1    2    0    0  0.00000000000E+00  0.00000000000E+00 -0.38491615047E+02  0.87422769472E+02  0.78492905368E+02 0.  0.
         66    2    3    3    0    0  0.37192082876E+02 -0.14891009349E+01 -0.33026271606E+02  0.49801637202E+02  0.20000003759E+01 0.  0.
         13    1    3    3    0    0 -0.37192082876E+02  0.14891009349E+01 -0.54653434410E+01  0.37621132270E+02  0.10566000000E+00 0. -1.
         13    1    4    4    0    0  0.55082848680E+01 -0.30223188025E+00 -0.41301549329E+01  0.68921614971E+01  0.10566000000E+00 0. -1.
        -13    1    4    4    0    0  0.23158274957E+02 -0.53680541348E+00 -0.20725497501E+02  0.31082973952E+02  0.10566000000E+00 0.  1.
        -14    1    4    4    0    0  0.85255230518E+01 -0.65006364114E+00 -0.81706191726E+01  0.11826501753E+02  0.00000000000E+00 0.  1.
<mgrwt>
<rscale>  0 0.78492905E+02</rscale>
<asrwt>0</asrwt>
<pdfrwt beam="1">  1        1 0.37639350E-02 0.78492905E+02</pdfrwt>
<pdfrwt beam="2">  1       -2 0.96857218E-02 0.78492905E+02</pdfrwt>
<totfact> 0.12310877E+05</totfact>
</mgrwt>
</event>
<event>
 8    1  0.1319619E-024  0.8028976E+02  0.7818608E-02  0.1328231E+00
         -2   -1    0    0    0  501 -0.00000000000E+00  0.00000000000E+00  0.22458409330E+02  0.22458409475E+02  0.25500000000E-02 0.  1.
          1   -1    0    0  501    0  0.00000000000E+00 -0.00000000000E+00 -0.71759821886E+02  0.71759822063E+02  0.50400000000E-02 0. -1.
        -24    2    1    2    0    0  0.71054273576E-14  0.00000000000E+00 -0.49301412556E+02  0.94218231538E+02  0.80289761951E+02 0.  0.
         66    2    3    3    0    0  0.38655625172E+02  0.42465450384E+01 -0.13089735532E+02  0.41080794461E+02  0.19999987574E+01 0.  0.
         13    1    3    3    0    0 -0.38655625172E+02 -0.42465450384E+01 -0.36211677024E+02  0.53137437077E+02  0.10566000000E+00 0. -1.
         13    1    4    4    0    0  0.21382660930E+02  0.22279104149E+01 -0.73691126688E+01  0.22726565047E+02  0.10566000000E+00 0.  1.
        -13    1    4    4    0    0  0.12863969759E+01  0.38802321709E+00 -0.19824611520E+00  0.13622939310E+01  0.10566000000E+00 0.  1.
        -14    1    4    4    0    0  0.15986567266E+02  0.16306114065E+01 -0.55223767479E+01  0.16991935483E+02  0.00000000000E+00 0.  1.
<mgrwt>
<rscale>  0 0.80289762E+02</rscale>
<asrwt>0</asrwt>
<pdfrwt beam="1">  1        1 0.11039973E-01 0.80289762E+02</pdfrwt>
<pdfrwt beam="2">  1       -2 0.34551399E-02 0.80289762E+02</pdfrwt>
<totfact> 0.13788246E+05</totfact>
</mgrwt>
</event>
<event>
 8    1  0.1319619E-024  0.8005826E+02  0.7818608E-02  0.1328886E+00
          1   -1    0    0  501    0  0.00000000000E+00  0.00000000000E+00  0.51720623471E+02  0.51720623716E+02  0.50400000000E-02 0. -1.
         -2   -1    0    0    0  501 -0.00000000000E+00 -0.00000000000E+00 -0.30980509513E+02  0.30980509618E+02  0.25500000000E-02 0.  1.
        -24    2    1    2    0    0  0.00000000000E+00  0.17763568394E-14  0.20740113958E+02  0.82701133334E+02  0.80058260834E+02 0.  0.
         66    2    3    3    0    0 -0.36619324752E+02 -0.15660574392E+02  0.64978591641E+01  0.40403597694E+02  0.19999993372E+01 0.  0.
         13    1    3    3    0    0  0.36619324752E+02  0.15660574392E+02  0.14242254794E+02  0.42297535640E+02  0.10566000000E+00 0. -1.
         13    1    4    4    0    0 -0.59328352432E+01 -0.22754082760E+01  0.42157553540E+00  0.63690585499E+01  0.10566000000E+00 0. -1.
        -13    1    4    4    0    0 -0.23046296436E+02 -0.10219167958E+02  0.48736838564E+01  0.25677366133E+02  0.10566000000E+00 0.  1.
        -14    1    4    4    0    0 -0.76401930726E+01 -0.31659981579E+01  0.12025997724E+01  0.83571730110E+01  0.00000000000E+00 0.  1.
<mgrwt>
<rscale>  0 0.80058261E+02</rscale>
<asrwt>0</asrwt>
<pdfrwt beam="1">  1        1 0.79570190E-02 0.80058261E+02</pdfrwt>
<pdfrwt beam="2">  1       -2 0.47662323E-02 0.80058261E+02</pdfrwt>
<totfact> 0.13200513E+05</totfact>
</mgrwt>
</event>
<event>
 8    1  0.1319619E-024  0.8066134E+02  0.7818608E-02  0.1327185E+00
          1   -1    0    0  501    0  0.00000000000E+00  0.00000000000E+00  0.11443678880E+03  0.11443678892E+03  0.50400000000E-02 0. -1.
         -2   -1    0    0    0  501 -0.00000000000E+00 -0.00000000000E+00 -0.14213635872E+02  0.14213636101E+02  0.25500000000E-02 0.  1.
        -24    2    1    2    0    0  0.71054273576E-14 -0.71054273576E-14  0.10022315293E+03  0.12865042502E+03  0.80661338155E+02 0.  0.
         66    2    3    3    0    0  0.31063471336E+02 -0.25563067488E+02  0.46187533596E+02  0.61283749338E+02  0.20000005947E+01 0.  0.
         13    1    3    3    0    0 -0.31063471336E+02  0.25563067488E+02  0.54035619336E+02  0.67366675678E+02  0.10566000000E+00 0. -1.
         13    1    4    4    0    0  0.10071608394E+02 -0.92854721323E+01  0.14999356210E+02  0.20313767231E+02  0.10566000000E+00 0. -1.
        -13    1    4    4    0    0  0.19978320711E+02 -0.15368734468E+02  0.29627779170E+02  0.38899199994E+02  0.10566000000E+00 0.  1.
         14    1    4    4    0    0  0.10135422310E+01 -0.90886088748E+00  0.15603982158E+01  0.20707821128E+01  0.00000000000E+00 0. -1.
<mgrwt>
<rscale>  0 0.80661338E+02</rscale>
<asrwt>0</asrwt>
<pdfrwt beam="1">  1        1 0.17605660E-01 0.80661338E+02</pdfrwt>
<pdfrwt beam="2">  1       -2 0.21867132E-02 0.80661338E+02</pdfrwt>
<totfact> 0.14711639E+05</totfact>
</mgrwt>
</event>
<event>
 8    1  0.1319619E-024  0.7962487E+02  0.7818608E-02  0.1330119E+00
          1   -1    0    0  501    0  0.00000000000E+00  0.00000000000E+00  0.30290180894E+02  0.30290181314E+02  0.50400000000E-02 0. -1.
         -2   -1    0    0    0  501 -0.00000000000E+00 -0.00000000000E+00 -0.52328183379E+02  0.52328183441E+02  0.25500000000E-02 0.  1.
        -24    2    1    2    0    0  0.00000000000E+00 -0.35527136788E-14 -0.22038002484E+02  0.82618364755E+02  0.79624874513E+02 0.  0.
         66    2    3    3    0    0 -0.14519303995E+02 -0.26014038741E+02 -0.38389434511E+02  0.48634237674E+02  0.19999979880E+01 0.  0.
         13    1    3    3    0    0  0.14519303995E+02  0.26014038741E+02  0.16351432026E+02  0.33984127081E+02  0.10566000000E+00 0. -1.
         13    1    4    4    0    0 -0.16457775540E+01 -0.28241043763E+01 -0.42007298528E+01  0.53236683421E+01  0.10566000000E+00 0.  1.
        -13    1    4    4    0    0 -0.11531969112E+02 -0.21576457563E+02 -0.30954966263E+02  0.39455683152E+02  0.10566000000E+00 0.  1.
        -14    1    4    4    0    0 -0.13415573290E+01 -0.16134768018E+01 -0.32337383944E+01  0.38548861800E+01  0.00000000000E+00 0.  1.
<mgrwt>
<rscale>  0 0.79624875E+02</rscale>
<asrwt>0</asrwt>
<pdfrwt beam="1">  1        1 0.46600279E-02 0.79624875E+02</pdfrwt>
<pdfrwt beam="2">  1       -2 0.80504898E-02 0.79624875E+02</pdfrwt>
<totfact> 0.12279974E+05</totfact>
</mgrwt>
</event>
<event>
 8    1  0.1319619E-024  0.8124567E+02  0.7818608E-02  0.1325553E+00
          1   -1    0    0  501    0  0.00000000000E+00  0.00000000000E+00  0.21289854290E+01  0.21289913947E+01  0.50400000000E-02 0. -1.
         -2   -1    0    0    0  501 -0.00000000000E+00 -0.00000000000E+00 -0.77511678575E+03  0.77511678575E+03  0.25500000000E-02 0.  1.
        -24    2    1    2    0    0  0.88817841970E-15 -0.35527136788E-14 -0.77298780032E+03  0.77724577714E+03  0.81245668504E+02 0.  0.
         66    2    3    3    0    0 -0.63037425265E+01 -0.16835250763E+02 -0.73496353917E+03  0.73518607627E+03  0.19999973974E+01 0.  0.
         13    1    3    3    0    0  0.63037425265E+01  0.16835250763E+02 -0.38024261142E+02  0.42059700873E+02  0.10566000000E+00 0. -1.
         13    1    4    4    0    0 -0.17340155446E+01 -0.48029923228E+01 -0.17969553861E+03  0.17976810981E+03  0.10566000000E+00 0. -1.
        -13    1    4    4    0    0 -0.63961005422E+00 -0.27126761840E+01 -0.11551602396E+03  0.11554968917E+03  0.10566000000E+00 0.  1.
         14    1    4    4    0    0 -0.39301169277E+01 -0.93195822559E+01 -0.43975197661E+03  0.43986827729E+03  0.00000000000E+00 0. -1.
<mgrwt>
<rscale>  0 0.81245669E+02</rscale>
<asrwt>0</asrwt>
<pdfrwt beam="1">  1        1 0.32753730E-03 0.81245669E+02</pdfrwt>
<pdfrwt beam="2">  1       -2 0.11924851E+00 0.81245669E+02</pdfrwt>
<totfact> 0.32962473E+04</totfact>
</mgrwt>
</event>
<event>
 8    1  0.1319619E-024  0.8160328E+02  0.7818608E-02  0.1324562E+00
          1   -1    0    0  501    0  0.00000000000E+00  0.00000000000E+00  0.70935109597E+02  0.70935109776E+02  0.50400000000E-02 0. -1.
         -2   -1    0    0    0  501 -0.00000000000E+00 -0.00000000000E+00 -0.23468966259E+02  0.23468966397E+02  0.25500000000E-02 0.  1.
        -24    2    1    2    0    0  0.00000000000E+00  0.00000000000E+00  0.47466143338E+02  0.94404076173E+02  0.81603277108E+02 0.  0.
         66    2    3    3    0    0  0.26358337081E+02 -0.14280423971E+02 -0.82307271333E+01  0.31151843115E+02  0.20000044642E+01 0.  0.
         13    1    3    3    0    0 -0.26358337081E+02  0.14280423971E+02  0.55696870472E+02  0.63252233058E+02  0.10566000000E+00 0. -1.
         13    1    4    4    0    0  0.15226236668E+01 -0.53231931015E+00 -0.15839911734E+00  0.16241924131E+01  0.10566000000E+00 0. -1.
        -13    1    4    4    0    0  0.16424498223E+02 -0.86561218350E+01 -0.50362420386E+01  0.19237138171E+02  0.10566000000E+00 0.  1.
         14    1    4    4    0    0  0.84112151916E+01 -0.50919828258E+01 -0.30360859774E+01  0.10290512531E+02  0.00000000000E+00 0. -1.
<mgrwt>
<rscale>  0 0.81603277E+02</rscale>
<asrwt>0</asrwt>
<pdfrwt beam="1">  1        1 0.10913094E-01 0.81603277E+02</pdfrwt>
<pdfrwt beam="2">  1       -2 0.36106102E-02 0.81603277E+02</pdfrwt>
<totfact> 0.13164097E+05</totfact>
</mgrwt>
</event>
<event>
 8    1  0.1319619E-024  0.7930748E+02  0.7818608E-02  0.1331028E+00
         -2   -1    0    0    0  501 -0.00000000000E+00  0.00000000000E+00  0.10485159568E+03  0.10485159571E+03  0.25500000000E-02 0.  1.
          1   -1    0    0  501    0  0.00000000000E+00 -0.00000000000E+00 -0.14996614330E+02  0.14996615177E+02  0.50400000000E-02 0. -1.
        -24    2    1    2    0    0  0.00000000000E+00  0.00000000000E+00  0.89854981349E+02  0.11984821089E+03  0.79307477451E+02 0.  0.
         66    2    3    3    0    0 -0.32342768482E+02 -0.11376985547E+02  0.74987270326E+02  0.82477761755E+02  0.20000000188E+01 0.  0.
         13    1    3    3    0    0  0.32342768482E+02  0.11376985547E+02  0.14867711024E+02  0.37370449132E+02  0.10566000000E+00 0. -1.
         13    1    4    4    0    0 -0.83623801840E+01 -0.35485822345E+01  0.18861881118E+02  0.20935700647E+02  0.10566000000E+00 0.  1.
        -13    1    4    4    0    0 -0.17825729717E+02 -0.54915532917E+01  0.42233784455E+02  0.46169443477E+02  0.10566000000E+00 0. -1.
        -14    1    4    4    0    0 -0.61546585806E+01 -0.23368500212E+01  0.13891604752E+02  0.15372617632E+02  0.00000000000E+00 0.  1.
<mgrwt>
<rscale>  0 0.79307477E+02</rscale>
<asrwt>0</asrwt>
<pdfrwt beam="1">  1        1 0.23071714E-02 0.79307477E+02</pdfrwt>
<pdfrwt beam="2">  1       -2 0.16131015E-01 0.79307477E+02</pdfrwt>
<totfact> 0.10722890E+05</totfact>
</mgrwt>
</event>
<event>
 8    1  0.1319619E-024  0.8038170E+02  0.7818608E-02  0.1327972E+00
          1   -1    0    0  501    0  0.00000000000E+00  0.00000000000E+00  0.64274788484E+02  0.64274788682E+02  0.50400000000E-02 0. -1.
         -2   -1    0    0    0  501 -0.00000000000E+00 -0.00000000000E+00 -0.25131225605E+02  0.25131225734E+02  0.25500000000E-02 0.  1.
        -24    2    1    2    0    0 -0.35527136788E-14 -0.71054273576E-14  0.39143562880E+02  0.89406014416E+02  0.80381695049E+02 0.  0.
         66    2    3    3    0    0  0.13511991741E+02  0.22093636361E+02 -0.14564704396E+02  0.29779746495E+02  0.19999996821E+01 0.  0.
         13    1    3    3    0    0 -0.13511991741E+02 -0.22093636361E+02  0.53708267275E+02  0.59626267921E+02  0.10566000000E+00 0. -1.
         13    1    4    4    0    0  0.15261123759E+01  0.35610492602E+01 -0.23075916792E+01  0.45106800164E+01  0.10566000000E+00 0. -1.
        -13    1    4    4    0    0  0.45711696334E+01  0.73608333217E+01 -0.42460065798E+01  0.96497251214E+01  0.10566000000E+00 0.  1.
         14    1    4    4    0    0  0.74147097315E+01  0.11171753779E+02 -0.80111061367E+01  0.15619341357E+02  0.00000000000E+00 0. -1.
<mgrwt>
<rscale>  0 0.80381695E+02</rscale>
<asrwt>0</asrwt>
<pdfrwt beam="1">  1        1 0.98884289E-02 0.80381695E+02</pdfrwt>
<pdfrwt beam="2">  1       -2 0.38663425E-02 0.80381695E+02</pdfrwt>
<totfact> 0.13507428E+05</totfact>
</mgrwt>
</event>
<event>
 8    1  0.1319619E-024  0.8067029E+02  0.7818608E-02  0.1327160E+00
          1   -1    0    0  501    0  0.00000000000E+00  0.00000000000E+00  0.58291323745E+02  0.58291323963E+02  0.50400000000E-02 0. -1.
         -2   -1    0    0    0  501 -0.00000000000E+00 -0.00000000000E+00 -0.27910223629E+02  0.27910223745E+02  0.25500000000E-02 0.  1.
        -24    2    1    2    0    0 -0.22204460493E-15  0.00000000000E+00  0.30381100116E+02  0.86201547708E+02  0.80670289345E+02 0.  0.
         66    2    3    3    0    0  0.17962467537E+01  0.30450507080E+02 -0.12959628058E+02  0.33202587657E+02  0.19999959644E+01 0.  0.
         13    1    3    3    0    0 -0.17962467537E+01 -0.30450507080E+02  0.43340728174E+02  0.52998960052E+02  0.10566000000E+00 0. -1.
         13    1    4    4    0    0  0.10964381522E+01  0.13394641139E+02 -0.53432465513E+01  0.14463057616E+02  0.10566000000E+00 0.  1.
        -13    1    4    4    0    0  0.10741791024E+01  0.13850598847E+02 -0.60602136379E+01  0.15156856618E+02  0.10566000000E+00 0. -1.
         14    1    4    4    0    0 -0.37437050094E+00  0.32052670938E+01 -0.15561678687E+01  0.35826734222E+01  0.00000000000E+00 0. -1.
<mgrwt>
<rscale>  0 0.80670289E+02</rscale>
<asrwt>0</asrwt>
<pdfrwt beam="1">  1        1 0.89678959E-02 0.80670289E+02</pdfrwt>
<pdfrwt beam="2">  1       -2 0.42938806E-02 0.80670289E+02</pdfrwt>
<totfact> 0.13170319E+05</totfact>
</mgrwt>
</event>
<event>
 8    1  0.1319619E-024  0.7930465E+02  0.7818608E-02  0.1331036E+00
          1   -1    0    0  501    0  0.00000000000E+00  0.00000000000E+00  0.12561630263E+02  0.12561631274E+02  0.50400000000E-02 0. -1.
         -2   -1    0    0    0  501 -0.00000000000E+00 -0.00000000000E+00 -0.12516741723E+03  0.12516741725E+03  0.25500000000E-02 0.  1.
        -24    2    1    2    0    0  0.00000000000E+00  0.35527136788E-14 -0.11260578696E+03  0.13772904853E+03  0.79304650244E+02 0.  0.
         66    2    3    3    0    0 -0.14476211226E+02 -0.27559131475E+02 -0.98922872723E+02  0.10372464109E+03  0.20000004472E+01 0.  0.
         13    1    3    3    0    0  0.14476211226E+02  0.27559131475E+02 -0.13682914239E+02  0.34004407438E+02  0.10566000000E+00 0. -1.
         13    1    4    4    0    0 -0.87711767904E+01 -0.16838764789E+02 -0.58558608740E+02  0.61559721925E+02  0.10566000000E+00 0. -1.
        -13    1    4    4    0    0 -0.49432336088E+01 -0.84078663671E+01 -0.32011031458E+02  0.33464086338E+02  0.10566000000E+00 0.  1.
        -14    1    4    4    0    0 -0.76180082630E+00 -0.23125003190E+01 -0.83532325247E+01  0.87008328242E+01  0.00000000000E+00 0.  1.
<mgrwt>
<rscale>  0 0.79304650E+02</rscale>
<asrwt>0</asrwt>
<pdfrwt beam="1">  1        1 0.19325587E-02 0.79304650E+02</pdfrwt>
<pdfrwt beam="2">  1       -2 0.19256525E-01 0.79304650E+02</pdfrwt>
<totfact> 0.10220301E+05</totfact>
</mgrwt>
</event>
<event>
 8    1  0.1319619E-024  0.8063662E+02  0.7818608E-02  0.1327254E+00
         -2   -1    0    0    0  501 -0.00000000000E+00  0.00000000000E+00  0.40181120945E+03  0.40181120946E+03  0.25500000000E-02 0.  1.
          1   -1    0    0  501    0  0.00000000000E+00 -0.00000000000E+00 -0.40455956242E+01  0.40455987636E+01  0.50400000000E-02 0. -1.
        -24    2    1    2    0    0 -0.17763568394E-14  0.71054273576E-14  0.39776561383E+03  0.40585680822E+03  0.80636624667E+02 0.  0.
         66    2    3    3    0    0  0.12032222413E+02 -0.34349457888E+02  0.28602192949E+03  0.28833522813E+03  0.20000001076E+01 0.  0.
         13    1    3    3    0    0 -0.12032222413E+02  0.34349457888E+02  0.11174368434E+03  0.11752158009E+03  0.10566000000E+00 0. -1.
         13    1    4    4    0    0  0.38395272861E+01 -0.12979075618E+02  0.10951499197E+03  0.11034828047E+03  0.10566000000E+00 0. -1.
        -13    1    4    4    0    0  0.79615516406E+01 -0.20553530293E+02  0.17105942358E+03  0.17247368342E+03  0.10566000000E+00 0.  1.
         14    1    4    4    0    0  0.23114348659E+00 -0.81685197659E+00  0.54475139431E+01  0.55132642439E+01  0.00000000000E+00 0. -1.
<mgrwt>
<rscale>  0 0.80636625E+02</rscale>
<asrwt>0</asrwt>
<pdfrwt beam="1">  1        1 0.62239927E-03 0.80636625E+02</pdfrwt>
<pdfrwt beam="2">  1       -2 0.61817139E-01 0.80636625E+02</pdfrwt>
<totfact> 0.57721708E+04</totfact>
</mgrwt>
</event>
<event>
 8    1  0.1319619E-024  0.8052821E+02  0.7818608E-02  0.1327559E+00
          1   -1    0    0  501    0  0.00000000000E+00  0.00000000000E+00  0.88787696688E+01  0.88787710993E+01  0.50400000000E-02 0. -1.
         -2   -1    0    0    0  501 -0.00000000000E+00 -0.00000000000E+00 -0.18259265757E+03  0.18259265759E+03  0.25500000000E-02 0.  1.
        -24    2    1    2    0    0 -0.35527136788E-14  0.00000000000E+00 -0.17371388790E+03  0.19147142869E+03  0.80528213402E+02 0.  0.
         66    2    3    3    0    0  0.26199775719E+02  0.67200356495E+01 -0.15774833507E+03  0.16006287622E+03  0.19999999607E+01 0.  0.
         13    1    3    3    0    0 -0.26199775719E+02 -0.67200356495E+01 -0.15965552834E+02  0.31408552469E+02  0.10566000000E+00 0. -1.
         13    1    4    4    0    0  0.81953596741E+01  0.25458208817E+01 -0.49600239807E+02  0.50337263306E+02  0.10566000000E+00 0. -1.
        -13    1    4    4    0    0  0.82255741954E+01  0.21758681745E+01 -0.45816976035E+02  0.46600439163E+02  0.10566000000E+00 0.  1.
         14    1    4    4    0    0  0.97788418500E+01  0.19983465933E+01 -0.62331119226E+02  0.63125173750E+02  0.00000000000E+00 0. -1.
<mgrwt>
<rscale>  0 0.80528213E+02</rscale>
<asrwt>0</asrwt>
<pdfrwt beam="1">  1        1 0.13659648E-02 0.80528213E+02</pdfrwt>
<pdfrwt beam="2">  1       -2 0.28091175E-01 0.80528213E+02</pdfrwt>
<totfact> 0.86688514E+04</totfact>
</mgrwt>
</event>
<event>
 8    1  0.1319619E-024  0.7706888E+02  0.7818608E-02  0.1337581E+00
         -2   -1    0    0    0  501 -0.00000000000E+00  0.00000000000E+00  0.86442571320E+01  0.86442575081E+01  0.25500000000E-02 0.  1.
          1   -1    0    0  501    0  0.00000000000E+00 -0.00000000000E+00 -0.17177915207E+03  0.17177915215E+03  0.50400000000E-02 0. -1.
        -24    2    1    2    0    0  0.71054273576E-14  0.00000000000E+00 -0.16313489494E+03  0.18042340966E+03  0.77068883502E+02 0.  0.
         66    2    3    3    0    0 -0.33662079113E+02 -0.68541383856E+01 -0.40886080330E+02  0.53439557843E+02  0.19999986265E+01 0.  0.
         13    1    3    3    0    0  0.33662079113E+02  0.68541383856E+01 -0.12224881461E+03  0.12698385181E+03  0.10566000000E+00 0. -1.
         13    1    4    4    0    0 -0.20545205714E+01 -0.59501147458E+00 -0.32353992271E+01  0.38799569105E+01  0.10566000000E+00 0. -1.
        -13    1    4    4    0    0 -0.59148352901E+01 -0.10232824805E+01 -0.67719041399E+01  0.90499852629E+01  0.10566000000E+00 0.  1.
         14    1    4    4    0    0 -0.25692723251E+02 -0.52358444305E+01 -0.30878776963E+02  0.40509615670E+02  0.00000000000E+00 0. -1.
<mgrwt>
<rscale>  0 0.77068884E+02</rscale>
<asrwt>0</asrwt>
<pdfrwt beam="1">  1        1 0.26427559E-01 0.77068884E+02</pdfrwt>
<pdfrwt beam="2">  1       -2 0.13298859E-02 0.77068884E+02</pdfrwt>
<totfact> 0.17882673E+05</totfact>
</mgrwt>
</event>
<event>
 8    1  0.1319619E-024  0.8458644E+02  0.7818608E-02  0.1316518E+00
         -2   -1    0    0    0  501 -0.00000000000E+00  0.00000000000E+00  0.15657360215E+02  0.15657360422E+02  0.25500000000E-02 0.  1.
          1   -1    0    0  501    0  0.00000000000E+00 -0.00000000000E+00 -0.11424126159E+03  0.11424126170E+03  0.50400000000E-02 0. -1.
        -24    2    1    2    0    0  0.17763568394E-14  0.00000000000E+00 -0.98583901376E+02  0.12989862212E+03  0.84586443472E+02 0.  0.
         66    2    3    3    0    0  0.13658946483E+02  0.37953484790E+02 -0.29913879665E+02  0.50258074207E+02  0.19999999060E+01 0.  0.
         13    1    3    3    0    0 -0.13658946483E+02 -0.37953484790E+02 -0.68670021711E+02  0.79640547917E+02  0.10566000000E+00 0. -1.
         13    1    4    4    0    0  0.23851631276E+01  0.81242133753E+01 -0.66257340068E+01  0.10751900357E+02  0.10566000000E+00 0. -1.
        -13    1    4    4    0    0  0.72348447509E+01  0.20482793957E+02 -0.16248563806E+02  0.27127749937E+02  0.10566000000E+00 0.  1.
         14    1    4    4    0    0  0.40389386048E+01  0.93464774581E+01 -0.70395818525E+01  0.12378423914E+02  0.00000000000E+00 0. -1.
<mgrwt>
<rscale>  0 0.84586443E+02</rscale>
<asrwt>0</asrwt>
<pdfrwt beam="1">  1        1 0.17575578E-01 0.84586443E+02</pdfrwt>
<pdfrwt beam="2">  1       -2 0.24088247E-02 0.84586443E+02</pdfrwt>
<totfact> 0.12934790E+05</totfact>
</mgrwt>
</event>
<event>
 8    1  0.1319619E-024  0.8014015E+02  0.7818608E-02  0.1328654E+00
          1   -1    0    0  501    0  0.00000000000E+00  0.00000000000E+00  0.43097539770E+03  0.43097539773E+03  0.50400000000E-02 0. -1.
         -2   -1    0    0    0  501 -0.00000000000E+00 -0.00000000000E+00 -0.37255274176E+01  0.37255282903E+01  0.25500000000E-02 0.  1.
        -24    2    1    2    0    0  0.17763568394E-14  0.00000000000E+00  0.42724987028E+03  0.43470092602E+03  0.80140148653E+02 0.  0.
         66    2    3    3    0    0 -0.12576948379E+02  0.36880658816E+02  0.26383832128E+03  0.26670774718E+03  0.20000012003E+01 0.  0.
         13    1    3    3    0    0  0.12576948379E+02 -0.36880658816E+02  0.16341154900E+03  0.16799317884E+03  0.10566000000E+00 0. -1.
         13    1    4    4    0    0 -0.44397812857E+01  0.11473987638E+02  0.79239395607E+02  0.80188883459E+02  0.10566000000E+00 0. -1.
        -13    1    4    4    0    0 -0.64878559353E+01  0.21302330679E+02  0.15335809088E+03  0.15496643755E+03  0.10566000000E+00 0.  1.
        -14    1    4    4    0    0 -0.16493111578E+01  0.41043404988E+01  0.31240834800E+02  0.31552426170E+02  0.00000000000E+00 0.  1.
<mgrwt>
<rscale>  0 0.80140149E+02</rscale>
<asrwt>0</asrwt>
<pdfrwt beam="1">  1        1 0.66303878E-01 0.80140149E+02</pdfrwt>
<pdfrwt beam="2">  1       -2 0.57315839E-03 0.80140149E+02</pdfrwt>
<totfact> 0.19129807E+05</totfact>
</mgrwt>
</event>
<event>
 8    1  0.1319619E-024  0.8038900E+02  0.7818608E-02  0.1327951E+00
         -2   -1    0    0    0  501 -0.00000000000E+00  0.00000000000E+00  0.55564741100E+02  0.55564741159E+02  0.25500000000E-02 0.  1.
          1   -1    0    0  501    0  0.00000000000E+00 -0.00000000000E+00 -0.29075954546E+02  0.29075954983E+02  0.50400000000E-02 0. -1.
        -24    2    1    2    0    0  0.00000000000E+00 -0.71054273576E-14  0.26488786554E+02  0.84640696142E+02  0.80389001924E+02 0.  0.
         66    2    3    3    0    0  0.21595915378E+02 -0.33171828206E+02  0.20458452860E+02  0.44601592305E+02  0.19999987883E+01 0.  0.
         13    1    3    3    0    0 -0.21595915378E+02  0.33171828206E+02  0.60303336936E+01  0.40039103837E+02  0.10566000000E+00 0. -1.
         13    1    4    4    0    0  0.46216589719E+01 -0.76906250954E+01  0.51739131281E+01  0.10357894917E+02  0.10566000000E+00 0. -1.
        -13    1    4    4    0    0  0.85094444213E+01 -0.11709407472E+02  0.69874372393E+01  0.16073466051E+02  0.10566000000E+00 0.  1.
        -14    1    4    4    0    0  0.84648119846E+01 -0.13771795639E+02  0.82971024927E+01  0.18170231337E+02  0.00000000000E+00 0.  1.
<mgrwt>
<rscale>  0 0.80389002E+02</rscale>
<asrwt>0</asrwt>
<pdfrwt beam="1">  1        1 0.44732239E-02 0.80389002E+02</pdfrwt>
<pdfrwt beam="2">  1       -2 0.85484216E-02 0.80389002E+02</pdfrwt>
<totfact> 0.11860568E+05</totfact>
</mgrwt>
</event>
<event>
 8    1  0.1319619E-024  0.7991486E+02  0.7818608E-02  0.1329293E+00
          1   -1    0    0  501    0  0.00000000000E+00  0.00000000000E+00  0.15965009378E+03  0.15965009386E+03  0.50400000000E-02 0. -1.
         -2   -1    0    0    0  501 -0.00000000000E+00 -0.00000000000E+00 -0.10000596747E+02  0.10000597072E+02  0.25500000000E-02 0.  1.
        -24    2    1    2    0    0  0.71054273576E-14  0.00000000000E+00  0.14964949704E+03  0.16965069093E+03  0.79914860769E+02 0.  0.
         66    2    3    3    0    0 -0.37344863983E+02 -0.12095797423E+02  0.59322962138E+02  0.71162918842E+02  0.20000000235E+01 0.  0.
         13    1    3    3    0    0  0.37344863983E+02  0.12095797423E+02  0.90326534897E+02  0.98487772092E+02  0.10566000000E+00 0. -1.
         13    1    4    4    0    0 -0.12018073743E+02 -0.46499754833E+01  0.19273941203E+02  0.23185175048E+02  0.10566000000E+00 0. -1.
        -13    1    4    4    0    0 -0.99693617221E+01 -0.31255293765E+01  0.15021628580E+02  0.18298021649E+02  0.10566000000E+00 0.  1.
        -14    1    4    4    0    0 -0.15357428518E+02 -0.43202925635E+01  0.25027392355E+02  0.29679722145E+02  0.00000000000E+00 0.  1.
<mgrwt>
<rscale>  0 0.79914861E+02</rscale>
<asrwt>0</asrwt>
<pdfrwt beam="1">  1        1 0.24561550E-01 0.79914861E+02</pdfrwt>
<pdfrwt beam="2">  1       -2 0.15385535E-02 0.79914861E+02</pdfrwt>
<totfact> 0.16017706E+05</totfact>
</mgrwt>
</event>
<event>
 8    1  0.1319619E-024  0.7684003E+02  0.7818608E-02  0.1338266E+00
          1   -1    0    0  501    0  0.00000000000E+00  0.00000000000E+00  0.51722001052E+02  0.51722001297E+02  0.50400000000E-02 0. -1.
         -2   -1    0    0    0  501 -0.00000000000E+00 -0.00000000000E+00 -0.28539066484E+02  0.28539066598E+02  0.25500000000E-02 0.  1.
        -24    2    1    2    0    0  0.00000000000E+00 -0.35527136788E-14  0.23182934568E+02  0.80261067896E+02  0.76840032305E+02 0.  0.
         66    2    3    3    0    0 -0.21142226783E+02  0.31412283986E+02  0.49628959610E+01  0.38240759598E+02  0.20000049379E+01 0.  0.
         13    1    3    3    0    0  0.21142226783E+02 -0.31412283986E+02  0.18220038607E+02  0.42020308298E+02  0.10566000000E+00 0. -1.
         13    1    4    4    0    0 -0.63554069818E+01  0.98707426009E+01  0.84909831729E+00  0.11770934092E+02  0.10566000000E+00 0. -1.
        -13    1    4    4    0    0 -0.34794527584E+01  0.45749687780E+01  0.59924605552E+00  0.57798953873E+01  0.10566000000E+00 0.  1.
         14    1    4    4    0    0 -0.11307367043E+02  0.16966572607E+02  0.35145515882E+01  0.20689930119E+02  0.00000000000E+00 0. -1.
<mgrwt>
<rscale>  0 0.76840032E+02</rscale>
<asrwt>0</asrwt>
<pdfrwt beam="1">  1        1 0.79572310E-02 0.76840032E+02</pdfrwt>
<pdfrwt beam="2">  1       -2 0.43906256E-02 0.76840032E+02</pdfrwt>
<totfact> 0.14787912E+05</totfact>
</mgrwt>
</event>
<event>
 8    1  0.1319619E-024  0.7990662E+02  0.7818608E-02  0.1329317E+00
          1   -1    0    0  501    0  0.00000000000E+00  0.00000000000E+00  0.10644630681E+02  0.10644631874E+02  0.50400000000E-02 0. -1.
         -2   -1    0    0    0  501 -0.00000000000E+00 -0.00000000000E+00 -0.14995982034E+03  0.14995982036E+03  0.25500000000E-02 0.  1.
        -24    2    1    2    0    0 -0.66613381478E-15 -0.35527136788E-14 -0.13931518966E+03  0.16060445224E+03  0.79906620554E+02 0.  0.
         66    2    3    3    0    0 -0.18572368638E+01 -0.20489057539E+02 -0.13848003017E+03  0.14001417630E+03  0.20000006124E+01 0.  0.
         13    1    3    3    0    0  0.18572368638E+01  0.20489057539E+02 -0.83515948896E+00  0.20590275933E+02  0.10566000000E+00 0. -1.
         13    1    4    4    0    0  0.40861425739E+00 -0.26901252586E+01 -0.18030008799E+02  0.18234476161E+02  0.10566000000E+00 0. -1.
        -13    1    4    4    0    0 -0.19297674620E+01 -0.15779597580E+02 -0.10609437764E+03  0.10727883217E+03  0.10566000000E+00 0.  1.
         14    1    4    4    0    0 -0.33608365909E+00 -0.20193346995E+01 -0.14355643734E+02  0.14500867969E+02  0.00000000000E+00 0. -1.
<mgrwt>
<rscale>  0 0.79906621E+02</rscale>
<asrwt>0</asrwt>
<pdfrwt beam="1">  1        1 0.16376357E-02 0.79906621E+02</pdfrwt>
<pdfrwt beam="2">  1       -2 0.23070740E-01 0.79906621E+02</pdfrwt>
<totfact> 0.94803097E+04</totfact>
</mgrwt>
</event>
<event>
 8    1  0.1319619E-024  0.7944099E+02  0.7818608E-02  0.1330645E+00
         -2   -1    0    0    0  501 -0.00000000000E+00  0.00000000000E+00  0.94241152780E+01  0.94241156230E+01  0.25500000000E-02 0.  1.
          1   -1    0    0  501    0  0.00000000000E+00 -0.00000000000E+00 -0.16741280186E+03  0.16741280193E+03  0.50400000000E-02 0. -1.
        -24    2    1    2    0    0  0.35527136788E-14  0.35527136788E-14 -0.15798868658E+03  0.17683691755E+03  0.79440986422E+02 0.  0.
         66    2    3    3    0    0 -0.25395052318E+02 -0.28874664606E+02 -0.10097450797E+03  0.10806713738E+03  0.19999960763E+01 0.  0.
         13    1    3    3    0    0  0.25395052318E+02  0.28874664606E+02 -0.57014178609E+02  0.68769780171E+02  0.10566000000E+00 0. -1.
         13    1    4    4    0    0 -0.89393363116E+01 -0.94946755858E+01 -0.33540458680E+02  0.35986582647E+02  0.10566000000E+00 0. -1.
        -13    1    4    4    0    0 -0.43686204402E+01 -0.47637570225E+01 -0.15662066112E+02  0.16943721682E+02  0.10566000000E+00 0.  1.
        -14    1    4    4    0    0 -0.12087095567E+02 -0.14616231997E+02 -0.51771983178E+02  0.55136833054E+02  0.00000000000E+00 0.  1.
<mgrwt>
<rscale>  0 0.79440986E+02</rscale>
<asrwt>0</asrwt>
<pdfrwt beam="1">  1        1 0.25755814E-01 0.79440986E+02</pdfrwt>
<pdfrwt beam="2">  1       -2 0.14498640E-02 0.79440986E+02</pdfrwt>
<totfact> 0.16419041E+05</totfact>
</mgrwt>
</event>
<event>
 8    1  0.1319619E-024  0.8396487E+02  0.7818608E-02  0.1318162E+00
          1   -1    0    0  501    0  0.00000000000E+00  0.00000000000E+00  0.94926223273E+02  0.94926223407E+02  0.50400000000E-02 0. -1.
         -2   -1    0    0    0  501 -0.00000000000E+00 -0.00000000000E+00 -0.18567313271E+02  0.18567313447E+02  0.25500000000E-02 0.  1.
        -24    2    1    2    0    0  0.00000000000E+00  0.00000000000E+00  0.76358910002E+02  0.11349353685E+03  0.83964872243E+02 0.  0.
         66    2    3    3    0    0 -0.33094886681E+02  0.25716732938E+02  0.35532371798E+02  0.54983373094E+02  0.19999984449E+01 0.  0.
         13    1    3    3    0    0  0.33094886681E+02 -0.25716732938E+02  0.40826538204E+02  0.58510163760E+02  0.10566000000E+00 0. -1.
         13    1    4    4    0    0 -0.79030731290E+01  0.60503993346E+01  0.87312117509E+01  0.13240510552E+02  0.10566000000E+00 0.  1.
        -13    1    4    4    0    0 -0.15724026154E+02  0.12007425400E+02  0.15567240523E+02  0.25174856598E+02  0.10566000000E+00 0.  1.
        -14    1    4    4    0    0 -0.94677873980E+01  0.76589082040E+01  0.11233919524E+02  0.16568005944E+02  0.00000000000E+00 0.  1.
<mgrwt>
<rscale>  0 0.83964872E+02</rscale>
<asrwt>0</asrwt>
<pdfrwt beam="1">  1        1 0.14604034E-01 0.83964872E+02</pdfrwt>
<pdfrwt beam="2">  1       -2 0.28565098E-02 0.83964872E+02</pdfrwt>
<totfact> 0.12777653E+05</totfact>
</mgrwt>
</event>
<event>
 8    1  0.1319619E-024  0.8135259E+02  0.7818608E-02  0.1325256E+00
          1   -1    0    0  501    0  0.00000000000E+00  0.00000000000E+00  0.17412348202E+03  0.17412348210E+03  0.50400000000E-02 0. -1.
         -2   -1    0    0    0  501 -0.00000000000E+00 -0.00000000000E+00 -0.95022281903E+01  0.95022285325E+01  0.25500000000E-02 0.  1.
        -24    2    1    2    0    0  0.00000000000E+00  0.00000000000E+00  0.16462125383E+03  0.18362571063E+03  0.81352593016E+02 0.  0.
         66    2    3    3    0    0  0.33228112930E+02  0.20114256018E+02  0.55287000159E+02  0.67596916899E+02  0.20000008916E+01 0.  0.
         13    1    3    3    0    0 -0.33228112930E+02 -0.20114256018E+02  0.10933425367E+03  0.11602879373E+03  0.10566000000E+00 0. -1.
         13    1    4    4    0    0  0.97696208293E+01  0.67388577388E+01  0.16420793678E+02  0.20261079039E+02  0.10566000000E+00 0. -1.
        -13    1    4    4    0    0  0.12016240622E+02  0.73788238724E+01  0.20121394692E+02  0.24570689221E+02  0.10566000000E+00 0.  1.
         14    1    4    4    0    0  0.11442251478E+02  0.59965744072E+01  0.18744811789E+02  0.22765148638E+02  0.00000000000E+00 0. -1.
<mgrwt>
<rscale>  0 0.81352593E+02</rscale>
<asrwt>0</asrwt>
<pdfrwt beam="1">  1        1 0.26788224E-01 0.81352593E+02</pdfrwt>
<pdfrwt beam="2">  1       -2 0.14618815E-02 0.81352593E+02</pdfrwt>
<totfact> 0.15525725E+05</totfact>
</mgrwt>
</event>
<event>
 8    1  0.1582394E-024  0.7925573E+02  0.7818608E-02  0.1331177E+00
          1   -1    0    0  501    0  0.00000000000E+00  0.00000000000E+00  0.35153504655E+02  0.35153505016E+02  0.50400000000E-02 0. -1.
         -2   -1    0    0    0  501 -0.00000000000E+00 -0.00000000000E+00 -0.44671728610E+02  0.44671728683E+02  0.25500000000E-02 0.  1.
        -24    2    1    2    0    0 -0.88817841970E-15 -0.35527136788E-14 -0.95182239553E+01  0.79825233699E+02  0.79255733848E+02 0.  0.
         66    2    3    3    0    0 -0.73591730061E+01 -0.23018995974E+02 -0.36361629808E+02  0.43705831645E+02  0.19999986287E+01 0.  0.
         13    1    3    3    0    0  0.73591730061E+01  0.23018995974E+02  0.26843405852E+02  0.36119402054E+02  0.10566000000E+00 0. -1.
         13    1    4    4    0    0 -0.27026107529E+00 -0.22796616888E+01 -0.34234939991E+01  0.41232722032E+01  0.10566000000E+00 0. -1.
        -13    1    4    4    0    0 -0.14639670182E+01 -0.43206411121E+01 -0.60093161428E+01  0.75454743780E+01  0.10566000000E+00 0.  1.
        -14    1    4    4    0    0 -0.56249449127E+01 -0.16418693173E+02 -0.26928819666E+02  0.32037085063E+02  0.00000000000E+00 0.  1.
<mgrwt>
<rscale>  0 0.79255734E+02</rscale>
<asrwt>0</asrwt>
<pdfrwt beam="1">  1        1 0.54082315E-02 0.79255734E+02</pdfrwt>
<pdfrwt beam="2">  1       -2 0.68725737E-02 0.79255734E+02</pdfrwt>
<totfact> 0.12763873E+05</totfact>
</mgrwt>
</event>
<event>
 8    1  0.1319619E-024  0.8075230E+02  0.7818608E-02  0.1326930E+00
          1   -1    0    0  501    0  0.00000000000E+00  0.00000000000E+00  0.28799902978E+02  0.28799903419E+02  0.50400000000E-02 0. -1.
         -2   -1    0    0    0  501 -0.00000000000E+00 -0.00000000000E+00 -0.56605518753E+02  0.56605518810E+02  0.25500000000E-02 0.  1.
        -24    2    1    2    0    0  0.00000000000E+00  0.00000000000E+00 -0.27805615775E+02  0.85405422229E+02  0.80752299519E+02 0.  0.
         66    2    3    3    0    0  0.24129031204E+02  0.32217520878E+02 -0.16911996660E+02  0.43705771154E+02  0.20000006826E+01 0.  0.
         13    1    3    3    0    0 -0.24129031204E+02 -0.32217520878E+02 -0.10893619115E+02  0.41699651076E+02  0.10566000000E+00 0. -1.
         13    1    4    4    0    0  0.87258540840E+00  0.13462873118E+01 -0.99532157011E+00  0.18909584566E+01  0.10566000000E+00 0. -1.
        -13    1    4    4    0    0  0.18970816665E+02  0.25451835640E+02 -0.13492702620E+02  0.34492782005E+02  0.10566000000E+00 0.  1.
        -14    1    4    4    0    0  0.42856291302E+01  0.54193979262E+01 -0.24239724702E+01  0.73220306924E+01  0.00000000000E+00 0.  1.
<mgrwt>
<rscale>  0 0.80752300E+02</rscale>
<asrwt>0</asrwt>
<pdfrwt beam="1">  1        1 0.44307543E-02 0.80752300E+02</pdfrwt>
<pdfrwt beam="2">  1       -2 0.87085414E-02 0.80752300E+02</pdfrwt>
<totfact> 0.11686963E+05</totfact>
</mgrwt>
</event>
<event>
 8    1  0.1319619E-024  0.7929381E+02  0.7818608E-02  0.1331068E+00
         -2   -1    0    0    0  501 -0.00000000000E+00  0.00000000000E+00  0.16445349693E+02  0.16445349891E+02  0.25500000000E-02 0.  1.
          1   -1    0    0  501    0  0.00000000000E+00 -0.00000000000E+00 -0.95581850692E+02  0.95581850825E+02  0.50400000000E-02 0. -1.
        -24    2    1    2    0    0  0.35527136788E-14  0.71054273576E-14 -0.79136500999E+02  0.11202720072E+03  0.79293807514E+02 0.  0.
         66    2    3    3    0    0  0.18106150606E+02  0.30774952212E+02 -0.15329918725E+02  0.38909340525E+02  0.19999996399E+01 0.  0.
         13    1    3    3    0    0 -0.18106150606E+02 -0.30774952212E+02 -0.63806582274E+02  0.73117860191E+02  0.10566000000E+00 0. -1.
         13    1    4    4    0    0  0.41617572545E+00  0.70562704711E+00 -0.88270549429E-01  0.83070300924E+00  0.10566000000E+00 0. -1.
        -13    1    4    4    0    0  0.16759791010E+01  0.30838667076E+01 -0.13534462580E+01  0.37632593089E+01  0.10566000000E+00 0.  1.
         14    1    4    4    0    0  0.16013995779E+02  0.26985458457E+02 -0.13888201917E+02  0.34315378207E+02  0.00000000000E+00 0. -1.
<mgrwt>
<rscale>  0 0.79293808E+02</rscale>
<asrwt>0</asrwt>
<pdfrwt beam="1">  1        1 0.14704900E-01 0.79293808E+02</pdfrwt>
<pdfrwt beam="2">  1       -2 0.25300539E-02 0.79293808E+02</pdfrwt>
<totfact> 0.14942471E+05</totfact>
</mgrwt>
</event>
<event>
 8    1  0.1319619E-024  0.7781428E+02  0.7818608E-02  0.1335371E+00
          1   -1    0    0  501    0  0.00000000000E+00  0.00000000000E+00  0.60694341452E+02  0.60694341662E+02  0.50400000000E-02 0. -1.
         -2   -1    0    0    0  501 -0.00000000000E+00 -0.00000000000E+00 -0.24940803215E+02  0.24940803345E+02  0.25500000000E-02 0.  1.
        -24    2    1    2    0    0  0.00000000000E+00  0.17763568394E-14  0.35753538238E+02  0.85635145007E+02  0.77814282518E+02 0.  0.
         66    2    3    3    0    0 -0.10044939184E+02  0.99409406538E+01 -0.21974076461E+02  0.26202731569E+02  0.20000002701E+01 0.  0.
         13    1    3    3    0    0  0.10044939184E+02 -0.99409406538E+01  0.57727614698E+02  0.59432413438E+02  0.10566000000E+00 0. -1.
         13    1    4    4    0    0 -0.83770993457E+00  0.77583686732E+00 -0.13455375100E+01  0.17678563306E+01  0.10566000000E+00 0. -1.
        -13    1    4    4    0    0 -0.39693406600E+01  0.41680900377E+01 -0.76517077616E+01  0.95754078525E+01  0.10566000000E+00 0.  1.
         14    1    4    4    0    0 -0.52378885896E+01  0.49970137488E+01 -0.12976831189E+02  0.14859467386E+02  0.00000000000E+00 0. -1.
<mgrwt>
<rscale>  0 0.77814283E+02</rscale>
<asrwt>0</asrwt>
<pdfrwt beam="1">  1        1 0.93375911E-02 0.77814283E+02</pdfrwt>
<pdfrwt beam="2">  1       -2 0.38370466E-02 0.77814283E+02</pdfrwt>
<totfact> 0.14636036E+05</totfact>
</mgrwt>
</event>
<event>
 8    1  0.1319619E-024  0.7248451E+02  0.7818608E-02  0.1351843E+00
          1   -1    0    0  501    0  0.00000000000E+00  0.00000000000E+00  0.89285486039E+02  0.89285486181E+02  0.50400000000E-02 0. -1.
         -2   -1    0    0    0  501 -0.00000000000E+00 -0.00000000000E+00 -0.14711248768E+02  0.14711248989E+02  0.25500000000E-02 0.  1.
        -24    2    1    2    0    0  0.35527136788E-14  0.00000000000E+00  0.74574237271E+02  0.10399673517E+03  0.72484509115E+02 0.  0.
         66    2    3    3    0    0  0.18823593441E+02  0.30279720556E+02  0.46424306818E+02  0.58569662895E+02  0.20000002657E+01 0.  0.
         13    1    3    3    0    0 -0.18823593441E+02 -0.30279720556E+02  0.28149930452E+02  0.45427072275E+02  0.10566000000E+00 0. -1.
         13    1    4    4    0    0  0.16178975416E+01  0.33250720269E+01  0.46934067318E+01  0.59760293862E+01  0.10566000000E+00 0. -1.
        -13    1    4    4    0    0  0.70844574710E+01  0.12393956714E+02  0.18780006081E+02  0.23590241481E+02  0.10566000000E+00 0.  1.
         14    1    4    4    0    0  0.10121238429E+02  0.14560691815E+02  0.22950894005E+02  0.29003392028E+02  0.00000000000E+00 0. -1.
<mgrwt>
<rscale>  0 0.72484509E+02</rscale>
<asrwt>0</asrwt>
<pdfrwt beam="1">  1        1 0.13736229E-01 0.72484509E+02</pdfrwt>
<pdfrwt beam="2">  1       -2 0.22632690E-02 0.72484509E+02</pdfrwt>
<totfact> 0.18813419E+05</totfact>
</mgrwt>
</event>
<event>
 8    1  0.1319619E-024  0.7906228E+02  0.7818608E-02  0.1331734E+00
         -2   -1    0    0    0  501 -0.00000000000E+00  0.00000000000E+00  0.46023946751E+01  0.46023953815E+01  0.25500000000E-02 0.  1.
          1   -1    0    0  501    0  0.00000000000E+00 -0.00000000000E+00 -0.33954299639E+03  0.33954299643E+03  0.50400000000E-02 0. -1.
        -24    2    1    2    0    0  0.00000000000E+00  0.00000000000E+00 -0.33494060171E+03  0.34414539181E+03  0.79062279414E+02 0.  0.
         66    2    3    3    0    0 -0.32428166820E+02  0.18868566651E+02 -0.11371841205E+03  0.11976429373E+03  0.20000007027E+01 0.  0.
         13    1    3    3    0    0  0.32428166820E+02 -0.18868566651E+02 -0.22122218967E+03  0.22438109808E+03  0.10566000000E+00 0. -1.
         13    1    4    4    0    0 -0.44602175089E+00  0.29994522677E+00 -0.19837942715E+01  0.20580345693E+01  0.10566000000E+00 0.  1.
        -13    1    4    4    0    0 -0.30192195396E+02  0.17888814916E+02 -0.10643141699E+03  0.11206799743E+03  0.10566000000E+00 0.  1.
         14    1    4    4    0    0 -0.17899496729E+01  0.67980650827E+00 -0.53032007898E+01  0.56382617301E+01  0.00000000000E+00 0. -1.
<mgrwt>
<rscale>  0 0.79062279E+02</rscale>
<asrwt>0</asrwt>
<pdfrwt beam="1">  1        1 0.52237365E-01 0.79062279E+02</pdfrwt>
<pdfrwt beam="2">  1       -2 0.70806104E-03 0.79062279E+02</pdfrwt>
<totfact> 0.19043875E+05</totfact>
</mgrwt>
</event>
<event>
 8    1  0.1319619E-024  0.7594861E+02  0.7818608E-02  0.1340958E+00
          1   -1    0    0  501    0  0.00000000000E+00  0.00000000000E+00  0.46611326772E+02  0.46611327044E+02  0.50400000000E-02 0. -1.
         -2   -1    0    0    0  501 -0.00000000000E+00 -0.00000000000E+00 -0.30937710540E+02  0.30937710645E+02  0.25500000000E-02 0.  1.
        -24    2    1    2    0    0  0.00000000000E+00  0.00000000000E+00  0.15673616232E+02  0.77549037689E+02  0.75948607629E+02 0.  0.
         66    2    3    3    0    0  0.17486850041E+02 -0.29526461932E+02 -0.86991784679E+01  0.35458110351E+02  0.20000012638E+01 0.  0.
         13    1    3    3    0    0 -0.17486850041E+02  0.29526461932E+02  0.24372794700E+02  0.42090927338E+02  0.10566000000E+00 0. -1.
         13    1    4    4    0    0  0.38913834477E+01 -0.64631282475E+01 -0.20418673928E+01  0.78163468684E+01  0.10566000000E+00 0.  1.
        -13    1    4    4    0    0  0.13500238745E+02 -0.23072708737E+02 -0.66377587086E+01  0.27544098085E+02  0.10566000000E+00 0.  1.
        -14    1    4    4    0    0  0.95227849205E-01  0.93750521940E-02 -0.19552366522E-01  0.97665397682E-01  0.00000000000E+00 0.  1.
<mgrwt>
<rscale>  0 0.75948608E+02</rscale>
<asrwt>0</asrwt>
<pdfrwt beam="1">  1        1 0.71709734E-02 0.75948608E+02</pdfrwt>
<pdfrwt beam="2">  1       -2 0.47596478E-02 0.75948608E+02</pdfrwt>
<totfact> 0.15034421E+05</totfact>
</mgrwt>
</event>
<event>
 8    1  0.1319619E-024  0.7925419E+02  0.7818608E-02  0.1331181E+00
         -2   -1    0    0    0  501 -0.00000000000E+00  0.00000000000E+00  0.13428911565E+02  0.13428911807E+02  0.25500000000E-02 0.  1.
          1   -1    0    0  501    0  0.00000000000E+00 -0.00000000000E+00 -0.11693477735E+03  0.11693477746E+03  0.50400000000E-02 0. -1.
        -24    2    1    2    0    0  0.00000000000E+00  0.00000000000E+00 -0.10350586578E+03  0.13036368926E+03  0.79254193750E+02 0.  0.
         66    2    3    3    0    0 -0.23345922238E+02 -0.91644834084E+01 -0.13739761043E+01  0.25197373864E+02  0.19999995093E+01 0.  0.
         13    1    3    3    0    0  0.23345922238E+02  0.91644834084E+01 -0.10213188968E+03  0.10516631540E+03  0.10566000000E+00 0. -1.
         13    1    4    4    0    0 -0.42278959092E+01 -0.15571057401E+01  0.11725626560E+00  0.45082807336E+01  0.10566000000E+00 0.  1.
        -13    1    4    4    0    0 -0.45157458075E+01 -0.15865895468E+01  0.27740538587E+00  0.47955546469E+01  0.10566000000E+00 0. -1.
         14    1    4    4    0    0 -0.14602280521E+02 -0.60207881215E+01 -0.17686377558E+01  0.15893538484E+02  0.00000000000E+00 0. -1.
<mgrwt>
<rscale>  0 0.79254194E+02</rscale>
<asrwt>0</asrwt>
<pdfrwt beam="1">  1        1 0.17989965E-01 0.79254194E+02</pdfrwt>
<pdfrwt beam="2">  1       -2 0.20659865E-02 0.79254194E+02</pdfrwt>
<totfact> 0.15482982E+05</totfact>
</mgrwt>
</event>
<event>
 8    1  0.1319619E-024  0.7913912E+02  0.7818608E-02  0.1331512E+00
         -2   -1    0    0    0  501 -0.00000000000E+00  0.00000000000E+00  0.87458396843E+01  0.87458400561E+01  0.25500000000E-02 0.  1.
          1   -1    0    0  501    0  0.00000000000E+00 -0.00000000000E+00 -0.17902799527E+03  0.17902799534E+03  0.50400000000E-02 0. -1.
        -24    2    1    2    0    0  0.00000000000E+00  0.00000000000E+00 -0.17028215558E+03  0.18777383539E+03  0.79139122744E+02 0.  0.
         66    2    3    3    0    0 -0.30926194571E+02 -0.23324752326E+02 -0.66321972874E+02  0.76831488499E+02  0.19999893425E+01 0.  0.
         13    1    3    3    0    0  0.30926194571E+02  0.23324752326E+02 -0.10396018271E+03  0.11094234689E+03  0.10566000000E+00 0. -1.
         13    1    4    4    0    0 -0.11386164372E+02 -0.96543181832E+01 -0.24873000205E+02  0.29009100330E+02  0.10566000000E+00 0. -1.
        -13    1    4    4    0    0 -0.14814328784E+02 -0.10590527684E+02 -0.31428188977E+02  0.36323075866E+02  0.10566000000E+00 0.  1.
         14    1    4    4    0    0 -0.47257014148E+01 -0.30799064586E+01 -0.10020783692E+02  0.11499312304E+02  0.00000000000E+00 0. -1.
<mgrwt>
<rscale>  0 0.79139123E+02</rscale>
<asrwt>0</asrwt>
<pdfrwt beam="1">  1        1 0.27542766E-01 0.79139123E+02</pdfrwt>
<pdfrwt beam="2">  1       -2 0.13455140E-02 0.79139123E+02</pdfrwt>
<totfact> 0.16797907E+05</totfact>
</mgrwt>
</event>
<event>
 8    1  0.1319619E-024  0.8174596E+02  0.7818608E-02  0.1324168E+00
          1   -1    0    0  501    0  0.00000000000E+00  0.00000000000E+00  0.10779318449E+03  0.10779318460E+03  0.50400000000E-02 0. -1.
         -2   -1    0    0    0  501 -0.00000000000E+00 -0.00000000000E+00 -0.15498199497E+02  0.15498199707E+02  0.25500000000E-02 0.  1.
        -24    2    1    2    0    0  0.00000000000E+00  0.00000000000E+00  0.92294984989E+02  0.12329138431E+03  0.81745955199E+02 0.  0.
         66    2    3    3    0    0  0.52652778262E+01 -0.21818341888E+02 -0.53001709672E+01  0.23148542214E+02  0.20000002545E+01 0.  0.
         13    1    3    3    0    0 -0.52652778262E+01  0.21818341888E+02  0.97595155956E+02  0.10014284210E+03  0.10566000000E+00 0. -1.
         13    1    4    4    0    0  0.12345788569E+01 -0.53912925022E+01 -0.10083413806E+01  0.56230006379E+01  0.10566000000E+00 0. -1.
        -13    1    4    4    0    0  0.68857512412E+00 -0.36171610869E+01 -0.15992033751E+01  0.40157945043E+01  0.10566000000E+00 0.  1.
        -14    1    4    4    0    0  0.33421238452E+01 -0.12809888298E+02 -0.26926262115E+01  0.13509747071E+02  0.00000000000E+00 0.  1.
<mgrwt>
<rscale>  0 0.81745955E+02</rscale>
<asrwt>0</asrwt>
<pdfrwt beam="1">  1        1 0.16583568E-01 0.81745955E+02</pdfrwt>
<pdfrwt beam="2">  1       -2 0.23843383E-02 0.81745955E+02</pdfrwt>
<totfact> 0.14044327E+05</totfact>
</mgrwt>
</event>
<event>
 8    1  0.1319619E-024  0.7943384E+02  0.7818608E-02  0.1330666E+00
         -2   -1    0    0    0  501 -0.00000000000E+00  0.00000000000E+00  0.79756542325E+01  0.79756546401E+01  0.25500000000E-02 0.  1.
          1   -1    0    0  501    0  0.00000000000E+00 -0.00000000000E+00 -0.19778108624E+03  0.19778108631E+03  0.50400000000E-02 0. -1.
        -24    2    1    2    0    0  0.00000000000E+00  0.17763568394E-14 -0.18980543201E+03  0.20575674095E+03  0.79433836773E+02 0.  0.
         66    2    3    3    0    0  0.28373947551E+02 -0.15991476001E+02 -0.36201321731E+02  0.48737499888E+02  0.19999989702E+01 0.  0.
         13    1    3    3    0    0 -0.28373947551E+02  0.15991476001E+02 -0.15360411028E+03  0.15701924106E+03  0.10566000000E+00 0. -1.
         13    1    4    4    0    0  0.18602441493E+01 -0.80528169339E+00 -0.28181809763E+01  0.34730814778E+01  0.10566000000E+00 0. -1.
        -13    1    4    4    0    0  0.97164007536E+01 -0.60447032873E+01 -0.12311799083E+02  0.16808879859E+02  0.10566000000E+00 0.  1.
        -14    1    4    4    0    0  0.16797302648E+02 -0.91414910203E+01 -0.21071341672E+02  0.28455538550E+02  0.00000000000E+00 0.  1.
<mgrwt>
<rscale>  0 0.79433837E+02</rscale>
<asrwt>0</asrwt>
<pdfrwt beam="1">  1        1 0.30427856E-01 0.79433837E+02</pdfrwt>
<pdfrwt beam="2">  1       -2 0.12270239E-02 0.79433837E+02</pdfrwt>
<totfact> 0.16954532E+05</totfact>
</mgrwt>
</event>
<event>
 8    1  0.1319619E-024  0.8368094E+02  0.7818608E-02  0.1318918E+00
         -2   -1    0    0    0  501 -0.00000000000E+00  0.00000000000E+00  0.10245401964E+03  0.10245401967E+03  0.25500000000E-02 0.  1.
          1   -1    0    0  501    0  0.00000000000E+00 -0.00000000000E+00 -0.17086932833E+02  0.17086933576E+02  0.50400000000E-02 0. -1.
        -24    2    1    2    0    0  0.17763568394E-14 -0.17763568394E-14  0.85367086802E+02  0.11954095324E+03  0.83680941636E+02 0.  0.
         66    2    3    3    0    0  0.82107157542E+01 -0.14165759002E+02  0.97674543131E+02  0.99057564201E+02  0.20000170668E+01 0.  0.
         13    1    3    3    0    0 -0.82107157542E+01  0.14165759002E+02 -0.12307456329E+02  0.20483389042E+02  0.10566000000E+00 0. -1.
         13    1    4    4    0    0  0.44538594665E+01 -0.77530238075E+01  0.58139833253E+02  0.58823444451E+02  0.10566000000E+00 0.  1.
        -13    1    4    4    0    0  0.17351359115E+01 -0.33546348556E+01  0.18416274884E+02  0.18799856815E+02  0.10566000000E+00 0. -1.
         14    1    4    4    0    0  0.20217203762E+01 -0.30581003394E+01  0.21118434994E+02  0.21434262935E+02  0.00000000000E+00 0. -1.
<mgrwt>
<rscale>  0 0.83680942E+02</rscale>
<asrwt>0</asrwt>
<pdfrwt beam="1">  1        1 0.26287590E-02 0.83680942E+02</pdfrwt>
<pdfrwt beam="2">  1       -2 0.15762157E-01 0.83680942E+02</pdfrwt>
<totfact> 0.93999663E+04</totfact>
</mgrwt>
</event>
<event>
 8    1  0.1319619E-024  0.7746002E+02  0.7818608E-02  0.1336418E+00
          1   -1    0    0  501    0  0.00000000000E+00  0.00000000000E+00  0.37329808213E+03  0.37329808217E+03  0.50400000000E-02 0. -1.
         -2   -1    0    0    0  501 -0.00000000000E+00 -0.00000000000E+00 -0.40182727003E+01  0.40182735094E+01  0.25500000000E-02 0.  1.
        -24    2    1    2    0    0 -0.71054273576E-14  0.00000000000E+00  0.36927980943E+03  0.37731635568E+03  0.77460019406E+02 0.  0.
         66    2    3    3    0    0  0.33971342813E+02 -0.11867774625E+02  0.25418453538E+03  0.25672684751E+03  0.19999994812E+01 0.  0.
         13    1    3    3    0    0 -0.33971342813E+02  0.11867774625E+02  0.11509527405E+03  0.12058950817E+03  0.10566000000E+00 0. -1.
         13    1    4    4    0    0  0.14830391606E+02 -0.56826528366E+01  0.10959719283E+03  0.11074199248E+03  0.10566000000E+00 0. -1.
        -13    1    4    4    0    0  0.11132151496E+02 -0.36935389076E+01  0.88478064165E+02  0.89252148596E+02  0.10566000000E+00 0.  1.
        -14    1    4    4    0    0  0.80087997106E+01 -0.24915828806E+01  0.56109278391E+02  0.56732706436E+02  0.00000000000E+00 0.  1.
<mgrwt>
<rscale>  0 0.77460019E+02</rscale>
<asrwt>0</asrwt>
<pdfrwt beam="1">  1        1 0.57430494E-01 0.77460019E+02</pdfrwt>
<pdfrwt beam="2">  1       -2 0.61819566E-03 0.77460019E+02</pdfrwt>
<totfact> 0.20432551E+05</totfact>
</mgrwt>
</event>
<event>
 8    1  0.1319619E-024  0.7856625E+02  0.7818608E-02  0.1333170E+00
         -2   -1    0    0    0  501 -0.00000000000E+00  0.00000000000E+00  0.63641031322E+02  0.63641031373E+02  0.25500000000E-02 0.  1.
          1   -1    0    0  501    0  0.00000000000E+00 -0.00000000000E+00 -0.24247941495E+02  0.24247942019E+02  0.50400000000E-02 0. -1.
        -24    2    1    2    0    0  0.00000000000E+00  0.00000000000E+00  0.39393089826E+02  0.87888973392E+02  0.78566253047E+02 0.  0.
         66    2    3    3    0    0  0.38396775973E+02 -0.24349904523E+01  0.28440382217E+02  0.47886291586E+02  0.19999993826E+01 0.  0.
         13    1    3    3    0    0 -0.38396775973E+02  0.24349904523E+01  0.10952707609E+02  0.40002681806E+02  0.10566000000E+00 0. -1.
         13    1    4    4    0    0  0.50078578049E+01  0.17836423033E+00  0.38582567628E+01  0.63251689998E+01  0.10566000000E+00 0. -1.
        -13    1    4    4    0    0  0.21213937174E+02 -0.10930130668E+01  0.15580604350E+02  0.26343731777E+02  0.10566000000E+00 0.  1.
        -14    1    4    4    0    0  0.12174980994E+02 -0.15203416158E+01  0.90015211046E+01  0.15217390809E+02  0.00000000000E+00 0.  1.
<mgrwt>
<rscale>  0 0.78566253E+02</rscale>
<asrwt>0</asrwt>
<pdfrwt beam="1">  1        1 0.37304526E-02 0.78566253E+02</pdfrwt>
<pdfrwt beam="2">  1       -2 0.97909278E-02 0.78566253E+02</pdfrwt>
<totfact> 0.12256631E+05</totfact>
</mgrwt>
</event>
<event>
 8    1  0.1319619E-024  0.7603230E+02  0.7818608E-02  0.1340704E+00
          1   -1    0    0  501    0  0.00000000000E+00  0.00000000000E+00  0.70106301490E+02  0.70106301671E+02  0.50400000000E-02 0. -1.
         -2   -1    0    0    0  501 -0.00000000000E+00 -0.00000000000E+00 -0.20614805236E+02  0.20614805394E+02  0.25500000000E-02 0.  1.
        -24    2    1    2    0    0  0.00000000000E+00  0.71054273576E-14  0.49491496254E+02  0.90721107065E+02  0.76032302777E+02 0.  0.
         66    2    3    3    0    0 -0.17792022657E+02  0.32887797926E+02  0.16753357615E+02  0.41022412833E+02  0.20000101578E+01 0.  0.
         13    1    3    3    0    0  0.17792022657E+02 -0.32887797926E+02  0.32738138639E+02  0.49698694231E+02  0.10566000000E+00 0. -1.
         13    1    4    4    0    0 -0.45787752778E+01  0.71561388995E+01  0.38555161010E+01  0.93301487359E+01  0.10566000000E+00 0. -1.
        -13    1    4    4    0    0 -0.17219493010E+01  0.26004002227E+01  0.13877470520E+01  0.34152886598E+01  0.10566000000E+00 0.  1.
        -14    1    4    4    0    0 -0.11491298078E+02  0.23131258804E+02  0.11510094462E+02  0.28276975438E+02  0.00000000000E+00 0.  1.
<mgrwt>
<rscale>  0 0.76032303E+02</rscale>
<asrwt>0</asrwt>
<pdfrwt beam="1">  1        1 0.10785585E-01 0.76032303E+02</pdfrwt>
<pdfrwt beam="2">  1       -2 0.31715085E-02 0.76032303E+02</pdfrwt>
<totfact> 0.15938918E+05</totfact>
</mgrwt>
</event>
<event>
 8    1  0.1319619E-024  0.7901135E+02  0.7818608E-02  0.1331881E+00
          1   -1    0    0  501    0  0.00000000000E+00  0.00000000000E+00  0.14405480260E+02  0.14405481142E+02  0.50400000000E-02 0. -1.
         -2   -1    0    0    0  501 -0.00000000000E+00 -0.00000000000E+00 -0.10834058163E+03  0.10834058166E+03  0.25500000000E-02 0.  1.
        -24    2    1    2    0    0  0.00000000000E+00 -0.88817841970E-15 -0.93935101372E+02  0.12274606280E+03  0.79011345161E+02 0.  0.
         66    2    3    3    0    0 -0.38566511034E+02  0.75775025711E+01 -0.41205829553E+02  0.56979950032E+02  0.19999994873E+01 0.  0.
         13    1    3    3    0    0  0.38566511034E+02 -0.75775025711E+01 -0.52729271819E+02  0.65766112772E+02  0.10566000000E+00 0. -1.
         13    1    4    4    0    0 -0.32877470188E+01  0.86384908959E+00 -0.33244225446E+01  0.47558874040E+01  0.10566000000E+00 0.  1.
        -13    1    4    4    0    0 -0.21476747377E+02  0.32771423038E+01 -0.22996361894E+02  0.31635963142E+02  0.10566000000E+00 0.  1.
        -14    1    4    4    0    0 -0.13802016639E+02  0.34365111777E+01 -0.14885045115E+02  0.20588099486E+02  0.00000000000E+00 0.  1.
<mgrwt>
<rscale>  0 0.79011345E+02</rscale>
<asrwt>0</asrwt>
<pdfrwt beam="1">  1        1 0.22162279E-02 0.79011345E+02</pdfrwt>
<pdfrwt beam="2">  1       -2 0.16667781E-01 0.79011345E+02</pdfrwt>
<totfact> 0.10734955E+05</totfact>
</mgrwt>
</event>
<event>
 8    1  0.1319619E-024  0.8069591E+02  0.7818608E-02  0.1327088E+00
         -2   -1    0    0    0  501 -0.00000000000E+00  0.00000000000E+00  0.14359254716E+02  0.14359254943E+02  0.25500000000E-02 0.  1.
          1   -1    0    0  501    0  0.00000000000E+00 -0.00000000000E+00 -0.11337338502E+03  0.11337338513E+03  0.50400000000E-02 0. -1.
        -24    2    1    2    0    0 -0.35527136788E-14  0.00000000000E+00 -0.99014130299E+02  0.12773264007E+03  0.80695906590E+02 0.  0.
         66    2    3    3    0    0 -0.22526997450E+02  0.24677015737E+02 -0.13807148381E+02  0.36208535860E+02  0.20000007177E+01 0.  0.
         13    1    3    3    0    0  0.22526997450E+02 -0.24677015737E+02 -0.85206981919E+02  0.91524104211E+02  0.10566000000E+00 0. -1.
         13    1    4    4    0    0 -0.15687637264E+01  0.22359979664E+01 -0.77135014620E+00  0.28402203469E+01  0.10566000000E+00 0. -1.
        -13    1    4    4    0    0 -0.89835398152E+01  0.98358293765E+01 -0.60551560902E+01  0.14632963010E+02  0.10566000000E+00 0.  1.
         14    1    4    4    0    0 -0.11974693908E+02  0.12605188395E+02 -0.69806421442E+01  0.18735352503E+02  0.00000000000E+00 0. -1.
<mgrwt>
<rscale>  0 0.80695907E+02</rscale>
<asrwt>0</asrwt>
<pdfrwt beam="1">  1        1 0.17442059E-01 0.80695907E+02</pdfrwt>
<pdfrwt beam="2">  1       -2 0.22091162E-02 0.80695907E+02</pdfrwt>
<totfact> 0.14670836E+05</totfact>
</mgrwt>
</event>
<event>
 8    1  0.1319619E-024  0.7847008E+02  0.7818608E-02  0.1333450E+00
          1   -1    0    0  501    0  0.00000000000E+00  0.00000000000E+00  0.29486981455E+03  0.29486981459E+03  0.50400000000E-02 0. -1.
         -2   -1    0    0    0  501 -0.00000000000E+00 -0.00000000000E+00 -0.52205695122E+01  0.52205701350E+01  0.25500000000E-02 0.  1.
        -24    2    1    2    0    0 -0.17763568394E-14  0.00000000000E+00  0.28964924504E+03  0.30009038473E+03  0.78470082549E+02 0.  0.
         66    2    3    3    0    0 -0.11462028844E+02 -0.37493828938E+02  0.14670488727E+03  0.15186668252E+03  0.19999994936E+01 0.  0.
         13    1    3    3    0    0  0.11462028844E+02  0.37493828938E+02  0.14294435777E+03  0.14822370221E+03  0.10566000000E+00 0. -1.
         13    1    4    4    0    0 -0.91160013905E+00 -0.33209908576E+01  0.13930985358E+02  0.14350732113E+02  0.10566000000E+00 0. -1.
        -13    1    4    4    0    0 -0.41876423500E+01 -0.15816589433E+02  0.58961499466E+02  0.61189626842E+02  0.10566000000E+00 0.  1.
        -14    1    4    4    0    0 -0.63627863552E+01 -0.18356248647E+02  0.73812402441E+02  0.76326323564E+02  0.00000000000E+00 0.  1.
<mgrwt>
<rscale>  0 0.78470083E+02</rscale>
<asrwt>0</asrwt>
<pdfrwt beam="1">  1        1 0.45364607E-01 0.78470083E+02</pdfrwt>
<pdfrwt beam="2">  1       -2 0.80316424E-03 0.78470083E+02</pdfrwt>
<totfact> 0.18920701E+05</totfact>
</mgrwt>
</event>
<event>
 8    1  0.1319619E-024  0.7882540E+02  0.7818608E-02  0.1332418E+00
          1   -1    0    0  501    0  0.00000000000E+00  0.00000000000E+00  0.67455115235E+01  0.67455134064E+01  0.50400000000E-02 0. -1.
         -2   -1    0    0    0  501 -0.00000000000E+00 -0.00000000000E+00 -0.23028061624E+03  0.23028061626E+03  0.25500000000E-02 0.  1.
        -24    2    1    2    0    0 -0.17763568394E-14  0.00000000000E+00 -0.22353510472E+03  0.23702612966E+03  0.78825396297E+02 0.  0.
         66    2    3    3    0    0 -0.14342581319E+02  0.63641205887E+01 -0.22047168628E+03  0.22103840418E+03  0.19999996293E+01 0.  0.
         13    1    3    3    0    0  0.14342581319E+02 -0.63641205887E+01 -0.30634184386E+01  0.15987725489E+02  0.10566000000E+00 0. -1.
         13    1    4    4    0    0 -0.84735937408E+01  0.32848276956E+01 -0.12688771259E+03  0.12721279281E+03  0.10566000000E+00 0. -1.
        -13    1    4    4    0    0 -0.51617054586E+01  0.22611474056E+01 -0.80443829128E+02  0.80641036697E+02  0.10566000000E+00 0.  1.
         14    1    4    4    0    0 -0.70728211968E+00  0.81814548751E+00 -0.13140144567E+02  0.13184574672E+02  0.00000000000E+00 0. -1.
<mgrwt>
<rscale>  0 0.78825396E+02</rscale>
<asrwt>0</asrwt>
<pdfrwt beam="1">  1        1 0.10377713E-02 0.78825396E+02</pdfrwt>
<pdfrwt beam="2">  1       -2 0.35427781E-01 0.78825396E+02</pdfrwt>
<totfact> 0.83220923E+04</totfact>
</mgrwt>
</event>
<event>
 8    1  0.1319619E-024  0.8047247E+02  0.7818608E-02  0.1327716E+00
          1   -1    0    0  501    0  0.00000000000E+00  0.00000000000E+00  0.24421012722E+01  0.24421064730E+01  0.50400000000E-02 0. -1.
         -2   -1    0    0    0  501 -0.00000000000E+00 -0.00000000000E+00 -0.66293436173E+03  0.66293436173E+03  0.25500000000E-02 0.  1.
        -24    2    1    2    0    0 -0.17763568394E-14  0.00000000000E+00 -0.66049226045E+03  0.66537646820E+03  0.80472469330E+02 0.  0.
         66    2    3    3    0    0  0.10155600827E+02  0.12404987638E+02 -0.63536422786E+03  0.63556960436E+03  0.19999971318E+01 0.  0.
         13    1    3    3    0    0 -0.10155600827E+02 -0.12404987638E+02 -0.25128032593E+02  0.29806863848E+02  0.10566000000E+00 0. -1.
         13    1    4    4    0    0  0.14220991236E+01  0.26357134694E+01 -0.11589117904E+03  0.11592991803E+03  0.10566000000E+00 0.  1.
        -13    1    4    4    0    0  0.66681570040E+01  0.66727921050E+01 -0.36771918550E+03  0.36784018408E+03  0.10566000000E+00 0. -1.
         14    1    4    4    0    0  0.20653446993E+01  0.30964820640E+01 -0.15175386333E+03  0.15179950225E+03  0.00000000000E+00 0. -1.
<mgrwt>
<rscale>  0 0.80472469E+02</rscale>
<asrwt>0</asrwt>
<pdfrwt beam="1">  1        1 0.37570882E-03 0.80472469E+02</pdfrwt>
<pdfrwt beam="2">  1       -2 0.10198976E+00 0.80472469E+02</pdfrwt>
<totfact> 0.39201265E+04</totfact>
</mgrwt>
</event>
<event>
 8    1  0.1319619E-024  0.7761178E+02  0.7818608E-02  0.1335969E+00
          1   -1    0    0  501    0  0.00000000000E+00  0.00000000000E+00  0.32257548869E+02  0.32257549263E+02  0.50400000000E-02 0. -1.
         -2   -1    0    0    0  501 -0.00000000000E+00 -0.00000000000E+00 -0.46683559599E+02  0.46683559668E+02  0.25500000000E-02 0.  1.
        -24    2    1    2    0    0  0.00000000000E+00  0.00000000000E+00 -0.14426010730E+02  0.78941108931E+02  0.77611783214E+02 0.  0.
         66    2    3    3    0    0 -0.18688915968E+02  0.32119937645E+02 -0.18494896995E+02  0.41557516623E+02  0.19999996502E+01 0.  0.
         13    1    3    3    0    0  0.18688915968E+02 -0.32119937645E+02  0.40688862651E+01  0.37383592308E+02  0.10566000000E+00 0. -1.
         13    1    4    4    0    0 -0.23166744468E+01  0.50261524922E+01 -0.24637947647E+01  0.60589304375E+01  0.10566000000E+00 0. -1.
        -13    1    4    4    0    0 -0.10469973714E+02  0.18078266556E+02 -0.10265852452E+02  0.23277520526E+02  0.10566000000E+00 0.  1.
        -14    1    4    4    0    0 -0.59022678068E+01  0.90155185975E+01 -0.57652497781E+01  0.12221065659E+02  0.00000000000E+00 0.  1.
<mgrwt>
<rscale>  0 0.77611783E+02</rscale>
<asrwt>0</asrwt>
<pdfrwt beam="1">  1        1 0.49626999E-02 0.77611783E+02</pdfrwt>
<pdfrwt beam="2">  1       -2 0.71820861E-02 0.77611783E+02</pdfrwt>
<totfact> 0.13354074E+05</totfact>
</mgrwt>
</event>
<event>
 8    1  0.1319619E-024  0.7071736E+02  0.7818608E-02  0.1357670E+00
         -2   -1    0    0    0  501 -0.00000000000E+00  0.00000000000E+00  0.13781358809E+03  0.13781358811E+03  0.25500000000E-02 0.  1.
          1   -1    0    0  501    0  0.00000000000E+00 -0.00000000000E+00 -0.90719370746E+01  0.90719384746E+01  0.50400000000E-02 0. -1.
        -24    2    1    2    0    0 -0.71054273576E-14  0.17763568394E-14  0.12874165101E+03  0.14688552659E+03  0.70717361481E+02 0.  0.
         66    2    3    3    0    0 -0.31469451723E+02  0.12669775764E+02  0.84919253529E+02  0.91466547030E+02  0.19999990227E+01 0.  0.
         13    1    3    3    0    0  0.31469451723E+02 -0.12669775764E+02  0.43822397484E+02  0.55418979555E+02  0.10566000000E+00 0. -1.
         13    1    4    4    0    0 -0.97075581438E+01  0.32602352839E+01  0.26633150679E+02  0.28534219778E+02  0.10566000000E+00 0. -1.
        -13    1    4    4    0    0 -0.11087021946E+02  0.52547961760E+01  0.30927502358E+02  0.33272458650E+02  0.10566000000E+00 0.  1.
        -14    1    4    4    0    0 -0.10674871633E+02  0.41547443039E+01  0.27358600491E+02  0.29659868601E+02  0.00000000000E+00 0.  1.
<mgrwt>
<rscale>  0 0.70717361E+02</rscale>
<asrwt>0</asrwt>
<pdfrwt beam="1">  1        1 0.13956827E-02 0.70717361E+02</pdfrwt>
<pdfrwt beam="2">  1       -2 0.21202091E-01 0.70717361E+02</pdfrwt>
<totfact> 0.13314484E+05</totfact>
</mgrwt>
</event>
<event>
 8    1  0.1319619E-024  0.8069434E+02  0.7818608E-02  0.1327092E+00
         -2   -1    0    0    0  501 -0.00000000000E+00  0.00000000000E+00  0.27665539098E+02  0.27665539216E+02  0.25500000000E-02 0.  1.
          1   -1    0    0  501    0  0.00000000000E+00 -0.00000000000E+00 -0.58841941229E+02  0.58841941445E+02  0.50400000000E-02 0. -1.
        -24    2    1    2    0    0  0.35527136788E-14  0.35527136788E-14 -0.31176402131E+02  0.86507480660E+02  0.80694337846E+02 0.  0.
         66    2    3    3    0    0  0.25483523355E+02 -0.18548982057E+02 -0.42557227385E+02  0.52996153539E+02  0.19999973170E+01 0.  0.
         13    1    3    3    0    0 -0.25483523355E+02  0.18548982057E+02  0.11380825254E+02  0.33511327122E+02  0.10566000000E+00 0. -1.
         13    1    4    4    0    0  0.23954366626E+01 -0.14701562037E+01 -0.39732521422E+01  0.48679947298E+01  0.10566000000E+00 0. -1.
        -13    1    4    4    0    0  0.86413514688E+01 -0.61514652939E+01 -0.12949514470E+02  0.16739610793E+02  0.10566000000E+00 0.  1.
        -14    1    4    4    0    0  0.14446735224E+02 -0.10927360560E+02 -0.25634460773E+02  0.31388548016E+02  0.00000000000E+00 0.  1.
<mgrwt>
<rscale>  0 0.80694338E+02</rscale>
<asrwt>0</asrwt>
<pdfrwt beam="1">  1        1 0.90526064E-02 0.80694338E+02</pdfrwt>
<pdfrwt beam="2">  1       -2 0.42562368E-02 0.80694338E+02</pdfrwt>
<totfact> 0.13179008E+05</totfact>
</mgrwt>
</event>
<event>
 8    1  0.1319619E-024  0.7649450E+02  0.7818608E-02  0.1339305E+00
          1   -1    0    0  501    0  0.00000000000E+00  0.00000000000E+00  0.46598702322E+02  0.46598702594E+02  0.50400000000E-02 0. -1.
         -2   -1    0    0    0  501 -0.00000000000E+00 -0.00000000000E+00 -0.31392554607E+02  0.31392554711E+02  0.25500000000E-02 0.  1.
        -24    2    1    2    0    0  0.11102230246E-15  0.71054273576E-14  0.15206147715E+02  0.77991257305E+02  0.76494504951E+02 0.  0.
         66    2    3    3    0    0  0.98346040692E+00  0.37727516184E+02  0.13769236390E+02  0.40223433036E+02  0.20000056642E+01 0.  0.
         13    1    3    3    0    0 -0.98346040692E+00 -0.37727516184E+02  0.14369113248E+01  0.37767824269E+02  0.10566000000E+00 0. -1.
         13    1    4    4    0    0 -0.15046845048E+00  0.16251554973E+01  0.52595396444E+00  0.17180112786E+01  0.10566000000E+00 0. -1.
        -13    1    4    4    0    0  0.74132014820E+00  0.22628149167E+02  0.91274192343E+01  0.24411137544E+02  0.10566000000E+00 0.  1.
        -14    1    4    4    0    0  0.39260870920E+00  0.13474211520E+02  0.41158631910E+01  0.14094284214E+02  0.00000000000E+00 0.  1.
<mgrwt>
<rscale>  0 0.76494505E+02</rscale>
<asrwt>0</asrwt>
<pdfrwt beam="1">  1        1 0.71690312E-02 0.76494505E+02</pdfrwt>
<pdfrwt beam="2">  1       -2 0.48296238E-02 0.76494505E+02</pdfrwt>
<totfact> 0.14738625E+05</totfact>
</mgrwt>
</event>
<event>
 8    1  0.1319619E-024  0.7577660E+02  0.7818608E-02  0.1341483E+00
          1   -1    0    0  501    0  0.00000000000E+00  0.00000000000E+00  0.19637566390E+03  0.19637566396E+03  0.50400000000E-02 0. -1.
         -2   -1    0    0    0  501 -0.00000000000E+00 -0.00000000000E+00 -0.73100878095E+01  0.73100882543E+01  0.25500000000E-02 0.  1.
        -24    2    1    2    0    0  0.00000000000E+00  0.00000000000E+00  0.18906557609E+03  0.20368575222E+03  0.75776603213E+02 0.  0.
         66    2    3    3    0    0 -0.17598401710E+02  0.33459434966E+02  0.10016002096E+03  0.10707598859E+03  0.20000007876E+01 0.  0.
         13    1    3    3    0    0  0.17598401710E+02 -0.33459434966E+02  0.88905555129E+02  0.96609763626E+02  0.10566000000E+00 0. -1.
         13    1    4    4    0    0 -0.70378810870E+01  0.12840331380E+02  0.40479480160E+02  0.43046548737E+02  0.10566000000E+00 0. -1.
        -13    1    4    4    0    0 -0.59644797057E+01  0.11974013704E+02  0.35955054862E+02  0.38363122351E+02  0.10566000000E+00 0.  1.
         14    1    4    4    0    0 -0.45960409171E+01  0.86450898829E+01  0.23725485939E+02  0.25666317504E+02  0.00000000000E+00 0. -1.
<mgrwt>
<rscale>  0 0.75776603E+02</rscale>
<asrwt>0</asrwt>
<pdfrwt beam="1">  1        1 0.30211645E-01 0.75776603E+02</pdfrwt>
<pdfrwt beam="2">  1       -2 0.11246288E-02 0.75776603E+02</pdfrwt>
<totfact> 0.19180968E+05</totfact>
</mgrwt>
</event>
<event>
 8    1  0.1319619E-024  0.8002271E+02  0.7818608E-02  0.1328987E+00
          1   -1    0    0  501    0  0.00000000000E+00  0.00000000000E+00  0.19240463159E+03  0.19240463166E+03  0.50400000000E-02 0. -1.
         -2   -1    0    0    0  501 -0.00000000000E+00 -0.00000000000E+00 -0.83205304021E+01  0.83205307928E+01  0.25500000000E-02 0.  1.
        -24    2    1    2    0    0 -0.71054273576E-14  0.35527136788E-14  0.18408410119E+03  0.20072516245E+03  0.80022712588E+02 0.  0.
         66    2    3    3    0    0  0.24789731967E+02 -0.16952565055E+02  0.25877768593E+02  0.39693565829E+02  0.19999969665E+01 0.  0.
         13    1    3    3    0    0 -0.24789731967E+02  0.16952565055E+02  0.15820633259E+03  0.16103159662E+03  0.10566000000E+00 0. -1.
         13    1    4    4    0    0  0.33541028585E+01 -0.23329440131E+01  0.27628026030E+01  0.49332419374E+01  0.10566000000E+00 0. -1.
        -13    1    4    4    0    0  0.18312916398E+02 -0.12803199249E+02  0.19695721290E+02  0.29786195111E+02  0.10566000000E+00 0.  1.
         14    1    4    4    0    0  0.31227127110E+01 -0.18164217929E+01  0.34192447003E+01  0.49741287806E+01  0.00000000000E+00 0. -1.
<mgrwt>
<rscale>  0 0.80022713E+02</rscale>
<asrwt>0</asrwt>
<pdfrwt beam="1">  1        1 0.29600717E-01 0.80022713E+02</pdfrwt>
<pdfrwt beam="2">  1       -2 0.12800815E-02 0.80022713E+02</pdfrwt>
<totfact> 0.16536870E+05</totfact>
</mgrwt>
</event>
<event>
 8    1  0.1319619E-024  0.7848067E+02  0.7818608E-02  0.1333419E+00
         -2   -1    0    0    0  501 -0.00000000000E+00  0.00000000000E+00  0.18224689035E+02  0.18224689214E+02  0.25500000000E-02 0.  1.
          1   -1    0    0  501    0  0.00000000000E+00 -0.00000000000E+00 -0.84489997841E+02  0.84489997991E+02  0.50400000000E-02 0. -1.
        -24    2    1    2    0    0  0.00000000000E+00  0.00000000000E+00 -0.66265308806E+02  0.10271468721E+03  0.78480671611E+02 0.  0.
         66    2    3    3    0    0  0.29432294657E+02 -0.22234183291E+02 -0.15732940337E+02  0.40151516709E+02  0.20000017574E+01 0.  0.
         13    1    3    3    0    0 -0.29432294657E+02  0.22234183291E+02 -0.50532368469E+02  0.62563170496E+02  0.10566000000E+00 0. -1.
         13    1    4    4    0    0  0.29552327161E+01 -0.22306314207E+01 -0.15373525244E+01  0.40104530618E+01  0.10566000000E+00 0.  1.
        -13    1    4    4    0    0  0.12278885901E+02 -0.85991880264E+01 -0.55937156640E+01  0.16000559135E+02  0.10566000000E+00 0.  1.
        -14    1    4    4    0    0  0.14198176040E+02 -0.11404363844E+02 -0.86018721482E+01  0.20140504512E+02  0.00000000000E+00 0.  1.
<mgrwt>
<rscale>  0 0.78480672E+02</rscale>
<asrwt>0</asrwt>
<pdfrwt beam="1">  1        1 0.12998461E-01 0.78480672E+02</pdfrwt>
<pdfrwt beam="2">  1       -2 0.28037984E-02 0.78480672E+02</pdfrwt>
<totfact> 0.15058920E+05</totfact>
</mgrwt>
</event>
<event>
 8    1  0.1319619E-024  0.8142030E+02  0.7818608E-02  0.1325068E+00
          1   -1    0    0  501    0  0.00000000000E+00  0.00000000000E+00  0.19585601314E+03  0.19585601321E+03  0.50400000000E-02 0. -1.
         -2   -1    0    0    0  501 -0.00000000000E+00 -0.00000000000E+00 -0.84619110142E+01  0.84619113984E+01  0.25500000000E-02 0.  1.
        -24    2    1    2    0    0 -0.35527136788E-14  0.35527136788E-14  0.18739410213E+03  0.20431792461E+03  0.81420297240E+02 0.  0.
         66    2    3    3    0    0 -0.24618423375E+02  0.28679662153E+02  0.13153848438E+03  0.13687571981E+03  0.20000018762E+01 0.  0.
         13    1    3    3    0    0  0.24618423375E+02 -0.28679662153E+02  0.55855617744E+02  0.67442204800E+02  0.10566000000E+00 0. -1.
         13    1    4    4    0    0 -0.81747852542E+01  0.89969760189E+01  0.40650358428E+02  0.42429182125E+02  0.10566000000E+00 0.  1.
        -13    1    4    4    0    0 -0.11570013146E+02  0.13109425537E+02  0.60522270629E+02  0.62997449537E+02  0.10566000000E+00 0. -1.
         14    1    4    4    0    0 -0.48736249753E+01  0.65732605974E+01  0.30365855328E+02  0.31449088144E+02  0.00000000000E+00 0. -1.
<mgrwt>
<rscale>  0 0.81420297E+02</rscale>
<asrwt>0</asrwt>
<pdfrwt beam="1">  1        1 0.30131691E-01 0.81420297E+02</pdfrwt>
<pdfrwt beam="2">  1       -2 0.13018326E-02 0.81420297E+02</pdfrwt>
<totfact> 0.15847290E+05</totfact>
</mgrwt>
</event>
<event>
 8    1  0.1319619E-024  0.7954099E+02  0.7818608E-02  0.1330359E+00
         -2   -1    0    0    0  501 -0.00000000000E+00  0.00000000000E+00  0.28297363251E+03  0.28297363252E+03  0.25500000000E-02 0.  1.
          1   -1    0    0  501    0  0.00000000000E+00 -0.00000000000E+00 -0.55895381537E+01  0.55895404259E+01  0.50400000000E-02 0. -1.
        -24    2    1    2    0    0  0.00000000000E+00  0.00000000000E+00  0.27738409435E+03  0.28856317294E+03  0.79540989304E+02 0.  0.
         66    2    3    3    0    0 -0.17465507137E+02 -0.17125067617E+02  0.25242898142E+03  0.25361920772E+03  0.19999950613E+01 0.  0.
         13    1    3    3    0    0  0.17465507137E+02  0.17125067617E+02  0.24955112931E+02  0.34943965228E+02  0.10566000000E+00 0. -1.
         13    1    4    4    0    0 -0.16303372638E+01 -0.19927291914E+01  0.23982825861E+02  0.24120863781E+02  0.10566000000E+00 0. -1.
        -13    1    4    4    0    0 -0.94358110837E+01 -0.95493552796E+01  0.13369454329E+03  0.13436691105E+03  0.10566000000E+00 0.  1.
         14    1    4    4    0    0 -0.63993587895E+01 -0.55829831459E+01  0.94751612273E+02  0.95131432881E+02  0.00000000000E+00 0. -1.
<mgrwt>
<rscale>  0 0.79540989E+02</rscale>
<asrwt>0</asrwt>
<pdfrwt beam="1">  1        1 0.85992902E-03 0.79540989E+02</pdfrwt>
<pdfrwt beam="2">  1       -2 0.43534410E-01 0.79540989E+02</pdfrwt>
<totfact> 0.73576714E+04</totfact>
</mgrwt>
</event>
<event>
 8    1  0.1319619E-024  0.8089124E+02  0.7818608E-02  0.1326541E+00
          1   -1    0    0  501    0  0.00000000000E+00  0.00000000000E+00  0.94324147359E+02  0.94324147493E+02  0.50400000000E-02 0. -1.
         -2   -1    0    0    0  501 -0.00000000000E+00 -0.00000000000E+00 -0.17342835055E+02  0.17342835243E+02  0.25500000000E-02 0.  1.
        -24    2    1    2    0    0  0.00000000000E+00  0.00000000000E+00  0.76981312303E+02  0.11166698274E+03  0.80891239262E+02 0.  0.
         66    2    3    3    0    0  0.72435414176E+01 -0.39660297777E+02  0.42523408596E+02  0.58631462526E+02  0.20000018016E+01 0.  0.
         13    1    3    3    0    0 -0.72435414176E+01  0.39660297777E+02  0.34457903707E+02  0.53035520210E+02  0.10566000000E+00 0. -1.
         13    1    4    4    0    0  0.36126695286E+01 -0.16770778813E+02  0.17324876856E+02  0.24381815462E+02  0.10566000000E+00 0. -1.
        -13    1    4    4    0    0  0.34166212069E+01 -0.19945749949E+02  0.22289730338E+02  0.30105638742E+02  0.10566000000E+00 0.  1.
         14    1    4    4    0    0  0.21425068203E+00 -0.29437690145E+01  0.29088014025E+01  0.41440083210E+01  0.00000000000E+00 0. -1.
<mgrwt>
<rscale>  0 0.80891239E+02</rscale>
<asrwt>0</asrwt>
<pdfrwt beam="1">  1        1 0.14511407E-01 0.80891239E+02</pdfrwt>
<pdfrwt beam="2">  1       -2 0.26681285E-02 0.80891239E+02</pdfrwt>
<totfact> 0.14125746E+05</totfact>
</mgrwt>
</event>
<event>
 8    1  0.1319619E-024  0.8115149E+02  0.7818608E-02  0.1325815E+00
         -2   -1    0    0    0  501 -0.00000000000E+00  0.00000000000E+00  0.33811303400E+01  0.33811313016E+01  0.25500000000E-02 0.  1.
          1   -1    0    0  501    0  0.00000000000E+00 -0.00000000000E+00 -0.48693499856E+03  0.48693499859E+03  0.50400000000E-02 0. -1.
        -24    2    1    2    0    0  0.00000000000E+00  0.00000000000E+00 -0.48355386822E+03  0.49031612989E+03  0.81151486477E+02 0.  0.
         66    2    3    3    0    0 -0.39495184684E+02  0.78190727374E+01 -0.27113714751E+03  0.27411742056E+03  0.19999963616E+01 0.  0.
         13    1    3    3    0    0  0.39495184684E+02 -0.78190727374E+01 -0.21241672071E+03  0.21619870932E+03  0.10566000000E+00 0. -1.
         13    1    4    4    0    0 -0.25504388493E+02  0.41690766080E+01 -0.17566270343E+03  0.17755351749E+03  0.10566000000E+00 0. -1.
        -13    1    4    4    0    0 -0.79612223480E+01  0.18950830951E+01 -0.53741252477E+02  0.54360884679E+02  0.10566000000E+00 0.  1.
         14    1    4    4    0    0 -0.60295738428E+01  0.17549130343E+01 -0.41733191598E+02  0.42203018392E+02  0.00000000000E+00 0. -1.
<mgrwt>
<rscale>  0 0.81151486E+02</rscale>
<asrwt>0</asrwt>
<pdfrwt beam="1">  1        1 0.74913021E-01 0.81151486E+02</pdfrwt>
<pdfrwt beam="2">  1       -2 0.52017436E-03 0.81151486E+02</pdfrwt>
<totfact> 0.18826499E+05</totfact>
</mgrwt>
</event>
<event>
 8    1  0.1319619E-024  0.7431998E+02  0.7818608E-02  0.1345990E+00
          1   -1    0    0  501    0  0.00000000000E+00  0.00000000000E+00  0.80436407601E+01  0.80436423391E+01  0.50400000000E-02 0. -1.
         -2   -1    0    0    0  501 -0.00000000000E+00 -0.00000000000E+00 -0.17167158290E+03  0.17167158292E+03  0.25500000000E-02 0.  1.
        -24    2    1    2    0    0  0.88817841970E-15  0.00000000000E+00 -0.16362794214E+03  0.17971522526E+03  0.74319975382E+02 0.  0.
         66    2    3    3    0    0  0.49692833781E+01 -0.12324730497E+02 -0.16571855997E+03  0.16626254501E+03  0.19999987340E+01 0.  0.
         13    1    3    3    0    0 -0.49692833781E+01  0.12324730497E+02  0.20906178249E+01  0.13452680255E+02  0.10566000000E+00 0. -1.
         13    1    4    4    0    0  0.10747163320E+01 -0.28868422280E+01 -0.40407261696E+02  0.40524644786E+02  0.10566000000E+00 0. -1.
        -13    1    4    4    0    0  0.36463886858E+01 -0.71014544259E+01 -0.99612467121E+02  0.99931884678E+02  0.10566000000E+00 0.  1.
        -14    1    4    4    0    0  0.24817836032E+00 -0.23364338433E+01 -0.25698831153E+02  0.25806015543E+02  0.00000000000E+00 0.  1.
<mgrwt>
<rscale>  0 0.74319975E+02</rscale>
<asrwt>0</asrwt>
<pdfrwt beam="1">  1        1 0.12374835E-02 0.74319975E+02</pdfrwt>
<pdfrwt beam="2">  1       -2 0.26411010E-01 0.74319975E+02</pdfrwt>
<totfact> 0.10900853E+05</totfact>
</mgrwt>
</event>
<event>
 8    1  0.1319619E-024  0.7906124E+02  0.7818608E-02  0.1331737E+00
         -2   -1    0    0    0  501 -0.00000000000E+00  0.00000000000E+00  0.41035628921E+03  0.41035628922E+03  0.25500000000E-02 0.  1.
          1   -1    0    0  501    0  0.00000000000E+00 -0.00000000000E+00 -0.38080788329E+01  0.38080821681E+01  0.50400000000E-02 0. -1.
        -24    2    1    2    0    0  0.00000000000E+00  0.71054273576E-14  0.40654821037E+03  0.41416437138E+03  0.79061236802E+02 0.  0.
         66    2    3    3    0    0 -0.14372422730E+02  0.34175436407E+02  0.27487426849E+03  0.27737049315E+03  0.19999998864E+01 0.  0.
         13    1    3    3    0    0  0.14372422730E+02 -0.34175436407E+02  0.13167394188E+03  0.13679387824E+03  0.10566000000E+00 0. -1.
         13    1    4    4    0    0 -0.89433471578E+00  0.19779476929E+01  0.15296959625E+02  0.15450574405E+02  0.10566000000E+00 0.  1.
        -13    1    4    4    0    0 -0.80399994171E+01  0.21422008694E+02  0.17089223012E+03  0.17241725415E+03  0.10566000000E+00 0.  1.
        -14    1    4    4    0    0 -0.54380885966E+01  0.10775480019E+02  0.88685078747E+02  0.89502664595E+02  0.00000000000E+00 0.  1.
<mgrwt>
<rscale>  0 0.79061237E+02</rscale>
<asrwt>0</asrwt>
<pdfrwt beam="1">  1        1 0.58585857E-03 0.79061237E+02</pdfrwt>
<pdfrwt beam="2">  1       -2 0.63131734E-01 0.79061237E+02</pdfrwt>
<totfact> 0.59890665E+04</totfact>
</mgrwt>
</event>
<event>
 8    1  0.1319619E-024  0.7913572E+02  0.7818608E-02  0.1331522E+00
          1   -1    0    0  501    0  0.00000000000E+00  0.00000000000E+00  0.65498679729E+02  0.65498679923E+02  0.50400000000E-02 0. -1.
         -2   -1    0    0    0  501 -0.00000000000E+00 -0.00000000000E+00 -0.23903006316E+02  0.23903006452E+02  0.25500000000E-02 0.  1.
        -24    2    1    2    0    0  0.00000000000E+00  0.00000000000E+00  0.41595673413E+02  0.89401686375E+02  0.79135715578E+02 0.  0.
         66    2    3    3    0    0  0.50408476220E+01 -0.39211902076E+02  0.21705648551E+02  0.45145526779E+02  0.19999999997E+01 0.  0.
         13    1    3    3    0    0 -0.50408476220E+01  0.39211902076E+02  0.19890024862E+02  0.44256159596E+02  0.10566000000E+00 0. -1.
         13    1    4    4    0    0  0.14765709301E+01 -0.65452758979E+01  0.35201933606E+01  0.75778508578E+01  0.10566000000E+00 0. -1.
        -13    1    4    4    0    0  0.32701639946E+01 -0.30853620613E+02  0.16957285591E+02  0.35358175521E+02  0.10566000000E+00 0.  1.
        -14    1    4    4    0    0  0.29411269739E+00 -0.18130055646E+01  0.12281695989E+01  0.22095004005E+01  0.00000000000E+00 0.  1.
<mgrwt>
<rscale>  0 0.79135716E+02</rscale>
<asrwt>0</asrwt>
<pdfrwt beam="1">  1        1 0.10076720E-01 0.79135716E+02</pdfrwt>
<pdfrwt beam="2">  1       -2 0.36773856E-02 0.79135716E+02</pdfrwt>
<totfact> 0.14141152E+05</totfact>
</mgrwt>
</event>
<event>
 8    1  0.1319619E-024  0.7900066E+02  0.7818608E-02  0.1331912E+00
         -2   -1    0    0    0  501 -0.00000000000E+00  0.00000000000E+00  0.79979651135E+03  0.79979651136E+03  0.25500000000E-02 0.  1.
          1   -1    0    0  501    0  0.00000000000E+00 -0.00000000000E+00 -0.19508382123E+01  0.19508447228E+01  0.50400000000E-02 0. -1.
        -24    2    1    2    0    0  0.00000000000E+00  0.35527136788E-14  0.79784567314E+03  0.80174735608E+03  0.79000663489E+02 0.  0.
         66    2    3    3    0    0  0.75736642544E+01  0.29257612487E+02  0.65690128203E+03  0.65759916556E+03  0.19999855902E+01 0.  0.
         13    1    3    3    0    0 -0.75736642544E+01 -0.29257612487E+02  0.14094439111E+03  0.14414819052E+03  0.10566000000E+00 0. -1.
         13    1    4    4    0    0  0.26868116878E+01  0.10315380997E+02  0.21965074411E+03  0.21990926901E+03  0.10566000000E+00 0. -1.
        -13    1    4    4    0    0  0.17998659338E+01  0.92736535564E+01  0.21768694734E+03  0.21789185018E+03  0.10566000000E+00 0.  1.
        -14    1    4    4    0    0  0.30869866327E+01  0.96685779344E+01  0.21956359057E+03  0.21979804637E+03  0.00000000000E+00 0.  1.
<mgrwt>
<rscale>  0 0.79000663E+02</rscale>
<asrwt>0</asrwt>
<pdfrwt beam="1">  1        1 0.30012961E-03 0.79000663E+02</pdfrwt>
<pdfrwt beam="2">  1       -2 0.12304555E+00 0.79000663E+02</pdfrwt>
<totfact> 0.34330971E+04</totfact>
</mgrwt>
</event>
<event>
 8    1  0.1319619E-024  0.8027362E+02  0.7818608E-02  0.1328277E+00
         -2   -1    0    0    0  501 -0.00000000000E+00  0.00000000000E+00  0.62434692325E+01  0.62434697533E+01  0.25500000000E-02 0.  1.
          1   -1    0    0  501    0  0.00000000000E+00 -0.00000000000E+00 -0.25802375876E+03  0.25802375881E+03  0.50400000000E-02 0. -1.
        -24    2    1    2    0    0  0.00000000000E+00  0.00000000000E+00 -0.25178028953E+03  0.26426722856E+03  0.80273618939E+02 0.  0.
         66    2    3    3    0    0 -0.36017532680E+02 -0.11309258197E+02 -0.17059932974E+03  0.17473778437E+03  0.19999994133E+01 0.  0.
         13    1    3    3    0    0  0.36017532680E+02  0.11309258197E+02 -0.81180959791E+02  0.89529444196E+02  0.10566000000E+00 0. -1.
         13    1    4    4    0    0 -0.15828834550E+02 -0.55160886967E+01 -0.77558276204E+02  0.79349080710E+02  0.10566000000E+00 0. -1.
        -13    1    4    4    0    0 -0.18535201799E+02 -0.53853070732E+01 -0.86730464158E+02  0.88852348394E+02  0.10566000000E+00 0.  1.
         14    1    4    4    0    0 -0.16534963313E+01 -0.40786242693E+00 -0.63105893743E+01  0.65363552632E+01  0.00000000000E+00 0. -1.
<mgrwt>
<rscale>  0 0.80273619E+02</rscale>
<asrwt>0</asrwt>
<pdfrwt beam="1">  1        1 0.39695955E-01 0.80273619E+02</pdfrwt>
<pdfrwt beam="2">  1       -2 0.96053397E-03 0.80273619E+02</pdfrwt>
<totfact> 0.17365354E+05</totfact>
</mgrwt>
</event>
<event>
 8    1  0.1319619E-024  0.7996539E+02  0.7818608E-02  0.1329150E+00
         -2   -1    0    0    0  501 -0.00000000000E+00  0.00000000000E+00  0.76696922349E+02  0.76696922392E+02  0.25500000000E-02 0.  1.
          1   -1    0    0  501    0  0.00000000000E+00 -0.00000000000E+00 -0.20843284638E+02  0.20843285247E+02  0.50400000000E-02 0. -1.
        -24    2    1    2    0    0  0.35527136788E-14  0.35527136788E-14  0.55853637711E+02  0.97540207639E+02  0.79965387892E+02 0.  0.
         66    2    3    3    0    0  0.27466082782E+02  0.12329438278E+02  0.59990125492E+02  0.67150695520E+02  0.20000001483E+01 0.  0.
         13    1    3    3    0    0 -0.27466082782E+02 -0.12329438278E+02 -0.41364877804E+01  0.30389512119E+02  0.10566000000E+00 0. -1.
         13    1    4    4    0    0  0.16326763375E+02  0.66587300281E+01  0.35171050242E+02  0.39343561443E+02  0.10566000000E+00 0.  1.
        -13    1    4    4    0    0  0.98684146939E+01  0.50099509936E+01  0.22622253510E+02  0.25184573362E+02  0.10566000000E+00 0. -1.
        -14    1    4    4    0    0  0.12709047132E+01  0.66075725667E+00  0.21968217398E+01  0.26225607140E+01  0.00000000000E+00 0.  1.
<mgrwt>
<rscale>  0 0.79965388E+02</rscale>
<asrwt>0</asrwt>
<pdfrwt beam="1">  1        1 0.32066593E-02 0.79965388E+02</pdfrwt>
<pdfrwt beam="2">  1       -2 0.11799526E-01 0.79965388E+02</pdfrwt>
<totfact> 0.11289491E+05</totfact>
</mgrwt>
</event>
<event>
 8    1  0.1319619E-024  0.8008175E+02  0.7818608E-02  0.1328820E+00
         -2   -1    0    0    0  501 -0.00000000000E+00  0.00000000000E+00  0.14553669106E+02  0.14553669329E+02  0.25500000000E-02 0.  1.
          1   -1    0    0  501    0  0.00000000000E+00 -0.00000000000E+00 -0.11016270838E+03  0.11016270850E+03  0.50400000000E-02 0. -1.
        -24    2    1    2    0    0 -0.53290705182E-14 -0.71054273576E-14 -0.95609039277E+02  0.12471637783E+03  0.80081748899E+02 0.  0.
         66    2    3    3    0    0 -0.15723673704E+02 -0.36729269913E+02 -0.44354155534E+02  0.59729090958E+02  0.20000026124E+01 0.  0.
         13    1    3    3    0    0  0.15723673704E+02  0.36729269913E+02 -0.51254883743E+02  0.64987286869E+02  0.10566000000E+00 0. -1.
         13    1    4    4    0    0 -0.35036654300E+01 -0.64275040401E+01 -0.76606384653E+01  0.10596462870E+02  0.10566000000E+00 0.  1.
        -13    1    4    4    0    0 -0.37791308002E+01 -0.92918308195E+01 -0.11136462184E+02  0.14988392295E+02  0.10566000000E+00 0. -1.
        -14    1    4    4    0    0 -0.84408774736E+01 -0.21009935053E+02 -0.25557054884E+02  0.34144235792E+02  0.00000000000E+00 0.  1.
<mgrwt>
<rscale>  0 0.80081749E+02</rscale>
<asrwt>0</asrwt>
<pdfrwt beam="1">  1        1 0.16948108E-01 0.80081749E+02</pdfrwt>
<pdfrwt beam="2">  1       -2 0.22390261E-02 0.80081749E+02</pdfrwt>
<totfact> 0.14901895E+05</totfact>
</mgrwt>
</event>
<event>
 8    1  0.1319619E-024  0.7936286E+02  0.7818608E-02  0.1330869E+00
         -2   -1    0    0    0  501 -0.00000000000E+00  0.00000000000E+00  0.69586146590E+02  0.69586146637E+02  0.25500000000E-02 0.  1.
          1   -1    0    0  501    0  0.00000000000E+00 -0.00000000000E+00 -0.22628295223E+02  0.22628295784E+02  0.50400000000E-02 0. -1.
        -24    2    1    2    0    0  0.00000000000E+00  0.00000000000E+00  0.46957851368E+02  0.92214442421E+02  0.79362860243E+02 0.  0.
         66    2    3    3    0    0 -0.32106702594E+01 -0.25460253097E+02  0.58623400518E+02  0.64025276199E+02  0.20000032029E+01 0.  0.
         13    1    3    3    0    0  0.32106702594E+01  0.25460253097E+02 -0.11665549151E+02  0.28189166222E+02  0.10566000000E+00 0. -1.
         13    1    4    4    0    0 -0.84957302339E+00 -0.74896096128E+01  0.17634716777E+02  0.19178384351E+02  0.10566000000E+00 0. -1.
        -13    1    4    4    0    0 -0.16280433355E+01 -0.72367614465E+01  0.17791526293E+02  0.19276172162E+02  0.10566000000E+00 0.  1.
         14    1    4    4    0    0 -0.73305390054E+00 -0.10733882037E+02  0.23197157448E+02  0.25570719686E+02  0.00000000000E+00 0. -1.
<mgrwt>
<rscale>  0 0.79362860E+02</rscale>
<asrwt>0</asrwt>
<pdfrwt beam="1">  1        1 0.34812764E-02 0.79362860E+02</pdfrwt>
<pdfrwt beam="2">  1       -2 0.10705561E-01 0.79362860E+02</pdfrwt>
<totfact> 0.11740809E+05</totfact>
</mgrwt>
</event>
<event>
 8    1  0.1319619E-024  0.7907878E+02  0.7818608E-02  0.1331686E+00
          1   -1    0    0  501    0  0.00000000000E+00  0.00000000000E+00  0.14476818362E+03  0.14476818371E+03  0.50400000000E-02 0. -1.
         -2   -1    0    0    0  501 -0.00000000000E+00 -0.00000000000E+00 -0.10799080089E+02  0.10799080390E+02  0.25500000000E-02 0.  1.
        -24    2    1    2    0    0  0.00000000000E+00  0.00000000000E+00  0.13396910353E+03  0.15556726409E+03  0.79078776911E+02 0.  0.
         66    2    3    3    0    0 -0.34915377423E+02 -0.16644652931E+02  0.82915771179E+02  0.91515863175E+02  0.20000126732E+01 0.  0.
         13    1    3    3    0    0  0.34915377423E+02  0.16644652931E+02  0.51053332349E+02  0.64051400920E+02  0.10566000000E+00 0. -1.
         13    1    4    4    0    0 -0.83253735535E+01 -0.37631230433E+01  0.20928673867E+02  0.22836232039E+02  0.10566000000E+00 0.  1.
        -13    1    4    4    0    0 -0.70048977515E+01 -0.28508091825E+01  0.15372342015E+02  0.17132301905E+02  0.10566000000E+00 0. -1.
        -14    1    4    4    0    0 -0.19585106118E+02 -0.10030720705E+02  0.46614755297E+02  0.51547329231E+02  0.00000000000E+00 0.  1.
<mgrwt>
<rscale>  0 0.79078777E+02</rscale>
<asrwt>0</asrwt>
<pdfrwt beam="1">  1        1 0.22272028E-01 0.79078777E+02</pdfrwt>
<pdfrwt beam="2">  1       -2 0.16613970E-02 0.79078777E+02</pdfrwt>
<totfact> 0.16178851E+05</totfact>
</mgrwt>
</event>
<event>
 8    1  0.1319619E-024  0.7942587E+02  0.7818608E-02  0.1330689E+00
          1   -1    0    0  501    0  0.00000000000E+00  0.00000000000E+00  0.30891595130E+02  0.30891595541E+02  0.50400000000E-02 0. -1.
         -2   -1    0    0    0  501 -0.00000000000E+00 -0.00000000000E+00 -0.51053272146E+02  0.51053272209E+02  0.25500000000E-02 0.  1.
        -24    2    1    2    0    0  0.00000000000E+00  0.17763568394E-14 -0.20161677016E+02  0.81944867750E+02  0.79425865627E+02 0.  0.
         66    2    3    3    0    0  0.99472610699E+01 -0.73456167185E+01 -0.48995405232E+02  0.50571293924E+02  0.19999868938E+01 0.  0.
         13    1    3    3    0    0 -0.99472610699E+01  0.73456167185E+01  0.28833728216E+02  0.31373573826E+02  0.10566000000E+00 0. -1.
         13    1    4    4    0    0  0.77040153840E+00 -0.74276937412E+00 -0.39061111146E+01  0.40514309754E+01  0.10566000000E+00 0. -1.
        -13    1    4    4    0    0  0.17872815704E+01 -0.67081546015E+00 -0.95098956846E+01  0.97001880787E+01  0.10566000000E+00 0.  1.
        -14    1    4    4    0    0  0.73895779610E+01 -0.59320318842E+01 -0.35579398432E+02  0.36819674870E+02  0.00000000000E+00 0.  1.
<mgrwt>
<rscale>  0 0.79425866E+02</rscale>
<asrwt>0</asrwt>
<pdfrwt beam="1">  1        1 0.47525531E-02 0.79425866E+02</pdfrwt>
<pdfrwt beam="2">  1       -2 0.78543496E-02 0.79425866E+02</pdfrwt>
<totfact> 0.12410882E+05</totfact>
</mgrwt>
</event>
<event>
 8    1  0.1319619E-024  0.8010367E+02  0.7818608E-02  0.1328757E+00
         -2   -1    0    0    0  501 -0.00000000000E+00  0.00000000000E+00  0.78532479248E+02  0.78532479289E+02  0.25500000000E-02 0.  1.
          1   -1    0    0  501    0  0.00000000000E+00 -0.00000000000E+00 -0.20426572845E+02  0.20426573467E+02  0.50400000000E-02 0. -1.
        -24    2    1    2    0    0  0.17763568394E-14  0.35527136788E-14  0.58105906403E+02  0.98959052756E+02  0.80103668851E+02 0.  0.
         66    2    3    3    0    0 -0.90665170934E+01 -0.25204782760E+02  0.65815461791E+02  0.71085566886E+02  0.20000006441E+01 0.  0.
         13    1    3    3    0    0  0.90665170934E+01  0.25204782760E+02 -0.77095553882E+01  0.27873485869E+02  0.10566000000E+00 0. -1.
         13    1    4    4    0    0 -0.19793394974E+01 -0.62945628903E+01  0.17946964190E+02  0.19121819853E+02  0.10566000000E+00 0. -1.
        -13    1    4    4    0    0 -0.14825073665E+01 -0.48419749236E+01  0.12760906258E+02  0.13729327799E+02  0.10566000000E+00 0.  1.
        -14    1    4    4    0    0 -0.56046702295E+01 -0.14068244946E+02  0.35107591343E+02  0.38234419234E+02  0.00000000000E+00 0.  1.
<mgrwt>
<rscale>  0 0.80103669E+02</rscale>
<asrwt>0</asrwt>
<pdfrwt beam="1">  1        1 0.31425497E-02 0.80103669E+02</pdfrwt>
<pdfrwt beam="2">  1       -2 0.12081920E-01 0.80103669E+02</pdfrwt>
<totfact> 0.11183613E+05</totfact>
</mgrwt>
</event>
<event>
 8    1  0.1319619E-024  0.7423882E+02  0.7818608E-02  0.1346244E+00
         -2   -1    0    0    0  501 -0.00000000000E+00  0.00000000000E+00  0.89120857515E+02  0.89120857552E+02  0.25500000000E-02 0.  1.
          1   -1    0    0  501    0  0.00000000000E+00 -0.00000000000E+00 -0.15460470532E+02  0.15460471353E+02  0.50400000000E-02 0. -1.
        -24    2    1    2    0    0  0.00000000000E+00 -0.35527136788E-14  0.73660386983E+02  0.10458132891E+03  0.74238815622E+02 0.  0.
         66    2    3    3    0    0 -0.17406352772E+02 -0.30996089644E+02  0.51772398898E+02  0.62834067001E+02  0.19999995675E+01 0.  0.
         13    1    3    3    0    0  0.17406352772E+02  0.30996089644E+02  0.21887988086E+02  0.41747261904E+02  0.10566000000E+00 0. -1.
         13    1    4    4    0    0 -0.33243433061E+01 -0.72708791319E+01  0.11998893673E+02  0.14418791738E+02  0.10566000000E+00 0. -1.
        -13    1    4    4    0    0 -0.10632062863E+01 -0.21410936792E+01  0.37636336047E+01  0.44599093820E+01  0.10566000000E+00 0.  1.
        -14    1    4    4    0    0 -0.13018803179E+02 -0.21584116833E+02  0.36009871620E+02  0.43955365881E+02  0.00000000000E+00 0.  1.
<mgrwt>
<rscale>  0 0.74238816E+02</rscale>
<asrwt>0</asrwt>
<pdfrwt beam="1">  1        1 0.23785341E-02 0.74238816E+02</pdfrwt>
<pdfrwt beam="2">  1       -2 0.13710901E-01 0.74238816E+02</pdfrwt>
<totfact> 0.13199373E+05</totfact>
</mgrwt>
</event>
<event>
 8    1  0.1319619E-024  0.7884529E+02  0.7818608E-02  0.1332361E+00
          1   -1    0    0  501    0  0.00000000000E+00  0.00000000000E+00  0.26421197755E+02  0.26421198235E+02  0.50400000000E-02 0. -1.
         -2   -1    0    0    0  501 -0.00000000000E+00 -0.00000000000E+00 -0.58821888127E+02  0.58821888182E+02  0.25500000000E-02 0.  1.
        -24    2    1    2    0    0  0.00000000000E+00  0.00000000000E+00 -0.32400690372E+02  0.85243086417E+02  0.78845285499E+02 0.  0.
         66    2    3    3    0    0 -0.17633675167E+02 -0.37383833025E+01 -0.54085009152E+02  0.57044808906E+02  0.19999996609E+01 0.  0.
         13    1    3    3    0    0  0.17633675167E+02  0.37383833025E+01  0.21684318780E+02  0.28198277511E+02  0.10566000000E+00 0. -1.
         13    1    4    4    0    0 -0.64441988557E+01 -0.90299377195E+00 -0.21415258083E+02  0.22382304159E+02  0.10566000000E+00 0. -1.
        -13    1    4    4    0    0 -0.12631343176E+01 -0.33430151777E+00 -0.46571239316E+01  0.48381022270E+01  0.10566000000E+00 0.  1.
        -14    1    4    4    0    0 -0.99263419934E+01 -0.25010880128E+01 -0.28012627137E+02  0.29824402521E+02  0.00000000000E+00 0.  1.
<mgrwt>
<rscale>  0 0.78845285E+02</rscale>
<asrwt>0</asrwt>
<pdfrwt beam="1">  1        1 0.40647997E-02 0.78845285E+02</pdfrwt>
<pdfrwt beam="2">  1       -2 0.90495212E-02 0.78845285E+02</pdfrwt>
<totfact> 0.12327384E+05</totfact>
</mgrwt>
</event>
<event>
 8    1  0.1319619E-024  0.7990063E+02  0.7818608E-02  0.1329334E+00
         -2   -1    0    0    0  501 -0.00000000000E+00  0.00000000000E+00  0.62391389182E+01  0.62391394393E+01  0.25500000000E-02 0.  1.
          1   -1    0    0  501    0  0.00000000000E+00 -0.00000000000E+00 -0.25580893330E+03  0.25580893335E+03  0.50400000000E-02 0. -1.
        -24    2    1    2    0    0  0.00000000000E+00  0.00000000000E+00 -0.24956979438E+03  0.26204807279E+03  0.79900626935E+02 0.  0.
         66    2    3    3    0    0  0.34745661925E+02  0.21425795341E+01 -0.18897785675E+03  0.19216784855E+03  0.20000012020E+01 0.  0.
         13    1    3    3    0    0 -0.34745661925E+02 -0.21425795341E+01 -0.60591937630E+02  0.69880224237E+02  0.10566000000E+00 0. -1.
         13    1    4    4    0    0  0.84375253561E+01  0.37831592547E+00 -0.46750947607E+02  0.47507864857E+02  0.10566000000E+00 0.  1.
        -13    1    4    4    0    0  0.18826894782E+02  0.19950826151E+01 -0.10100769304E+03  0.10276671416E+03  0.10566000000E+00 0.  1.
        -14    1    4    4    0    0  0.74812417864E+01 -0.23081900647E+00 -0.41219216103E+02  0.41893269533E+02  0.00000000000E+00 0.  1.
<mgrwt>
<rscale>  0 0.79900627E+02</rscale>
<asrwt>0</asrwt>
<pdfrwt beam="1">  1        1 0.39355213E-01 0.79900627E+02</pdfrwt>
<pdfrwt beam="2">  1       -2 0.95986776E-03 0.79900627E+02</pdfrwt>
<totfact> 0.17550828E+05</totfact>
</mgrwt>
</event>
<event>
 8    1  0.1319619E-024  0.8086056E+02  0.7818608E-02  0.1326627E+00
          1   -1    0    0  501    0  0.00000000000E+00  0.00000000000E+00  0.79289101213E+01  0.79289117231E+01  0.50400000000E-02 0. -1.
         -2   -1    0    0    0  501 -0.00000000000E+00 -0.00000000000E+00 -0.20615786493E+03  0.20615786494E+03  0.25500000000E-02 0.  1.
        -24    2    1    2    0    0  0.00000000000E+00  0.00000000000E+00 -0.19822895481E+03  0.21408677667E+03  0.80860555402E+02 0.  0.
         66    2    3    3    0    0  0.38398307953E+01  0.28293490102E+02 -0.17486756882E+03  0.17719461758E+03  0.19999981309E+01 0.  0.
         13    1    3    3    0    0 -0.38398307953E+01 -0.28293490102E+02 -0.23361385989E+02  0.36892159086E+02  0.10566000000E+00 0. -1.
         13    1    4    4    0    0  0.18642273850E+00  0.79049205049E+00 -0.65763438415E+01  0.66271482159E+01  0.10566000000E+00 0. -1.
        -13    1    4    4    0    0  0.35681930967E+01  0.25649714033E+02 -0.15528999730E+03  0.15743453959E+03  0.10566000000E+00 0.  1.
        -14    1    4    4    0    0  0.85214960148E-01  0.18532840183E+01 -0.13001227680E+02  0.13132929773E+02  0.00000000000E+00 0.  1.
<mgrwt>
<rscale>  0 0.80860555E+02</rscale>
<asrwt>0</asrwt>
<pdfrwt beam="1">  1        1 0.12198326E-02 0.80860555E+02</pdfrwt>
<pdfrwt beam="2">  1       -2 0.31716590E-01 0.80860555E+02</pdfrwt>
<totfact> 0.81736010E+04</totfact>
</mgrwt>
</event>
<event>
 8    1  0.1319619E-024  0.7926812E+02  0.7818608E-02  0.1331141E+00
         -2   -1    0    0    0  501 -0.00000000000E+00  0.00000000000E+00  0.13344044931E+02  0.13344045175E+02  0.25500000000E-02 0.  1.
          1   -1    0    0  501    0  0.00000000000E+00 -0.00000000000E+00 -0.11771981434E+03  0.11771981445E+03  0.50400000000E-02 0. -1.
        -24    2    1    2    0    0  0.00000000000E+00  0.35527136788E-14 -0.10437576941E+03  0.13106385962E+03  0.79268115023E+02 0.  0.
         66    2    3    3    0    0  0.29684825367E+02  0.26204870482E+02 -0.53849006603E+02  0.66870020216E+02  0.19999993758E+01 0.  0.
         13    1    3    3    0    0 -0.29684825367E+02 -0.26204870482E+02 -0.50526762803E+02  0.64193839404E+02  0.10566000000E+00 0. -1.
         13    1    4    4    0    0  0.13300226750E+02  0.11691579146E+02 -0.22569272045E+02  0.28687493080E+02  0.10566000000E+00 0. -1.
        -13    1    4    4    0    0  0.66877598204E+01  0.57459760919E+01 -0.12140112133E+02  0.15004527960E+02  0.10566000000E+00 0.  1.
         14    1    4    4    0    0  0.96968387962E+01  0.87673152443E+01 -0.19139622426E+02  0.23177999177E+02  0.00000000000E+00 0. -1.
<mgrwt>
<rscale>  0 0.79268115E+02</rscale>
<asrwt>0</asrwt>
<pdfrwt beam="1">  1        1 0.18110740E-01 0.79268115E+02</pdfrwt>
<pdfrwt beam="2">  1       -2 0.20529301E-02 0.79268115E+02</pdfrwt>
<totfact> 0.15493666E+05</totfact>
</mgrwt>
</event>
<event>
 8    1  0.1319619E-024  0.7912688E+02  0.7818608E-02  0.1331548E+00
         -2   -1    0    0    0  501 -0.00000000000E+00  0.00000000000E+00  0.59327182909E+02  0.59327182964E+02  0.25500000000E-02 0.  1.
          1   -1    0    0  501    0  0.00000000000E+00 -0.00000000000E+00 -0.26383617960E+02  0.26383618441E+02  0.50400000000E-02 0. -1.
        -24    2    1    2    0    0  0.35527136788E-14  0.00000000000E+00  0.32943564949E+02  0.85710801405E+02  0.79126879162E+02 0.  0.
         66    2    3    3    0    0 -0.19281976744E+02  0.18290648301E+02  0.48191181316E+02  0.55070249659E+02  0.19999996108E+01 0.  0.
         13    1    3    3    0    0  0.19281976744E+02 -0.18290648301E+02 -0.15247616367E+02  0.30640551746E+02  0.10566000000E+00 0. -1.
         13    1    4    4    0    0 -0.93133191367E+01  0.96404546354E+01  0.24504834883E+02  0.27931601737E+02  0.10566000000E+00 0. -1.
        -13    1    4    4    0    0 -0.97624930103E+01  0.86425320173E+01  0.23271565129E+02  0.26675391976E+02  0.10566000000E+00 0.  1.
         14    1    4    4    0    0 -0.20616459702E+00  0.76616481522E-02  0.41478130311E+00  0.46325594581E+00  0.00000000000E+00 0. -1.
<mgrwt>
<rscale>  0 0.79126879E+02</rscale>
<asrwt>0</asrwt>
<pdfrwt beam="1">  1        1 0.40590183E-02 0.79126879E+02</pdfrwt>
<pdfrwt beam="2">  1       -2 0.91272587E-02 0.79126879E+02</pdfrwt>
<totfact> 0.12197562E+05</totfact>
</mgrwt>
</event>
<event>
 8    1  0.1319619E-024  0.8036555E+02  0.7818608E-02  0.1328017E+00
         -2   -1    0    0    0  501 -0.00000000000E+00  0.00000000000E+00  0.65546388977E+02  0.65546389027E+02  0.25500000000E-02 0.  1.
          1   -1    0    0  501    0  0.00000000000E+00 -0.00000000000E+00 -0.24633780338E+02  0.24633780854E+02  0.50400000000E-02 0. -1.
        -24    2    1    2    0    0  0.00000000000E+00  0.88817841970E-15  0.40912608639E+02  0.90180169881E+02  0.80365549174E+02 0.  0.
         66    2    3    3    0    0 -0.10246892482E+02 -0.65087791831E+01  0.63422831906E+02  0.64605097494E+02  0.20000008102E+01 0.  0.
         13    1    3    3    0    0  0.10246892482E+02  0.65087791831E+01 -0.22510223267E+02  0.25575072386E+02  0.10566000000E+00 0. -1.
         13    1    4    4    0    0 -0.43475534383E+01 -0.33781649989E+01  0.25211376198E+02  0.25805772097E+02  0.10566000000E+00 0. -1.
        -13    1    4    4    0    0 -0.28249458060E+01 -0.17204126983E+01  0.16873059159E+02  0.17194517384E+02  0.10566000000E+00 0.  1.
         14    1    4    4    0    0 -0.30743932382E+01 -0.14102014858E+01  0.21338396549E+02  0.21604808013E+02  0.00000000000E+00 0. -1.
<mgrwt>
<rscale>  0 0.80365549E+02</rscale>
<asrwt>0</asrwt>
<pdfrwt beam="1">  1        1 0.37898124E-02 0.80365549E+02</pdfrwt>
<pdfrwt beam="2">  1       -2 0.10084060E-01 0.80365549E+02</pdfrwt>
<totfact> 0.11507548E+05</totfact>
</mgrwt>
</event>
<event>
 8    1  0.1319619E-024  0.7786408E+02  0.7818608E-02  0.1335225E+00
          1   -1    0    0  501    0  0.00000000000E+00  0.00000000000E+00  0.18476794065E+02  0.18476794752E+02  0.50400000000E-02 0. -1.
         -2   -1    0    0    0  501 -0.00000000000E+00 -0.00000000000E+00 -0.82032826219E+02  0.82032826259E+02  0.25500000000E-02 0.  1.
        -24    2    1    2    0    0  0.00000000000E+00  0.00000000000E+00 -0.63556032154E+02  0.10050962101E+03  0.77864078320E+02 0.  0.
         66    2    3    3    0    0 -0.16551137303E+02  0.33930557967E+02 -0.43940716529E+02  0.57965588749E+02  0.19999999865E+01 0.  0.
         13    1    3    3    0    0  0.16551137303E+02 -0.33930557967E+02 -0.19615315626E+02  0.42544032262E+02  0.10566000000E+00 0. -1.
         13    1    4    4    0    0 -0.41644029116E+01  0.78560368106E+01 -0.93727288799E+01  0.12919704976E+02  0.10566000000E+00 0. -1.
        -13    1    4    4    0    0 -0.62122471981E+01  0.12004793378E+02 -0.16177683821E+02  0.21081643606E+02  0.10566000000E+00 0.  1.
        -14    1    4    4    0    0 -0.61744871933E+01  0.14069727779E+02 -0.18390303828E+02  0.23964240166E+02  0.00000000000E+00 0.  1.
<mgrwt>
<rscale>  0 0.77864078E+02</rscale>
<asrwt>0</asrwt>
<pdfrwt beam="1">  1        1 0.28425838E-02 0.77864078E+02</pdfrwt>
<pdfrwt beam="2">  1       -2 0.12620435E-01 0.77864078E+02</pdfrwt>
<totfact> 0.11908813E+05</totfact>
</mgrwt>
</event>
<event>
 8    1  0.1319619E-024  0.8083232E+02  0.7818608E-02  0.1326706E+00
          1   -1    0    0  501    0  0.00000000000E+00  0.00000000000E+00  0.56781724834E+02  0.56781725057E+02  0.50400000000E-02 0. -1.
         -2   -1    0    0    0  501 -0.00000000000E+00 -0.00000000000E+00 -0.28767461908E+02  0.28767462021E+02  0.25500000000E-02 0.  1.
        -24    2    1    2    0    0  0.00000000000E+00 -0.35527136788E-14  0.28014262926E+02  0.85549187078E+02  0.80832323253E+02 0.  0.
         66    2    3    3    0    0  0.32792432854E+02 -0.14597353080E+02 -0.55862954460E+01  0.36381768432E+02  0.20000020077E+01 0.  0.
         13    1    3    3    0    0 -0.32792432854E+02  0.14597353080E+02  0.33600558372E+02  0.49167418646E+02  0.10566000000E+00 0. -1.
         13    1    4    4    0    0  0.53582766178E+01 -0.16238609189E+01 -0.75995517648E+00  0.56512607888E+01  0.10566000000E+00 0. -1.
        -13    1    4    4    0    0  0.98918824073E+01 -0.46233085930E+01 -0.15953386873E+01  0.11035424299E+02  0.10566000000E+00 0.  1.
         14    1    4    4    0    0  0.17542273829E+02 -0.83501835679E+01 -0.32310015823E+01  0.19695083344E+02  0.00000000000E+00 0. -1.
<mgrwt>
<rscale>  0 0.80832323E+02</rscale>
<asrwt>0</asrwt>
<pdfrwt beam="1">  1        1 0.87356500E-02 0.80832323E+02</pdfrwt>
<pdfrwt beam="2">  1       -2 0.44257634E-02 0.80832323E+02</pdfrwt>
<totfact> 0.13043284E+05</totfact>
</mgrwt>
</event>
<event>
 8    1  0.1319619E-024  0.7943029E+02  0.7818608E-02  0.1330676E+00
         -2   -1    0    0    0  501 -0.00000000000E+00  0.00000000000E+00  0.19429724833E+03  0.19429724835E+03  0.25500000000E-02 0.  1.
          1   -1    0    0  501    0  0.00000000000E+00 -0.00000000000E+00 -0.81179350510E+01  0.81179366156E+01  0.50400000000E-02 0. -1.
        -24    2    1    2    0    0 -0.88817841970E-15  0.17763568394E-14  0.18617931328E+03  0.20241518496E+03  0.79430286480E+02 0.  0.
         66    2    3    3    0    0 -0.67142506601E+01  0.10290043223E+02  0.18932324051E+03  0.18973206256E+03  0.20000037651E+01 0.  0.
         13    1    3    3    0    0  0.67142506601E+01 -0.10290043223E+02 -0.31439272281E+01  0.12683122404E+02  0.10566000000E+00 0. -1.
         13    1    4    4    0    0 -0.74103905422E+00  0.81533606017E+00  0.23023648532E+02  0.23050237906E+02  0.10566000000E+00 0. -1.
        -13    1    4    4    0    0 -0.11518127749E+01  0.15384627108E+01  0.36306262168E+02  0.36357246551E+02  0.10566000000E+00 0.  1.
        -14    1    4    4    0    0 -0.48213988309E+01  0.79362444524E+01  0.12999332981E+03  0.13032457810E+03  0.00000000000E+00 0.  1.
<mgrwt>
<rscale>  0 0.79430286E+02</rscale>
<asrwt>0</asrwt>
<pdfrwt beam="1">  1        1 0.12489133E-02 0.79430286E+02</pdfrwt>
<pdfrwt beam="2">  1       -2 0.29891883E-01 0.79430286E+02</pdfrwt>
<totfact> 0.87670601E+04</totfact>
</mgrwt>
</event>
<event>
 8    1  0.1319619E-024  0.7933407E+02  0.7818608E-02  0.1330952E+00
          1   -1    0    0  501    0  0.00000000000E+00  0.00000000000E+00  0.29108535621E+01  0.29108579253E+01  0.50400000000E-02 0. -1.
         -2   -1    0    0    0  501 -0.00000000000E+00 -0.00000000000E+00 -0.54055369377E+03  0.54055369377E+03  0.25500000000E-02 0.  1.
        -24    2    1    2    0    0 -0.88817841970E-15  0.00000000000E+00 -0.53764284021E+03  0.54346455170E+03  0.79334074200E+02 0.  0.
         66    2    3    3    0    0 -0.69498739809E+01 -0.18223543575E+02 -0.50540961269E+03  0.50578975364E+03  0.19999994588E+01 0.  0.
         13    1    3    3    0    0  0.69498739809E+01  0.18223543575E+02 -0.32233227517E+02  0.37674798061E+02  0.10566000000E+00 0. -1.
         13    1    4    4    0    0 -0.18145181380E+01 -0.36139569449E+01 -0.10197107438E+03  0.10205128287E+03  0.10566000000E+00 0. -1.
        -13    1    4    4    0    0 -0.43723954894E+01 -0.11087947311E+02 -0.32100404782E+03  0.32122526410E+03  0.10566000000E+00 0.  1.
         14    1    4    4    0    0 -0.76296035340E+00 -0.35216393190E+01 -0.82434490492E+02  0.82513206668E+02  0.00000000000E+00 0. -1.
<mgrwt>
<rscale>  0 0.79334074E+02</rscale>
<asrwt>0</asrwt>
<pdfrwt beam="1">  1        1 0.44782439E-03 0.79334074E+02</pdfrwt>
<pdfrwt beam="2">  1       -2 0.83162027E-01 0.79334074E+02</pdfrwt>
<totfact> 0.48426384E+04</totfact>
</mgrwt>
</event>
<event>
 8    1  0.1319619E-024  0.7934989E+02  0.7818608E-02  0.1330907E+00
          1   -1    0    0  501    0  0.00000000000E+00  0.00000000000E+00  0.17855114601E+02  0.17855115313E+02  0.50400000000E-02 0. -1.
         -2   -1    0    0    0  501 -0.00000000000E+00 -0.00000000000E+00 -0.88159676360E+02  0.88159676397E+02  0.25500000000E-02 0.  1.
        -24    2    1    2    0    0 -0.44408920985E-15  0.00000000000E+00 -0.70304561758E+02  0.10601479171E+03  0.79349887568E+02 0.  0.
         66    2    3    3    0    0 -0.36606517849E+01  0.23557489043E+02 -0.77502855819E+02  0.81111332854E+02  0.19999989576E+01 0.  0.
         13    1    3    3    0    0  0.36606517849E+01 -0.23557489043E+02  0.71982940607E+01  0.24903458855E+02  0.10566000000E+00 0. -1.
         13    1    4    4    0    0 -0.21140430966E+00  0.42205412642E+01 -0.12101818816E+02  0.12818847181E+02  0.10566000000E+00 0. -1.
        -13    1    4    4    0    0 -0.28211902322E+00  0.23072155059E+01 -0.69806171473E+01  0.73581936864E+01  0.10566000000E+00 0.  1.
         14    1    4    4    0    0 -0.31671284520E+01  0.17029732273E+02 -0.58420419855E+02  0.60934291987E+02  0.00000000000E+00 0. -1.
<mgrwt>
<rscale>  0 0.79349888E+02</rscale>
<asrwt>0</asrwt>
<pdfrwt beam="1">  1        1 0.27469408E-02 0.79349888E+02</pdfrwt>
<pdfrwt beam="2">  1       -2 0.13563027E-01 0.79349888E+02</pdfrwt>
<totfact> 0.11167145E+05</totfact>
</mgrwt>
</event>
<event>
 8    1  0.1319619E-024  0.8009421E+02  0.7818608E-02  0.1328784E+00
         -2   -1    0    0    0  501 -0.00000000000E+00  0.00000000000E+00  0.29962366311E+02  0.29962366419E+02  0.25500000000E-02 0.  1.
          1   -1    0    0  501    0  0.00000000000E+00 -0.00000000000E+00 -0.53526159875E+02  0.53526160112E+02  0.50400000000E-02 0. -1.
        -24    2    1    2    0    0  0.00000000000E+00  0.88817841970E-15 -0.23563793564E+02  0.83488526531E+02  0.80094205129E+02 0.  0.
         66    2    3    3    0    0  0.36212387083E+02 -0.46325543561E+01  0.53060464695E+01  0.36945252413E+02  0.20000021580E+01 0.  0.
         13    1    3    3    0    0 -0.36212387083E+02  0.46325543561E+01 -0.28869840033E+02  0.46543274118E+02  0.10566000000E+00 0. -1.
         13    1    4    4    0    0  0.43421355113E+01 -0.84820975259E+00  0.43064236024E+00  0.44463712689E+01  0.10566000000E+00 0. -1.
        -13    1    4    4    0    0  0.64567328021E+01 -0.57649298160E+00  0.39934095303E+00  0.64955661699E+01  0.10566000000E+00 0.  1.
        -14    1    4    4    0    0  0.25413518769E+02 -0.32078516219E+01  0.44760631563E+01  0.26003314974E+02  0.00000000000E+00 0.  1.
<mgrwt>
<rscale>  0 0.80094205E+02</rscale>
<asrwt>0</asrwt>
<pdfrwt beam="1">  1        1 0.82347938E-02 0.80094205E+02</pdfrwt>
<pdfrwt beam="2">  1       -2 0.46095949E-02 0.80094205E+02</pdfrwt>
<totfact> 0.13255276E+05</totfact>
</mgrwt>
</event>
<event>
 8    1  0.1319619E-024  0.8045893E+02  0.7818608E-02  0.1327754E+00
          1   -1    0    0  501    0  0.00000000000E+00  0.00000000000E+00  0.63698521963E+01  0.63698541902E+01  0.50400000000E-02 0. -1.
         -2   -1    0    0    0  501 -0.00000000000E+00 -0.00000000000E+00 -0.25407332784E+03  0.25407332786E+03  0.25500000000E-02 0.  1.
        -24    2    1    2    0    0  0.00000000000E+00  0.00000000000E+00 -0.24770347565E+03  0.26044318205E+03  0.80458928820E+02 0.  0.
         66    2    3    3    0    0 -0.30993138589E+02  0.19408943261E+02 -0.17800804784E+03  0.18173647624E+03  0.19999953168E+01 0.  0.
         13    1    3    3    0    0  0.30993138589E+02 -0.19408943261E+02 -0.69695427809E+02  0.78706705811E+02  0.10566000000E+00 0. -1.
         13    1    4    4    0    0 -0.11474211869E+02  0.82355087516E+01 -0.70495065511E+02  0.71896081728E+02  0.10566000000E+00 0. -1.
        -13    1    4    4    0    0 -0.12190205325E+02  0.70231309501E+01 -0.67515652729E+02  0.68965933632E+02  0.10566000000E+00 0.  1.
         14    1    4    4    0    0 -0.73287213953E+01  0.41503035598E+01 -0.39997329598E+02  0.40874460876E+02  0.00000000000E+00 0. -1.
<mgrwt>
<rscale>  0 0.80458929E+02</rscale>
<asrwt>0</asrwt>
<pdfrwt beam="1">  1        1 0.97997762E-03 0.80458929E+02</pdfrwt>
<pdfrwt beam="2">  1       -2 0.39088196E-01 0.80458929E+02</pdfrwt>
<totfact> 0.75397434E+04</totfact>
</mgrwt>
</event>
<event>
 8    1  0.1319619E-024  0.8180810E+02  0.7818608E-02  0.1323997E+00
          1   -1    0    0  501    0  0.00000000000E+00  0.00000000000E+00  0.32287331870E+02  0.32287332263E+02  0.50400000000E-02 0. -1.
         -2   -1    0    0    0  501 -0.00000000000E+00 -0.00000000000E+00 -0.51820367318E+02  0.51820367381E+02  0.25500000000E-02 0.  1.
        -24    2    1    2    0    0  0.00000000000E+00  0.35527136788E-14 -0.19533035448E+02  0.84107699644E+02  0.81808102689E+02 0.  0.
         66    2    3    3    0    0  0.17329548101E+02  0.25892450383E+02 -0.36981415493E+02  0.48397906107E+02  0.19999998577E+01 0.  0.
         13    1    3    3    0    0 -0.17329548101E+02 -0.25892450383E+02  0.17448380044E+02  0.35709793537E+02  0.10566000000E+00 0. -1.
         13    1    4    4    0    0  0.32039843955E+01  0.45670885852E+01 -0.58681312298E+01  0.80975269260E+01  0.10566000000E+00 0. -1.
        -13    1    4    4    0    0  0.64633133805E+01  0.86126075229E+01 -0.12819932018E+02  0.16742558024E+02  0.10566000000E+00 0.  1.
         14    1    4    4    0    0  0.76622503255E+01  0.12712754275E+02 -0.18293352245E+02  0.23557821157E+02  0.00000000000E+00 0. -1.
<mgrwt>
<rscale>  0 0.81808103E+02</rscale>
<asrwt>0</asrwt>
<pdfrwt beam="1">  1        1 0.49672819E-02 0.81808103E+02</pdfrwt>
<pdfrwt beam="2">  1       -2 0.79723642E-02 0.81808103E+02</pdfrwt>
<totfact> 0.11491148E+05</totfact>
</mgrwt>
</event>
<event>
 8    1  0.1529456E-024  0.8006421E+02  0.7818608E-02  0.1328869E+00
          1   -1    0    0  501    0  0.00000000000E+00  0.00000000000E+00  0.12979919671E+03  0.12979919681E+03  0.50400000000E-02 0. -1.
         -2   -1    0    0    0  501 -0.00000000000E+00 -0.00000000000E+00 -0.12346527684E+02  0.12346527948E+02  0.25500000000E-02 0.  1.
        -24    2    1    2    0    0  0.35527136788E-14  0.00000000000E+00  0.11745266902E+03  0.14214572475E+03  0.80064209264E+02 0.  0.
         66    2    3    3    0    0  0.19475414423E+02 -0.96004172064E+01 -0.89427005684E+00  0.21823370508E+02  0.20000009720E+01 0.  0.
         13    1    3    3    0    0 -0.19475414423E+02  0.96004172064E+01  0.11834693908E+03  0.12032235425E+03  0.10566000000E+00 0. -1.
         13    1    4    4    0    0  0.15855938418E+01 -0.66645081668E+00  0.27834755979E+00  0.17455388629E+01  0.10566000000E+00 0. -1.
        -13    1    4    4    0    0  0.60538976987E+00 -0.14374746363E+00 -0.20068194118E+00  0.66226685247E+00  0.10566000000E+00 0.  1.
        -14    1    4    4    0    0  0.17284430812E+02 -0.87902189261E+01 -0.97193567545E+00  0.19415564793E+02  0.00000000000E+00 0.  1.
<mgrwt>
<rscale>  0 0.80064209E+02</rscale>
<asrwt>0</asrwt>
<pdfrwt beam="1">  1        1 0.19969108E-01 0.80064209E+02</pdfrwt>
<pdfrwt beam="2">  1       -2 0.18994657E-02 0.80064209E+02</pdfrwt>
<totfact> 0.15345770E+05</totfact>
</mgrwt>
</event>
<event>
 8    1  0.1319619E-024  0.8229657E+02  0.7818608E-02  0.1322658E+00
         -2   -1    0    0    0  501 -0.00000000000E+00  0.00000000000E+00  0.71476693716E+02  0.71476693762E+02  0.25500000000E-02 0.  1.
          1   -1    0    0  501    0  0.00000000000E+00 -0.00000000000E+00 -0.23688578423E+02  0.23688578959E+02  0.50400000000E-02 0. -1.
        -24    2    1    2    0    0  0.00000000000E+00  0.00000000000E+00  0.47788115293E+02  0.95165272720E+02  0.82296568389E+02 0.  0.
         66    2    3    3    0    0  0.19133495001E+02  0.29068931421E+02  0.49245112374E+02  0.60333858603E+02  0.19999990476E+01 0.  0.
         13    1    3    3    0    0 -0.19133495001E+02 -0.29068931421E+02 -0.14569970810E+01  0.34831414118E+02  0.10566000000E+00 0. -1.
         13    1    4    4    0    0  0.13161984921E+01  0.29378639218E+01  0.47701061674E+01  0.57557362499E+01  0.10566000000E+00 0.  1.
        -13    1    4    4    0    0  0.74105990096E+01  0.10467059835E+02  0.18428355321E+02  0.22451987955E+02  0.10566000000E+00 0. -1.
        -14    1    4    4    0    0  0.10406697500E+02  0.15664007664E+02  0.26046650886E+02  0.32126134398E+02  0.00000000000E+00 0.  1.
<mgrwt>
<rscale>  0 0.82296568E+02</rscale>
<asrwt>0</asrwt>
<pdfrwt beam="1">  1        1 0.36443968E-02 0.82296568E+02</pdfrwt>
<pdfrwt beam="2">  1       -2 0.10996414E-01 0.82296568E+02</pdfrwt>
<totfact> 0.10648349E+05</totfact>
</mgrwt>
</event>
<event>
 8    1  0.1319619E-024  0.8207250E+02  0.7818608E-02  0.1323271E+00
         -2   -1    0    0    0  501 -0.00000000000E+00  0.00000000000E+00  0.13128422097E+02  0.13128422345E+02  0.25500000000E-02 0.  1.
          1   -1    0    0  501    0  0.00000000000E+00 -0.00000000000E+00 -0.12826933443E+03  0.12826933453E+03  0.50400000000E-02 0. -1.
        -24    2    1    2    0    0  0.00000000000E+00 -0.35527136788E-14 -0.11514091234E+03  0.14139775688E+03  0.82072504265E+02 0.  0.
         66    2    3    3    0    0 -0.22975240197E+02 -0.25172845252E+02 -0.18301324893E+02  0.38735930183E+02  0.19999985159E+01 0.  0.
         13    1    3    3    0    0  0.22975240197E+02  0.25172845252E+02 -0.96839587442E+02  0.10266182669E+03  0.10566000000E+00 0. -1.
         13    1    4    4    0    0 -0.46786234323E+00 -0.23753181451E+00 -0.35486712896E+00  0.64219253338E+00  0.10566000000E+00 0. -1.
        -13    1    4    4    0    0 -0.62773607635E+01 -0.64495091591E+01 -0.49497069772E+01  0.10271912662E+02  0.10566000000E+00 0.  1.
         14    1    4    4    0    0 -0.16230017091E+02 -0.18485804278E+02 -0.12996750787E+02  0.27821824987E+02  0.00000000000E+00 0. -1.
<mgrwt>
<rscale>  0 0.82072504E+02</rscale>
<asrwt>0</asrwt>
<pdfrwt beam="1">  1        1 0.19733743E-01 0.82072504E+02</pdfrwt>
<pdfrwt beam="2">  1       -2 0.20197574E-02 0.82072504E+02</pdfrwt>
<totfact> 0.14327072E+05</totfact>
</mgrwt>
</event>
<event>
 8    1  0.1319619E-024  0.8212531E+02  0.7818608E-02  0.1323126E+00
         -2   -1    0    0    0  501 -0.00000000000E+00  0.00000000000E+00  0.15728095811E+02  0.15728096018E+02  0.25500000000E-02 0.  1.
          1   -1    0    0  501    0  0.00000000000E+00 -0.00000000000E+00 -0.10720571515E+03  0.10720571527E+03  0.50400000000E-02 0. -1.
        -24    2    1    2    0    0  0.00000000000E+00  0.00000000000E+00 -0.91477619339E+02  0.12293381129E+03  0.82125313501E+02 0.  0.
         66    2    3    3    0    0 -0.29766304784E+02  0.27946021588E+02 -0.39571540645E+02  0.56893935511E+02  0.20000114619E+01 0.  0.
         13    1    3    3    0    0  0.29766304784E+02 -0.27946021588E+02 -0.51906078694E+02  0.66039875776E+02  0.10566000000E+00 0. -1.
         13    1    4    4    0    0 -0.91296443599E+01  0.93364642918E+01 -0.13222307765E+02  0.18583878989E+02  0.10566000000E+00 0. -1.
        -13    1    4    4    0    0 -0.15831779366E+02  0.14228177406E+02 -0.20803721212E+02  0.29763942119E+02  0.10566000000E+00 0.  1.
         14    1    4    4    0    0 -0.48048810581E+01  0.43813798902E+01 -0.55455116682E+01  0.85461144028E+01  0.00000000000E+00 0. -1.
<mgrwt>
<rscale>  0 0.82125314E+02</rscale>
<asrwt>0</asrwt>
<pdfrwt beam="1">  1        1 0.16493187E-01 0.82125314E+02</pdfrwt>
<pdfrwt beam="2">  1       -2 0.24197071E-02 0.82125314E+02</pdfrwt>
<totfact> 0.13856438E+05</totfact>
</mgrwt>
</event>
<event>
 8    1  0.1319619E-024  0.8088105E+02  0.7818608E-02  0.1326570E+00
         -2   -1    0    0    0  501 -0.00000000000E+00  0.00000000000E+00  0.12008230276E+03  0.12008230278E+03  0.25500000000E-02 0.  1.
          1   -1    0    0  501    0  0.00000000000E+00 -0.00000000000E+00 -0.13619291238E+02  0.13619292171E+02  0.50400000000E-02 0. -1.
        -24    2    1    2    0    0  0.00000000000E+00  0.00000000000E+00  0.10646301152E+03  0.13370159495E+03  0.80881046431E+02 0.  0.
         66    2    3    3    0    0  0.23681735290E+02 -0.68348526037E+01  0.10621085530E+03  0.10905175635E+03  0.19999959804E+01 0.  0.
         13    1    3    3    0    0 -0.23681735290E+02  0.68348526037E+01  0.25215622317E+00  0.24649838605E+02  0.10566000000E+00 0. -1.
         13    1    4    4    0    0  0.10641010499E+02 -0.27061232077E+01  0.46041678657E+02  0.47332880167E+02  0.10566000000E+00 0. -1.
        -13    1    4    4    0    0  0.58038599253E+01 -0.22098465112E+01  0.29800786744E+02  0.30441193574E+02  0.10566000000E+00 0.  1.
        -14    1    4    4    0    0  0.72368648654E+01 -0.19188828848E+01  0.30368389895E+02  0.31277682609E+02  0.00000000000E+00 0.  1.
<mgrwt>
<rscale>  0 0.80881046E+02</rscale>
<asrwt>0</asrwt>
<pdfrwt beam="1">  1        1 0.20952757E-02 0.80881046E+02</pdfrwt>
<pdfrwt beam="2">  1       -2 0.18474200E-01 0.80881046E+02</pdfrwt>
<totfact> 0.98321662E+04</totfact>
</mgrwt>
</event>
<event>
 8    1  0.1319619E-024  0.7986912E+02  0.7818608E-02  0.1329423E+00
         -2   -1    0    0    0  501 -0.00000000000E+00  0.00000000000E+00  0.73561256631E+03  0.73561256632E+03  0.25500000000E-02 0.  1.
          1   -1    0    0  501    0  0.00000000000E+00 -0.00000000000E+00 -0.21679442353E+01  0.21679500937E+01  0.50400000000E-02 0. -1.
        -24    2    1    2    0    0  0.00000000000E+00  0.00000000000E+00  0.73344462208E+03  0.73778051641E+03  0.79869122576E+02 0.  0.
         66    2    3    3    0    0  0.32773316101E+02 -0.31253959637E+01  0.57533688629E+03  0.57628152067E+03  0.19999954658E+01 0.  0.
         13    1    3    3    0    0 -0.32773316101E+02  0.31253959637E+01  0.15810773578E+03  0.16149899574E+03  0.10566000000E+00 0. -1.
         13    1    4    4    0    0  0.20867369662E+01 -0.65148039570E-01  0.30388808346E+02  0.30460622977E+02  0.10566000000E+00 0. -1.
        -13    1    4    4    0    0  0.25040245353E+02 -0.28851226016E+01  0.44552808563E+03  0.44624054508E+03  0.10566000000E+00 0.  1.
         14    1    4    4    0    0  0.56463337813E+01 -0.17512532255E+00  0.99419992314E+02  0.99580352609E+02  0.00000000000E+00 0. -1.
<mgrwt>
<rscale>  0 0.79869123E+02</rscale>
<asrwt>0</asrwt>
<pdfrwt beam="1">  1        1 0.33353023E-03 0.79869123E+02</pdfrwt>
<pdfrwt beam="2">  1       -2 0.11317120E+00 0.79869123E+02</pdfrwt>
<totfact> 0.36252050E+04</totfact>
</mgrwt>
</event>
<event>
 8    1  0.1319619E-024  0.8023803E+02  0.7818608E-02  0.1328377E+00
         -2   -1    0    0    0  501 -0.00000000000E+00  0.00000000000E+00  0.11889013746E+02  0.11889014019E+02  0.25500000000E-02 0.  1.
          1   -1    0    0  501    0  0.00000000000E+00 -0.00000000000E+00 -0.13538006997E+03  0.13538007007E+03  0.50400000000E-02 0. -1.
        -24    2    1    2    0    0  0.00000000000E+00  0.00000000000E+00 -0.12349105623E+03  0.14726908408E+03  0.80238034368E+02 0.  0.
         66    2    3    3    0    0  0.14039511679E+02 -0.33438971801E+02 -0.30406567974E+02  0.47369104903E+02  0.20000000241E+01 0.  0.
         13    1    3    3    0    0 -0.14039511679E+02  0.33438971801E+02 -0.93084488252E+02  0.99899979181E+02  0.10566000000E+00 0. -1.
         13    1    4    4    0    0  0.31349364434E+01 -0.89263055499E+01 -0.77770022909E+01  0.12247435893E+02  0.10566000000E+00 0. -1.
        -13    1    4    4    0    0  0.65783925046E+01 -0.15963317419E+02 -0.14048630285E+02  0.22259333500E+02  0.10566000000E+00 0.  1.
         14    1    4    4    0    0  0.43261827307E+01 -0.85493488324E+01 -0.85809353984E+01  0.12862335511E+02  0.00000000000E+00 0. -1.
<mgrwt>
<rscale>  0 0.80238034E+02</rscale>
<asrwt>0</asrwt>
<pdfrwt beam="1">  1        1 0.20827702E-01 0.80238034E+02</pdfrwt>
<pdfrwt beam="2">  1       -2 0.18290792E-02 0.80238034E+02</pdfrwt>
<totfact> 0.15372751E+05</totfact>
</mgrwt>
</event>
<event>
 8    1  0.1319619E-024  0.8048798E+02  0.7818608E-02  0.1327672E+00
          1   -1    0    0  501    0  0.00000000000E+00  0.00000000000E+00  0.34287849201E+03  0.34287849204E+03  0.50400000000E-02 0. -1.
         -2   -1    0    0    0  501 -0.00000000000E+00 -0.00000000000E+00 -0.47234773657E+01  0.47234780540E+01  0.25500000000E-02 0.  1.
        -24    2    1    2    0    0  0.00000000000E+00  0.00000000000E+00  0.33815501464E+03  0.34760197010E+03  0.80487984749E+02 0.  0.
         66    2    3    3    0    0  0.38812491738E+02 -0.99063751367E+01  0.18476970141E+03  0.18907244206E+03  0.20000003233E+01 0.  0.
         13    1    3    3    0    0 -0.38812491738E+02  0.99063751367E+01  0.15338531323E+03  0.15852952804E+03  0.10566000000E+00 0. -1.
         13    1    4    4    0    0  0.91036590799E+01 -0.28125880717E+01  0.44797782291E+02  0.45799996971E+02  0.10566000000E+00 0. -1.
        -13    1    4    4    0    0  0.29264552799E+00 -0.14621046007E+00  0.19052460199E+01  0.19360127416E+01  0.10566000000E+00 0.  1.
        -14    1    4    4    0    0  0.29416187130E+02 -0.69475766049E+01  0.13806667310E+03  0.14133643234E+03  0.00000000000E+00 0.  1.
<mgrwt>
<rscale>  0 0.80487985E+02</rscale>
<asrwt>0</asrwt>
<pdfrwt beam="1">  1        1 0.52750524E-01 0.80487985E+02</pdfrwt>
<pdfrwt beam="2">  1       -2 0.72668907E-03 0.80487985E+02</pdfrwt>
<totfact> 0.18201314E+05</totfact>
</mgrwt>
</event>
<event>
 8    1  0.1319619E-024  0.7870968E+02  0.7818608E-02  0.1332754E+00
          1   -1    0    0  501    0  0.00000000000E+00  0.00000000000E+00  0.14903678248E+03  0.14903678257E+03  0.50400000000E-02 0. -1.
         -2   -1    0    0    0  501 -0.00000000000E+00 -0.00000000000E+00 -0.10392088936E+02  0.10392089249E+02  0.25500000000E-02 0.  1.
        -24    2    1    2    0    0  0.00000000000E+00  0.00000000000E+00  0.13864469354E+03  0.15942887182E+03  0.78709682506E+02 0.  0.
         66    2    3    3    0    0  0.17305068449E+02 -0.21323826626E+02  0.12340914454E+02  0.30173981182E+02  0.19999987089E+01 0.  0.
         13    1    3    3    0    0 -0.17305068449E+02  0.21323826626E+02  0.12630377909E+03  0.12925489063E+03  0.10566000000E+00 0. -1.
         13    1    4    4    0    0  0.81716841754E+00 -0.89249570282E+00  0.77649266739E+00  0.14416718421E+01  0.10566000000E+00 0. -1.
        -13    1    4    4    0    0  0.48648956669E+01 -0.49929882290E+01  0.28008852345E+01  0.75135386761E+01  0.10566000000E+00 0.  1.
        -14    1    4    4    0    0  0.11623004365E+02 -0.15438342694E+02  0.87635365524E+01  0.21218770664E+02  0.00000000000E+00 0.  1.
<mgrwt>
<rscale>  0 0.78709683E+02</rscale>
<asrwt>0</asrwt>
<pdfrwt beam="1">  1        1 0.22928734E-01 0.78709683E+02</pdfrwt>
<pdfrwt beam="2">  1       -2 0.15987830E-02 0.78709683E+02</pdfrwt>
<totfact> 0.16469407E+05</totfact>
</mgrwt>
</event>
<event>
 8    1  0.1319619E-024  0.8506461E+02  0.7818608E-02  0.1315264E+00
         -2   -1    0    0    0  501 -0.00000000000E+00  0.00000000000E+00  0.20915094349E+02  0.20915094504E+02  0.25500000000E-02 0.  1.
          1   -1    0    0  501    0  0.00000000000E+00 -0.00000000000E+00 -0.86492414719E+02  0.86492414866E+02  0.50400000000E-02 0. -1.
        -24    2    1    2    0    0  0.71054273576E-14  0.00000000000E+00 -0.65577320370E+02  0.10740750937E+03  0.85064611455E+02 0.  0.
         66    2    3    3    0    0  0.33918587224E+02  0.45438598569E+01 -0.96684761579E+00  0.34293614827E+02  0.20000004752E+01 0.  0.
         13    1    3    3    0    0 -0.33918587224E+02 -0.45438598569E+01 -0.64610472754E+02  0.73113894543E+02  0.10566000000E+00 0. -1.
         13    1    4    4    0    0  0.34557747023E+01  0.87849096593E+00 -0.26240088894E+00  0.35768901902E+01  0.10566000000E+00 0. -1.
        -13    1    4    4    0    0  0.81888558805E+01  0.62071562353E+00 -0.60705755747E+00  0.82354314660E+01  0.10566000000E+00 0.  1.
        -14    1    4    4    0    0  0.22273956641E+02  0.30446532674E+01 -0.97389169372E-01  0.22481293170E+02  0.00000000000E+00 0.  1.
<mgrwt>
<rscale>  0 0.85064611E+02</rscale>
<asrwt>0</asrwt>
<pdfrwt beam="1">  1        1 0.13306525E-01 0.85064611E+02</pdfrwt>
<pdfrwt beam="2">  1       -2 0.32177069E-02 0.85064611E+02</pdfrwt>
<totfact> 0.12137481E+05</totfact>
</mgrwt>
</event>
<event>
 8    1  0.1319619E-024  0.8018833E+02  0.7818608E-02  0.1328518E+00
          1   -1    0    0  501    0  0.00000000000E+00  0.00000000000E+00  0.28271804614E+02  0.28271805063E+02  0.50400000000E-02 0. -1.
         -2   -1    0    0    0  501 -0.00000000000E+00 -0.00000000000E+00 -0.56860253136E+02  0.56860253193E+02  0.25500000000E-02 0.  1.
        -24    2    1    2    0    0  0.00000000000E+00  0.35527136788E-14 -0.28588448523E+02  0.85132058256E+02  0.80188328041E+02 0.  0.
         66    2    3    3    0    0  0.19089935783E+02 -0.23072545207E+02 -0.42567138208E+02  0.52083867385E+02  0.19999990103E+01 0.  0.
         13    1    3    3    0    0 -0.19089935783E+02  0.23072545207E+02  0.13978689685E+02  0.33048190871E+02  0.10566000000E+00 0. -1.
         13    1    4    4    0    0  0.90623760234E+00 -0.71024016798E+00 -0.14533252828E+01  0.18571553789E+01  0.10566000000E+00 0. -1.
        -13    1    4    4    0    0  0.17974290293E+02 -0.22142923922E+02 -0.40413868688E+02  0.49463887208E+02  0.10566000000E+00 0.  1.
        -14    1    4    4    0    0  0.20940788740E+00 -0.21938111768E+00 -0.69994423640E+00  0.76282479782E+00  0.00000000000E+00 0.  1.
<mgrwt>
<rscale>  0 0.80188328E+02</rscale>
<asrwt>0</asrwt>
<pdfrwt beam="1">  1        1 0.43495085E-02 0.80188328E+02</pdfrwt>
<pdfrwt beam="2">  1       -2 0.87477312E-02 0.80188328E+02</pdfrwt>
<totfact> 0.11885920E+05</totfact>
</mgrwt>
</event>
<event>
 8    1  0.1319619E-024  0.7183172E+02  0.7818608E-02  0.1353973E+00
          1   -1    0    0  501    0  0.00000000000E+00  0.00000000000E+00  0.18697392260E+03  0.18697392267E+03  0.50400000000E-02 0. -1.
         -2   -1    0    0    0  501 -0.00000000000E+00 -0.00000000000E+00 -0.68990844063E+01  0.68990848776E+01  0.25500000000E-02 0.  1.
        -24    2    1    2    0    0  0.00000000000E+00  0.00000000000E+00  0.18007483819E+03  0.19387300755E+03  0.71831717954E+02 0.  0.
         66    2    3    3    0    0  0.24213100042E+02 -0.26243730351E+02  0.80399469799E+02  0.87994785871E+02  0.20000000334E+01 0.  0.
         13    1    3    3    0    0 -0.24213100042E+02  0.26243730351E+02  0.99675368394E+02  0.10587822167E+03  0.10566000000E+00 0. -1.
         13    1    4    4    0    0  0.11980748191E+01 -0.18887953055E+01  0.51175819937E+01  0.55860308338E+01  0.10566000000E+00 0. -1.
        -13    1    4    4    0    0  0.18309294182E+02 -0.19936464471E+02  0.60663202862E+02  0.66428369049E+02  0.10566000000E+00 0.  1.
        -14    1    4    4    0    0  0.47057310407E+01 -0.44184705738E+01  0.14618684944E+02  0.15980385988E+02  0.00000000000E+00 0.  1.
<mgrwt>
<rscale>  0 0.71831718E+02</rscale>
<asrwt>0</asrwt>
<pdfrwt beam="1">  1        1 0.28765219E-01 0.71831718E+02</pdfrwt>
<pdfrwt beam="2">  1       -2 0.10613976E-02 0.71831718E+02</pdfrwt>
<totfact> 0.21872273E+05</totfact>
</mgrwt>
</event>
<event>
 8    1  0.1319619E-024  0.8430260E+02  0.7818608E-02  0.1317266E+00
         -2   -1    0    0    0  501 -0.00000000000E+00  0.00000000000E+00  0.11700202000E+02  0.11700202277E+02  0.25500000000E-02 0.  1.
          1   -1    0    0  501    0  0.00000000000E+00 -0.00000000000E+00 -0.15185481104E+03  0.15185481113E+03  0.50400000000E-02 0. -1.
        -24    2    1    2    0    0  0.17763568394E-14  0.00000000000E+00 -0.14015460904E+03  0.16355501340E+03  0.84302597667E+02 0.  0.
         66    2    3    3    0    0 -0.11584300432E+02 -0.34249400030E+02 -0.28167970702E+02  0.45876486264E+02  0.19999998719E+01 0.  0.
         13    1    3    3    0    0  0.11584300432E+02  0.34249400030E+02 -0.11198663834E+03  0.11767852714E+03  0.10566000000E+00 0. -1.
         13    1    4    4    0    0 -0.15668220066E+01 -0.54588717420E+01 -0.49679749123E+01  0.75462673330E+01  0.10566000000E+00 0. -1.
        -13    1    4    4    0    0 -0.59424303535E+01 -0.16703649545E+02 -0.14283014507E+02  0.22767082687E+02  0.10566000000E+00 0.  1.
        -14    1    4    4    0    0 -0.40750480718E+01 -0.12086878744E+02 -0.89169812828E+01  0.15563136244E+02  0.00000000000E+00 0.  1.
<mgrwt>
<rscale>  0 0.84302598E+02</rscale>
<asrwt>0</asrwt>
<pdfrwt beam="1">  1        1 0.23362277E-01 0.84302598E+02</pdfrwt>
<pdfrwt beam="2">  1       -2 0.18000312E-02 0.84302598E+02</pdfrwt>
<totfact> 0.13751893E+05</totfact>
</mgrwt>
</event>
<event>
 8    1  0.1319619E-024  0.6979046E+02  0.7818608E-02  0.1360807E+00
          1   -1    0    0  501    0  0.00000000000E+00  0.00000000000E+00  0.11947473172E+03  0.11947473182E+03  0.50400000000E-02 0. -1.
         -2   -1    0    0    0  501 -0.00000000000E+00 -0.00000000000E+00 -0.10191921749E+02  0.10191922068E+02  0.25500000000E-02 0.  1.
        -24    2    1    2    0    0  0.00000000000E+00  0.00000000000E+00  0.10928280997E+03  0.12966665389E+03  0.69790461934E+02 0.  0.
         66    2    3    3    0    0  0.32237497276E+02  0.12099901854E+02  0.44508339320E+02  0.56308579576E+02  0.20000023311E+01 0.  0.
         13    1    3    3    0    0 -0.32237497276E+02 -0.12099901854E+02  0.64774470649E+02  0.73358074316E+02  0.10566000000E+00 0. -1.
         13    1    4    4    0    0  0.17088293158E+02  0.55493475448E+01  0.23835105324E+02  0.29848424264E+02  0.10566000000E+00 0. -1.
        -13    1    4    4    0    0  0.13230295270E+02  0.58979658040E+01  0.18291315454E+02  0.23332597340E+02  0.10566000000E+00 0.  1.
         14    1    4    4    0    0  0.19189088478E+01  0.65258850568E+00  0.23819185427E+01  0.31275579719E+01  0.00000000000E+00 0. -1.
<mgrwt>
<rscale>  0 0.69790462E+02</rscale>
<asrwt>0</asrwt>
<pdfrwt beam="1">  1        1 0.18380728E-01 0.69790462E+02</pdfrwt>
<pdfrwt beam="2">  1       -2 0.15679880E-02 0.69790462E+02</pdfrwt>
<totfact> 0.21797865E+05</totfact>
</mgrwt>
</event>
<event>
 8    1  0.1319619E-024  0.8058951E+02  0.7818608E-02  0.1327387E+00
         -2   -1    0    0    0  501 -0.00000000000E+00  0.00000000000E+00  0.89733513074E+02  0.89733513110E+02  0.25500000000E-02 0.  1.
          1   -1    0    0  501    0  0.00000000000E+00 -0.00000000000E+00 -0.18094323399E+02  0.18094324101E+02  0.50400000000E-02 0. -1.
        -24    2    1    2    0    0  0.00000000000E+00  0.88817841970E-15  0.71639189675E+02  0.10782783721E+03  0.80589509120E+02 0.  0.
         66    2    3    3    0    0 -0.16875418985E+02  0.64274178547E+01  0.84001204194E+02  0.85943549851E+02  0.19999971884E+01 0.  0.
         13    1    3    3    0    0  0.16875418985E+02 -0.64274178547E+01 -0.12362014519E+02  0.21884287359E+02  0.10566000000E+00 0. -1.
         13    1    4    4    0    0 -0.34707106677E+00  0.83020977104E-01  0.20603027065E+01  0.20936480330E+01  0.10566000000E+00 0.  1.
        -13    1    4    4    0    0 -0.77793457229E+00  0.43969381245E-01  0.49699743619E+01  0.50317914006E+01  0.10566000000E+00 0.  1.
        -14    1    4    4    0    0 -0.15750413346E+02  0.63004274963E+01  0.76970927126E+02  0.78818110418E+02  0.00000000000E+00 0.  1.
<mgrwt>
<rscale>  0 0.80589509E+02</rscale>
<asrwt>0</asrwt>
<pdfrwt beam="1">  1        1 0.27837421E-02 0.80589509E+02</pdfrwt>
<pdfrwt beam="2">  1       -2 0.13805156E-01 0.80589509E+02</pdfrwt>
<totfact> 0.10689960E+05</totfact>
</mgrwt>
</event>
<event>
 8    1  0.1319619E-024  0.8480250E+02  0.7818608E-02  0.1315950E+00
          1   -1    0    0  501    0  0.00000000000E+00  0.00000000000E+00  0.18193559814E+02  0.18193560512E+02  0.50400000000E-02 0. -1.
         -2   -1    0    0    0  501 -0.00000000000E+00 -0.00000000000E+00 -0.98818810870E+02  0.98818810903E+02  0.25500000000E-02 0.  1.
        -24    2    1    2    0    0  0.00000000000E+00  0.00000000000E+00 -0.80625251056E+02  0.11701237142E+03  0.84802499706E+02 0.  0.
         66    2    3    3    0    0 -0.40275994914E+02 -0.13157499241E+02 -0.41390704959E+02  0.59266061368E+02  0.20000051067E+01 0.  0.
         13    1    3    3    0    0  0.40275994914E+02  0.13157499241E+02 -0.39234546097E+02  0.57746310048E+02  0.10566000000E+00 0. -1.
         13    1    4    4    0    0 -0.19631931152E+02 -0.67942428574E+01 -0.19472023283E+02  0.28473589720E+02  0.10566000000E+00 0. -1.
        -13    1    4    4    0    0 -0.14656796542E+02 -0.42003845364E+01 -0.14945370197E+02  0.21350413801E+02  0.10566000000E+00 0.  1.
         14    1    4    4    0    0 -0.59872672203E+01 -0.21628718468E+01 -0.69733114797E+01  0.94420578470E+01  0.00000000000E+00 0. -1.
<mgrwt>
<rscale>  0 0.84802500E+02</rscale>
<asrwt>0</asrwt>
<pdfrwt beam="1">  1        1 0.27990093E-02 0.84802500E+02</pdfrwt>
<pdfrwt beam="2">  1       -2 0.15202894E-01 0.84802500E+02</pdfrwt>
<totfact> 0.91674379E+04</totfact>
</mgrwt>
</event>
<event>
 8    1  0.1319619E-024  0.7922287E+02  0.7818608E-02  0.1331271E+00
          1   -1    0    0  501    0  0.00000000000E+00  0.00000000000E+00  0.15110792997E+03  0.15110793006E+03  0.50400000000E-02 0. -1.
         -2   -1    0    0    0  501 -0.00000000000E+00 -0.00000000000E+00 -0.10383741962E+02  0.10383742275E+02  0.25500000000E-02 0.  1.
        -24    2    1    2    0    0  0.00000000000E+00  0.00000000000E+00  0.14072418801E+03  0.16149167233E+03  0.79222870064E+02 0.  0.
         66    2    3    3    0    0  0.10924413631E+02  0.24724868085E+02  0.11453760231E+02  0.29425338327E+02  0.19999993068E+01 0.  0.
         13    1    3    3    0    0 -0.10924413631E+02 -0.24724868085E+02  0.12927042778E+03  0.13206633400E+03  0.10566000000E+00 0. -1.
         13    1    4    4    0    0  0.37795815739E+00  0.17206503714E+01  0.50681248100E+00  0.18361680195E+01  0.10566000000E+00 0. -1.
        -13    1    4    4    0    0  0.80613898912E+01  0.16671575806E+02  0.81948370192E+01  0.20250776890E+02  0.10566000000E+00 0.  1.
        -14    1    4    4    0    0  0.24850655826E+01  0.63326419072E+01  0.27521107304E+01  0.73383934173E+01  0.00000000000E+00 0.  1.
<mgrwt>
<rscale>  0 0.79222870E+02</rscale>
<asrwt>0</asrwt>
<pdfrwt beam="1">  1        1 0.23247374E-01 0.79222870E+02</pdfrwt>
<pdfrwt beam="2">  1       -2 0.15974988E-02 0.79222870E+02</pdfrwt>
<totfact> 0.16227403E+05</totfact>
</mgrwt>
</event>
<event>
 8    1  0.1319619E-024  0.7929393E+02  0.7818608E-02  0.1331067E+00
          1   -1    0    0  501    0  0.00000000000E+00  0.00000000000E+00  0.34535295819E+02  0.34535296187E+02  0.50400000000E-02 0. -1.
         -2   -1    0    0    0  501 -0.00000000000E+00 -0.00000000000E+00 -0.45515225529E+02  0.45515225601E+02  0.25500000000E-02 0.  1.
        -24    2    1    2    0    0  0.00000000000E+00  0.35527136788E-14 -0.10979929710E+02  0.80050521787E+02  0.79293929036E+02 0.  0.
         66    2    3    3    0    0 -0.71009190174E+01  0.29685085118E+02 -0.30998104113E+02  0.43548935524E+02  0.19999993318E+01 0.  0.
         13    1    3    3    0    0  0.71009190174E+01 -0.29685085118E+02  0.20018174402E+02  0.36501586264E+02  0.10566000000E+00 0. -1.
         13    1    4    4    0    0 -0.16630367407E+01  0.45329474302E+01 -0.46236415522E+01  0.66859949779E+01  0.10566000000E+00 0. -1.
        -13    1    4    4    0    0 -0.30236776853E+01  0.15118145702E+02 -0.16425810275E+02  0.22528190416E+02  0.10566000000E+00 0.  1.
         14    1    4    4    0    0 -0.24142045914E+01  0.10033991985E+02 -0.99486522858E+01  0.14334750129E+02  0.00000000000E+00 0. -1.
<mgrwt>
<rscale>  0 0.79293929E+02</rscale>
<asrwt>0</asrwt>
<pdfrwt beam="1">  1        1 0.53131225E-02 0.79293929E+02</pdfrwt>
<pdfrwt beam="2">  1       -2 0.70023424E-02 0.79293929E+02</pdfrwt>
<totfact> 0.12708806E+05</totfact>
</mgrwt>
</event>
<event>
 8    1  0.1319619E-024  0.7985560E+02  0.7818608E-02  0.1329462E+00
         -2   -1    0    0    0  501 -0.00000000000E+00  0.00000000000E+00  0.20163062532E+02  0.20163062693E+02  0.25500000000E-02 0.  1.
          1   -1    0    0  501    0  0.00000000000E+00 -0.00000000000E+00 -0.79066812133E+02  0.79066812293E+02  0.50400000000E-02 0. -1.
        -24    2    1    2    0    0  0.88817841970E-15  0.00000000000E+00 -0.58903749601E+02  0.99229874986E+02  0.79855597003E+02 0.  0.
         66    2    3    3    0    0  0.61577228289E+01  0.39360239189E+02 -0.32270503716E+02  0.51308200037E+02  0.20000003888E+01 0.  0.
         13    1    3    3    0    0 -0.61577228289E+01 -0.39360239189E+02 -0.26633245885E+02  0.47921674949E+02  0.10566000000E+00 0. -1.
         13    1    4    4    0    0  0.25959902160E+01  0.11630883211E+02 -0.97477211444E+01  0.15396293093E+02  0.10566000000E+00 0. -1.
        -13    1    4    4    0    0  0.17239515056E+01  0.14485708329E+02 -0.12284630769E+02  0.19071734891E+02  0.10566000000E+00 0.  1.
         14    1    4    4    0    0  0.18377811074E+01  0.13243647650E+02 -0.10238151802E+02  0.16840172053E+02  0.00000000000E+00 0. -1.
<mgrwt>
<rscale>  0 0.79855597E+02</rscale>
<asrwt>0</asrwt>
<pdfrwt beam="1">  1        1 0.12164125E-01 0.79855597E+02</pdfrwt>
<pdfrwt beam="2">  1       -2 0.31020097E-02 0.79855597E+02</pdfrwt>
<totfact> 0.14212451E+05</totfact>
</mgrwt>
</event>
<event>
 8    1  0.1319619E-024  0.8004125E+02  0.7818608E-02  0.1328934E+00
          1   -1    0    0  501    0  0.00000000000E+00  0.00000000000E+00  0.35226739047E+02  0.35226739408E+02  0.50400000000E-02 0. -1.
         -2   -1    0    0    0  501 -0.00000000000E+00 -0.00000000000E+00 -0.45466891440E+02  0.45466891512E+02  0.25500000000E-02 0.  1.
        -24    2    1    2    0    0  0.00000000000E+00  0.00000000000E+00 -0.10240152393E+02  0.80693630919E+02  0.80041247803E+02 0.  0.
         66    2    3    3    0    0  0.83355384347E+01 -0.36582982603E+02 -0.19087134250E+02  0.42143973733E+02  0.20000027506E+01 0.  0.
         13    1    3    3    0    0 -0.83355384347E+01  0.36582982603E+02  0.88469818566E+01  0.38549657186E+02  0.10566000000E+00 0. -1.
         13    1    4    4    0    0  0.30911730022E+01 -0.12785025691E+02 -0.70574398670E+01  0.14927520021E+02  0.10566000000E+00 0. -1.
        -13    1    4    4    0    0  0.40541054951E+01 -0.18339186852E+02 -0.99491982388E+01  0.21254629034E+02  0.10566000000E+00 0.  1.
        -14    1    4    4    0    0  0.11902599374E+01 -0.54587700605E+01 -0.20804961438E+01  0.59618246784E+01  0.00000000000E+00 0.  1.
<mgrwt>
<rscale>  0 0.80041248E+02</rscale>
<asrwt>0</asrwt>
<pdfrwt beam="1">  1        1 0.54194984E-02 0.80041248E+02</pdfrwt>
<pdfrwt beam="2">  1       -2 0.69949064E-02 0.80041248E+02</pdfrwt>
<totfact> 0.12415793E+05</totfact>
</mgrwt>
</event>
<event>
 8    1  0.1319619E-024  0.8575079E+02  0.7818608E-02  0.1313481E+00
          1   -1    0    0  501    0  0.00000000000E+00  0.00000000000E+00  0.11251199520E+02  0.11251200648E+02  0.50400000000E-02 0. -1.
         -2   -1    0    0    0  501 -0.00000000000E+00 -0.00000000000E+00 -0.16338695717E+03  0.16338695719E+03  0.25500000000E-02 0.  1.
        -24    2    1    2    0    0  0.00000000000E+00  0.00000000000E+00 -0.15213575765E+03  0.17463815784E+03  0.85750786686E+02 0.  0.
         66    2    3    3    0    0  0.34468832810E+02 -0.53324883276E+01 -0.12680964441E+03  0.13153410880E+03  0.19999993457E+01 0.  0.
         13    1    3    3    0    0 -0.34468832810E+02  0.53324883276E+01 -0.25326113242E+02  0.43104049033E+02  0.10566000000E+00 0. -1.
         13    1    4    4    0    0  0.15380519133E+02 -0.31471057993E+01 -0.57673406055E+02  0.59772046759E+02  0.10566000000E+00 0. -1.
        -13    1    4    4    0    0  0.46855856567E+00  0.42149798840E-01 -0.17185855749E+01  0.17849437383E+01  0.10566000000E+00 0. -1.
        -14    1    4    4    0    0  0.18619755111E+02 -0.22275323271E+01 -0.67417652777E+02  0.69977118307E+02  0.00000000000E+00 0.  1.
<mgrwt>
<rscale>  0 0.85750787E+02</rscale>
<asrwt>0</asrwt>
<pdfrwt beam="1">  1        1 0.17309540E-02 0.85750787E+02</pdfrwt>
<pdfrwt beam="2">  1       -2 0.25136453E-01 0.85750787E+02</pdfrwt>
<totfact> 0.76753641E+04</totfact>
</mgrwt>
</event>
<event>
 8    1  0.1319619E-024  0.8013234E+02  0.7818608E-02  0.1328676E+00
         -2   -1    0    0    0  501 -0.00000000000E+00  0.00000000000E+00  0.59925139519E+01  0.59925144945E+01  0.25500000000E-02 0.  1.
          1   -1    0    0  501    0  0.00000000000E+00 -0.00000000000E+00 -0.26788388349E+03  0.26788388354E+03  0.50400000000E-02 0. -1.
        -24    2    1    2    0    0  0.00000000000E+00  0.00000000000E+00 -0.26189136954E+03  0.27387639803E+03  0.80132340290E+02 0.  0.
         66    2    3    3    0    0 -0.20860417563E+02  0.34147533339E+02 -0.12609546758E+03  0.13230751301E+03  0.20000000979E+01 0.  0.
         13    1    3    3    0    0  0.20860417563E+02 -0.34147533339E+02 -0.13579590195E+03  0.14156888502E+03  0.10566000000E+00 0. -1.
         13    1    4    4    0    0 -0.27022801232E+01  0.34510596891E+01 -0.13892751650E+02  0.14568179134E+02  0.10566000000E+00 0. -1.
        -13    1    4    4    0    0 -0.10509767134E+02  0.16883769143E+02 -0.63397957450E+02  0.66444179869E+02  0.10566000000E+00 0.  1.
         14    1    4    4    0    0 -0.76483703052E+01  0.13812704506E+02 -0.48804758485E+02  0.51295154009E+02  0.00000000000E+00 0. -1.
<mgrwt>
<rscale>  0 0.80132340E+02</rscale>
<asrwt>0</asrwt>
<pdfrwt beam="1">  1        1 0.41212896E-01 0.80132340E+02</pdfrwt>
<pdfrwt beam="2">  1       -2 0.92192547E-03 0.80132340E+02</pdfrwt>
<totfact> 0.17574809E+05</totfact>
</mgrwt>
</event>
<event>
 8    1  0.1319619E-024  0.7916402E+02  0.7818608E-02  0.1331441E+00
          1   -1    0    0  501    0  0.00000000000E+00  0.00000000000E+00  0.36541699618E+02  0.36541699966E+02  0.50400000000E-02 0. -1.
         -2   -1    0    0    0  501 -0.00000000000E+00 -0.00000000000E+00 -0.42875280654E+02  0.42875280729E+02  0.25500000000E-02 0.  1.
        -24    2    1    2    0    0  0.35527136788E-14  0.71054273576E-14 -0.63335810353E+01  0.79416980695E+02  0.79164023230E+02 0.  0.
         66    2    3    3    0    0 -0.21785393399E+02  0.32684231599E+02 -0.78601077705E+01  0.40107900209E+02  0.20000010691E+01 0.  0.
         13    1    3    3    0    0  0.21785393399E+02 -0.32684231599E+02  0.15265267352E+01  0.39309080486E+02  0.10566000000E+00 0. -1.
         13    1    4    4    0    0 -0.67588719360E+00  0.81596977831E+00 -0.31385151142E+00  0.11100887282E+01  0.10566000000E+00 0.  1.
        -13    1    4    4    0    0 -0.36651716382E+01  0.66997390914E+01 -0.14361961297E+01  0.77713454684E+01  0.10566000000E+00 0.  1.
        -14    1    4    4    0    0 -0.17444334567E+02  0.25168522729E+02 -0.61100601294E+01  0.31226466013E+02  0.00000000000E+00 0.  1.
<mgrwt>
<rscale>  0 0.79164023E+02</rscale>
<asrwt>0</asrwt>
<pdfrwt beam="1">  1        1 0.56218000E-02 0.79164023E+02</pdfrwt>
<pdfrwt beam="2">  1       -2 0.65961970E-02 0.79164023E+02</pdfrwt>
<totfact> 0.12887973E+05</totfact>
</mgrwt>
</event>
<event>
 8    1  0.1319619E-024  0.7829686E+02  0.7818608E-02  0.1333955E+00
         -2   -1    0    0    0  501 -0.00000000000E+00  0.00000000000E+00  0.36909098090E+01  0.36909106899E+01  0.25500000000E-02 0.  1.
          1   -1    0    0  501    0  0.00000000000E+00 -0.00000000000E+00 -0.41523616875E+03  0.41523616878E+03  0.50400000000E-02 0. -1.
        -24    2    1    2    0    0  0.00000000000E+00  0.00000000000E+00 -0.41154525894E+03  0.41892707947E+03  0.78296856622E+02 0.  0.
         66    2    3    3    0    0 -0.80089315983E+01  0.37954290120E+02 -0.17866445611E+03  0.18283779421E+03  0.19999976141E+01 0.  0.
         13    1    3    3    0    0  0.80089315983E+01 -0.37954290120E+02 -0.23288080283E+03  0.23608928526E+03  0.10566000000E+00 0. -1.
         13    1    4    4    0    0 -0.19774577176E+01  0.11586449708E+02 -0.57421429035E+02  0.58612181603E+02  0.10566000000E+00 0. -1.
        -13    1    4    4    0    0 -0.26610136038E+01  0.12667680718E+02 -0.56860466980E+02  0.58315306716E+02  0.10566000000E+00 0.  1.
         14    1    4    4    0    0 -0.33704602769E+01  0.13700159694E+02 -0.64382560093E+02  0.65910305888E+02  0.00000000000E+00 0. -1.
<mgrwt>
<rscale>  0 0.78296857E+02</rscale>
<asrwt>0</asrwt>
<pdfrwt beam="1">  1        1 0.63882451E-01 0.78296857E+02</pdfrwt>
<pdfrwt beam="2">  1       -2 0.56783267E-03 0.78296857E+02</pdfrwt>
<totfact> 0.20217107E+05</totfact>
</mgrwt>
</event>
<event>
 8    1  0.1319619E-024  0.7719237E+02  0.7818608E-02  0.1337213E+00
          1   -1    0    0  501    0  0.00000000000E+00  0.00000000000E+00  0.71612593685E+02  0.71612593862E+02  0.50400000000E-02 0. -1.
         -2   -1    0    0    0  501 -0.00000000000E+00 -0.00000000000E+00 -0.20801725103E+02  0.20801725259E+02  0.25500000000E-02 0.  1.
        -24    2    1    2    0    0  0.00000000000E+00  0.00000000000E+00  0.50810868582E+02  0.92414319121E+02  0.77192370171E+02 0.  0.
         66    2    3    3    0    0  0.17413548815E+02  0.83141530162E+01 -0.14559279407E+02  0.24255502855E+02  0.19999947973E+01 0.  0.
         13    1    3    3    0    0 -0.17413548815E+02 -0.83141530162E+01  0.65370147989E+02  0.68158816266E+02  0.10566000000E+00 0. -1.
         13    1    4    4    0    0  0.58264086418E+00  0.43022664620E+00 -0.10018713850E+01  0.12407560805E+01  0.10566000000E+00 0. -1.
        -13    1    4    4    0    0  0.21539415209E+01  0.80119432448E+00 -0.17379100826E+01  0.28832051456E+01  0.10566000000E+00 0. -1.
        -14    1    4    4    0    0  0.14676966430E+02  0.70827320456E+01 -0.11819497939E+02  0.20131541629E+02  0.00000000000E+00 0.  1.
<mgrwt>
<rscale>  0 0.77192370E+02</rscale>
<asrwt>0</asrwt>
<pdfrwt beam="1">  1        1 0.11017322E-01 0.77192370E+02</pdfrwt>
<pdfrwt beam="2">  1       -2 0.32002654E-02 0.77192370E+02</pdfrwt>
<totfact> 0.15346025E+05</totfact>
</mgrwt>
</event>
<event>
 8    1  0.1319619E-024  0.8172762E+02  0.7818608E-02  0.1324219E+00
         -2   -1    0    0    0  501 -0.00000000000E+00  0.00000000000E+00  0.81912047682E+01  0.81912051651E+01  0.25500000000E-02 0.  1.
          1   -1    0    0  501    0  0.00000000000E+00 -0.00000000000E+00 -0.20385902518E+03  0.20385902525E+03  0.50400000000E-02 0. -1.
        -24    2    1    2    0    0 -0.17763568394E-14 -0.71054273576E-14 -0.19566782041E+03  0.21205023041E+03  0.81727622449E+02 0.  0.
         66    2    3    3    0    0  0.85879215765E+01  0.39454108528E+02 -0.11377393956E+03  0.12074306770E+03  0.19999994533E+01 0.  0.
         13    1    3    3    0    0 -0.85879215765E+01 -0.39454108528E+02 -0.81893880855E+02  0.91307162710E+02  0.10566000000E+00 0. -1.
         13    1    4    4    0    0  0.23971728541E+00  0.17972061759E+01 -0.55092246408E+01  0.58008736061E+01  0.10566000000E+00 0. -1.
        -13    1    4    4    0    0  0.75031075814E+01  0.35603940733E+02 -0.10213802644E+03  0.10842566498E+03  0.10566000000E+00 0.  1.
        -14    1    4    4    0    0  0.84509670972E+00  0.20529616188E+01 -0.61266884843E+01  0.65165291100E+01  0.00000000000E+00 0.  1.
<mgrwt>
<rscale>  0 0.81727622E+02</rscale>
<asrwt>0</asrwt>
<pdfrwt beam="1">  1        1 0.31362923E-01 0.81727622E+02</pdfrwt>
<pdfrwt beam="2">  1       -2 0.12601855E-02 0.81727622E+02</pdfrwt>
<totfact> 0.15812274E+05</totfact>
</mgrwt>
</event>
<event>
 8    1  0.1319619E-024  0.7915006E+02  0.7818608E-02  0.1331481E+00
          1   -1    0    0  501    0  0.00000000000E+00  0.00000000000E+00  0.10594326926E+03  0.10594326938E+03  0.50400000000E-02 0. -1.
         -2   -1    0    0    0  501 -0.00000000000E+00 -0.00000000000E+00 -0.14783223304E+02  0.14783223524E+02  0.25500000000E-02 0.  1.
        -24    2    1    2    0    0 -0.17763568394E-14  0.00000000000E+00  0.91160045953E+02  0.12072649290E+03  0.79150060708E+02 0.  0.
         66    2    3    3    0    0 -0.14918696278E+02  0.34875290305E+02  0.28533691633E+02  0.47508156456E+02  0.19999997749E+01 0.  0.
         13    1    3    3    0    0  0.14918696278E+02 -0.34875290305E+02  0.62626354320E+02  0.73218336446E+02  0.10566000000E+00 0. -1.
         13    1    4    4    0    0 -0.48381730675E+00  0.63215936491E+00  0.80164987613E+00  0.11346855108E+01  0.10566000000E+00 0. -1.
        -13    1    4    4    0    0 -0.90241533489E+01  0.21336884412E+02  0.17694648655E+02  0.29151496276E+02  0.10566000000E+00 0.  1.
         14    1    4    4    0    0 -0.54107256228E+01  0.12906246528E+02  0.10037393102E+02  0.17221974669E+02  0.00000000000E+00 0. -1.
<mgrwt>
<rscale>  0 0.79150061E+02</rscale>
<asrwt>0</asrwt>
<pdfrwt beam="1">  1        1 0.16298965E-01 0.79150061E+02</pdfrwt>
<pdfrwt beam="2">  1       -2 0.22743420E-02 0.79150061E+02</pdfrwt>
<totfact> 0.15277092E+05</totfact>
</mgrwt>
</event>
<event>
 8    1  0.1319619E-024  0.7709931E+02  0.7818608E-02  0.1337491E+00
          1   -1    0    0  501    0  0.00000000000E+00  0.00000000000E+00  0.44603398823E+02  0.44603399108E+02  0.50400000000E-02 0. -1.
         -2   -1    0    0    0  501 -0.00000000000E+00 -0.00000000000E+00 -0.33317551844E+02  0.33317551942E+02  0.25500000000E-02 0.  1.
        -24    2    1    2    0    0 -0.71054273576E-14  0.35527136788E-14  0.11285846979E+02  0.77920951050E+02  0.77099314332E+02 0.  0.
         66    2    3    3    0    0  0.31335812804E+02 -0.20730594056E+02 -0.29516260359E+01  0.37741260958E+02  0.19999971155E+01 0.  0.
         13    1    3    3    0    0 -0.31335812804E+02  0.20730594056E+02  0.14237473014E+02  0.40179690092E+02  0.10566000000E+00 0. -1.
         13    1    4    4    0    0  0.12034768757E+02 -0.78766241118E+01 -0.20403812080E+01  0.14527600832E+02  0.10566000000E+00 0. -1.
        -13    1    4    4    0    0  0.79622101857E+01 -0.53868928182E+01 -0.62013846048E+00  0.96338539029E+01  0.10566000000E+00 0.  1.
         14    1    4    4    0    0  0.11338833861E+02 -0.74670771263E+01 -0.29110636741E+00  0.13579806223E+02  0.00000000000E+00 0. -1.
<mgrwt>
<rscale>  0 0.77099314E+02</rscale>
<asrwt>0</asrwt>
<pdfrwt beam="1">  1        1 0.68620615E-02 0.77099314E+02</pdfrwt>
<pdfrwt beam="2">  1       -2 0.51257772E-02 0.77099314E+02</pdfrwt>
<totfact> 0.14324026E+05</totfact>
</mgrwt>
</event>
<event>
 8    1  0.1319619E-024  0.8007502E+02  0.7818608E-02  0.1328839E+00
          1   -1    0    0  501    0  0.00000000000E+00  0.00000000000E+00  0.14426901474E+02  0.14426902354E+02  0.50400000000E-02 0. -1.
         -2   -1    0    0    0  501 -0.00000000000E+00 -0.00000000000E+00 -0.11111202980E+03  0.11111202983E+03  0.25500000000E-02 0.  1.
        -24    2    1    2    0    0  0.00000000000E+00  0.00000000000E+00 -0.96685128323E+02  0.12553893218E+03  0.80075023910E+02 0.  0.
         66    2    3    3    0    0  0.33492260451E+02  0.17926177127E+02 -0.68074045436E+02  0.77981760645E+02  0.19999986810E+01 0.  0.
         13    1    3    3    0    0 -0.33492260451E+02 -0.17926177127E+02 -0.28611082886E+02  0.47557171535E+02  0.10566000000E+00 0. -1.
         13    1    4    4    0    0  0.80951994520E+01  0.37544959068E+01 -0.15410477718E+02  0.17807933098E+02  0.10566000000E+00 0. -1.
        -13    1    4    4    0    0  0.36797904455E+01  0.19745379873E+01 -0.67153784977E+01  0.79086743762E+01  0.10566000000E+00 0.  1.
        -14    1    4    4    0    0  0.21717270553E+02  0.12197143232E+02 -0.45948189221E+02  0.52265153171E+02  0.00000000000E+00 0.  1.
<mgrwt>
<rscale>  0 0.80075024E+02</rscale>
<asrwt>0</asrwt>
<pdfrwt beam="1">  1        1 0.22195235E-02 0.80075024E+02</pdfrwt>
<pdfrwt beam="2">  1       -2 0.17094158E-01 0.80075024E+02</pdfrwt>
<totfact> 0.10304461E+05</totfact>
</mgrwt>
</event>
<event>
 8    1  0.1319619E-024  0.7935679E+02  0.7818608E-02  0.1330887E+00
         -2   -1    0    0    0  501 -0.00000000000E+00  0.00000000000E+00  0.45789238174E+03  0.45789238174E+03  0.25500000000E-02 0.  1.
          1   -1    0    0  501    0  0.00000000000E+00 -0.00000000000E+00 -0.34383063666E+01  0.34383100605E+01  0.50400000000E-02 0. -1.
        -24    2    1    2    0    0  0.17763568394E-14  0.00000000000E+00  0.45445407537E+03  0.46133069180E+03  0.79356792904E+02 0.  0.
         66    2    3    3    0    0 -0.14839676102E+02  0.20934322453E+00  0.44113483874E+03  0.44138895066E+03  0.20000009631E+01 0.  0.
         13    1    3    3    0    0  0.14839676102E+02 -0.20934322453E+00  0.13319236631E+02  0.19941741144E+02  0.10566000000E+00 0. -1.
         13    1    4    4    0    0 -0.11905768271E+02 -0.13463693117E+00  0.33908760851E+03  0.33929660012E+03  0.10566000000E+00 0. -1.
        -13    1    4    4    0    0 -0.36631887641E+00 -0.75269469512E-01  0.20342705352E+02  0.20346416886E+02  0.10566000000E+00 0.  1.
        -14    1    4    4    0    0 -0.25675889543E+01  0.41924962521E+00  0.81704524879E+02  0.81745933654E+02  0.00000000000E+00 0.  1.
<mgrwt>
<rscale>  0 0.79356793E+02</rscale>
<asrwt>0</asrwt>
<pdfrwt beam="1">  1        1 0.52897036E-03 0.79356793E+02</pdfrwt>
<pdfrwt beam="2">  1       -2 0.70445000E-01 0.79356793E+02</pdfrwt>
<totfact> 0.54938953E+04</totfact>
</mgrwt>
</event>
<event>
 8    1  0.1319619E-024  0.7775467E+02  0.7818608E-02  0.1335547E+00
          1   -1    0    0  501    0  0.00000000000E+00  0.00000000000E+00  0.25397052479E+02  0.25397052979E+02  0.50400000000E-02 0. -1.
         -2   -1    0    0    0  501 -0.00000000000E+00 -0.00000000000E+00 -0.59512695730E+02  0.59512695784E+02  0.25500000000E-02 0.  1.
        -24    2    1    2    0    0  0.11102230246E-15  0.71054273576E-14 -0.34115643251E+02  0.84909748764E+02  0.77754667517E+02 0.  0.
         66    2    3    3    0    0 -0.82503349483E+00  0.38818171117E+02 -0.18578691151E+02  0.43089429136E+02  0.20000123116E+01 0.  0.
         13    1    3    3    0    0  0.82503349483E+00 -0.38818171117E+02 -0.15536952100E+02  0.41820319628E+02  0.10566000000E+00 0. -1.
         13    1    4    4    0    0 -0.10411809257E+01  0.17603544548E+02 -0.82955646870E+01  0.19488365655E+02  0.10566000000E+00 0.  1.
        -13    1    4    4    0    0 -0.30494199647E+00  0.26292286086E+01 -0.13722357439E+01  0.29832914155E+01  0.10566000000E+00 0. -1.
         14    1    4    4    0    0  0.52108942728E+00  0.18585397961E+02 -0.89108907200E+01  0.20617772066E+02  0.00000000000E+00 0. -1.
<mgrwt>
<rscale>  0 0.77754668E+02</rscale>
<asrwt>0</asrwt>
<pdfrwt beam="1">  1        1 0.39072389E-02 0.77754668E+02</pdfrwt>
<pdfrwt beam="2">  1       -2 0.91557993E-02 0.77754668E+02</pdfrwt>
<totfact> 0.12741703E+05</totfact>
</mgrwt>
</event>
<event>
 8    1  0.1319619E-024  0.7955557E+02  0.7818608E-02  0.1330317E+00
          1   -1    0    0  501    0  0.00000000000E+00  0.00000000000E+00  0.97473312180E+02  0.97473312310E+02  0.50400000000E-02 0. -1.
         -2   -1    0    0    0  501 -0.00000000000E+00 -0.00000000000E+00 -0.16232877011E+02  0.16232877212E+02  0.25500000000E-02 0.  1.
        -24    2    1    2    0    0 -0.71054273576E-14  0.88817841970E-15  0.81240435169E+02  0.11370618952E+03  0.79555573213E+02 0.  0.
         66    2    3    3    0    0  0.36930336759E+02 -0.50846251174E+01  0.60376137641E+02  0.70985781506E+02  0.19999984453E+01 0.  0.
         13    1    3    3    0    0 -0.36930336759E+02  0.50846251174E+01  0.20864297527E+02  0.42720408016E+02  0.10566000000E+00 0. -1.
         13    1    4    4    0    0  0.30338061564E+01 -0.77398491531E+00  0.52062747550E+01  0.60761413170E+01  0.10566000000E+00 0. -1.
        -13    1    4    4    0    0  0.19385729829E+02 -0.22227355346E+01  0.30258838927E+02  0.36004938155E+02  0.10566000000E+00 0.  1.
        -14    1    4    4    0    0  0.14510800774E+02 -0.20879046675E+01  0.24911023959E+02  0.28904702034E+02  0.00000000000E+00 0.  1.
<mgrwt>
<rscale>  0 0.79555573E+02</rscale>
<asrwt>0</asrwt>
<pdfrwt beam="1">  1        1 0.14995894E-01 0.79555573E+02</pdfrwt>
<pdfrwt beam="2">  1       -2 0.24973658E-02 0.79555573E+02</pdfrwt>
<totfact> 0.14858285E+05</totfact>
</mgrwt>
</event>
<event>
 8    1  0.1319619E-024  0.7994027E+02  0.7818608E-02  0.1329221E+00
         -2   -1    0    0    0  501 -0.00000000000E+00  0.00000000000E+00  0.27828654406E+02  0.27828654523E+02  0.25500000000E-02 0.  1.
          1   -1    0    0  501    0  0.00000000000E+00 -0.00000000000E+00 -0.57408867627E+02  0.57408867849E+02  0.50400000000E-02 0. -1.
        -24    2    1    2    0    0  0.00000000000E+00  0.71054273576E-14 -0.29580213221E+02  0.85237522372E+02  0.79940266486E+02 0.  0.
         66    2    3    3    0    0 -0.59634412090E+01  0.38004708819E+02 -0.33308609701E+01  0.38665425778E+02  0.19999980869E+01 0.  0.
         13    1    3    3    0    0  0.59634412090E+01 -0.38004708819E+02 -0.26249352251E+02  0.46572096593E+02  0.10566000000E+00 0. -1.
         13    1    4    4    0    0 -0.50791136612E+00  0.46046922031E+01 -0.29075159498E+00  0.46429370840E+01  0.10566000000E+00 0. -1.
        -13    1    4    4    0    0 -0.37805843517E+01  0.24965420621E+02 -0.15756257573E+01  0.25299383498E+02  0.10566000000E+00 0.  1.
         14    1    4    4    0    0 -0.16749454912E+01  0.84345959953E+01 -0.14644836178E+01  0.87231051965E+01  0.00000000000E+00 0. -1.
<mgrwt>
<rscale>  0 0.79940266E+02</rscale>
<asrwt>0</asrwt>
<pdfrwt beam="1">  1        1 0.88321335E-02 0.79940266E+02</pdfrwt>
<pdfrwt beam="2">  1       -2 0.42813315E-02 0.79940266E+02</pdfrwt>
<totfact> 0.13473013E+05</totfact>
</mgrwt>
</event>
<event>
 8    1  0.1319619E-024  0.7237442E+02  0.7818608E-02  0.1352200E+00
          1   -1    0    0  501    0  0.00000000000E+00  0.00000000000E+00  0.25703311618E+02  0.25703312112E+02  0.50400000000E-02 0. -1.
         -2   -1    0    0    0  501 -0.00000000000E+00 -0.00000000000E+00 -0.50947298248E+02  0.50947298311E+02  0.25500000000E-02 0.  1.
        -24    2    1    2    0    0  0.71054273576E-14  0.00000000000E+00 -0.25243986629E+02  0.76650610424E+02  0.72374423779E+02 0.  0.
         66    2    3    3    0    0 -0.34152295635E+02 -0.82276943445E+01 -0.35558507110E+01  0.35365496217E+02  0.19999992577E+01 0.  0.
         13    1    3    3    0    0  0.34152295635E+02  0.82276943445E+01 -0.21688135918E+02  0.41285114206E+02  0.10566000000E+00 0. -1.
         13    1    4    4    0    0 -0.31728949249E+01 -0.50087996215E+00 -0.56967675864E+00  0.32640218422E+01  0.10566000000E+00 0. -1.
        -13    1    4    4    0    0 -0.56038734217E+00 -0.29878466655E+00 -0.14586006200E+00  0.66011017529E+00  0.10566000000E+00 0. -1.
        -14    1    4    4    0    0 -0.30419013368E+02 -0.74280297158E+01 -0.28403138904E+01  0.31441364200E+02  0.00000000000E+00 0.  1.
<mgrwt>
<rscale>  0 0.72374424E+02</rscale>
<asrwt>0</asrwt>
<pdfrwt beam="1">  1        1 0.39543557E-02 0.72374424E+02</pdfrwt>
<pdfrwt beam="2">  1       -2 0.78380459E-02 0.72374424E+02</pdfrwt>
<totfact> 0.15681216E+05</totfact>
</mgrwt>
</event>
<event>
 8    1  0.1319619E-024  0.7577020E+02  0.7818608E-02  0.1341502E+00
          1   -1    0    0  501    0  0.00000000000E+00  0.00000000000E+00  0.46934885975E+02  0.46934886245E+02  0.50400000000E-02 0. -1.
         -2   -1    0    0    0  501 -0.00000000000E+00 -0.00000000000E+00 -0.30580254554E+02  0.30580254661E+02  0.25500000000E-02 0.  1.
        -24    2    1    2    0    0 -0.27755575616E-16  0.00000000000E+00  0.16354631421E+02  0.77515140906E+02  0.75770199292E+02 0.  0.
         66    2    3    3    0    0  0.13292475020E+00 -0.35065237671E+02  0.22783577345E+02  0.41865020687E+02  0.19999996474E+01 0.  0.
         13    1    3    3    0    0 -0.13292475020E+00  0.35065237671E+02 -0.64289459247E+01  0.35650120219E+02  0.10566000000E+00 0. -1.
         13    1    4    4    0    0  0.56311892704E+00 -0.55282353652E+01  0.35338856721E+01  0.65861977770E+01  0.10566000000E+00 0. -1.
        -13    1    4    4    0    0  0.16787406011E+00 -0.13703806039E+02  0.94800269378E+01  0.16664469881E+02  0.10566000000E+00 0.  1.
         14    1    4    4    0    0 -0.59806823695E+00 -0.15833196267E+02  0.97696647353E+01  0.18614353029E+02  0.00000000000E+00 0. -1.
<mgrwt>
<rscale>  0 0.75770199E+02</rscale>
<asrwt>0</asrwt>
<pdfrwt beam="1">  1        1 0.72207517E-02 0.75770199E+02</pdfrwt>
<pdfrwt beam="2">  1       -2 0.47046546E-02 0.75770199E+02</pdfrwt>
<totfact> 0.15148294E+05</totfact>
</mgrwt>
</event>
<event>
 8    1  0.1319619E-024  0.8507337E+02  0.7818608E-02  0.1315241E+00
         -2   -1    0    0    0  501 -0.00000000000E+00  0.00000000000E+00  0.19581206143E+03  0.19581206145E+03  0.25500000000E-02 0.  1.
          1   -1    0    0  501    0  0.00000000000E+00 -0.00000000000E+00 -0.92403378945E+01  0.92403392690E+01  0.50400000000E-02 0. -1.
        -24    2    1    2    0    0  0.00000000000E+00  0.00000000000E+00  0.18657172354E+03  0.20505240072E+03  0.85073374309E+02 0.  0.
         66    2    3    3    0    0 -0.40519058769E+02 -0.11680142924E+02  0.10634951809E+03  0.11442220005E+03  0.20000009500E+01 0.  0.
         13    1    3    3    0    0  0.40519058769E+02  0.11680142924E+02  0.80222205445E+02  0.90630200666E+02  0.10566000000E+00 0. -1.
         13    1    4    4    0    0 -0.10063753240E+02 -0.34302323301E+01  0.25308328765E+02  0.27451198372E+02  0.10566000000E+00 0. -1.
        -13    1    4    4    0    0 -0.13598811913E+01 -0.23133751460E+00  0.36318141652E+01  0.38863906219E+01  0.10566000000E+00 0.  1.
        -14    1    4    4    0    0 -0.29095424339E+02 -0.80185730794E+01  0.77409375161E+02  0.83084611057E+02  0.00000000000E+00 0.  1.
<mgrwt>
<rscale>  0 0.85073374E+02</rscale>
<asrwt>0</asrwt>
<pdfrwt beam="1">  1        1 0.14215906E-02 0.85073374E+02</pdfrwt>
<pdfrwt beam="2">  1       -2 0.30124933E-01 0.85073374E+02</pdfrwt>
<totfact> 0.73199167E+04</totfact>
</mgrwt>
</event>
<event>
 8    1  0.1319619E-024  0.8000053E+02  0.7818608E-02  0.1329050E+00
         -2   -1    0    0    0  501 -0.00000000000E+00  0.00000000000E+00  0.22850409318E+02  0.22850409460E+02  0.25500000000E-02 0.  1.
          1   -1    0    0  501    0  0.00000000000E+00 -0.00000000000E+00 -0.70021561964E+02  0.70021562146E+02  0.50400000000E-02 0. -1.
        -24    2    1    2    0    0  0.00000000000E+00  0.17763568394E-14 -0.47171152646E+02  0.92871971606E+02  0.80000534173E+02 0.  0.
         66    2    3    3    0    0 -0.36895719982E+02  0.11784636973E+02 -0.35083403287E+02  0.52297390029E+02  0.19999990139E+01 0.  0.
         13    1    3    3    0    0  0.36895719982E+02 -0.11784636973E+02 -0.12087749359E+02  0.40574581577E+02  0.10566000000E+00 0. -1.
         13    1    4    4    0    0 -0.46611575898E+01  0.13924031889E+01 -0.46148321903E+01  0.67061924292E+01  0.10566000000E+00 0. -1.
        -13    1    4    4    0    0 -0.30997677790E+02  0.96659443621E+01 -0.29401018640E+02  0.43803168491E+02  0.10566000000E+00 0.  1.
         14    1    4    4    0    0 -0.12368846023E+01  0.72628942250E+00 -0.10675524568E+01  0.17880291084E+01  0.00000000000E+00 0. -1.
<mgrwt>
<rscale>  0 0.80000534E+02</rscale>
<asrwt>0</asrwt>
<pdfrwt beam="1">  1        1 0.10772548E-01 0.80000534E+02</pdfrwt>
<pdfrwt beam="2">  1       -2 0.35154476E-02 0.80000534E+02</pdfrwt>
<totfact> 0.13871054E+05</totfact>
</mgrwt>
</event>
<event>
 8    1  0.1319619E-024  0.7936828E+02  0.7818608E-02  0.1330854E+00
         -2   -1    0    0    0  501 -0.00000000000E+00  0.00000000000E+00  0.31467742474E+03  0.31467742475E+03  0.25500000000E-02 0.  1.
          1   -1    0    0  501    0  0.00000000000E+00 -0.00000000000E+00 -0.50045872408E+01  0.50045897786E+01  0.50400000000E-02 0. -1.
        -24    2    1    2    0    0 -0.88817841970E-15  0.00000000000E+00  0.30967283750E+03  0.31968201453E+03  0.79368281627E+02 0.  0.
         66    2    3    3    0    0 -0.69291972364E+01 -0.39011696510E+02  0.16179342282E+03  0.16658642775E+03  0.20000015685E+01 0.  0.
         13    1    3    3    0    0  0.69291972364E+01  0.39011696510E+02  0.14787941468E+03  0.15309558677E+03  0.10566000000E+00 0. -1.
         13    1    4    4    0    0 -0.16518418231E+00 -0.78974003336E+00  0.38232610161E+01  0.39088954920E+01  0.10566000000E+00 0. -1.
        -13    1    4    4    0    0 -0.23299171470E+01 -0.91724181319E+01  0.38932211989E+02  0.40066071216E+02  0.10566000000E+00 0.  1.
        -14    1    4    4    0    0 -0.44340959071E+01 -0.29049538345E+02  0.11903794981E+03  0.12261146105E+03  0.00000000000E+00 0.  1.
<mgrwt>
<rscale>  0 0.79368282E+02</rscale>
<asrwt>0</asrwt>
<pdfrwt beam="1">  1        1 0.76993658E-03 0.79368282E+02</pdfrwt>
<pdfrwt beam="2">  1       -2 0.48411919E-01 0.79368282E+02</pdfrwt>
<totfact> 0.69853326E+04</totfact>
</mgrwt>
</event>
<event>
 8    1  0.1319619E-024  0.8060028E+02  0.7818608E-02  0.1327356E+00
          1   -1    0    0  501    0  0.00000000000E+00  0.00000000000E+00  0.11286776337E+03  0.11286776348E+03  0.50400000000E-02 0. -1.
         -2   -1    0    0    0  501 -0.00000000000E+00 -0.00000000000E+00 -0.14389418255E+02  0.14389418481E+02  0.25500000000E-02 0.  1.
        -24    2    1    2    0    0  0.88817841970E-15  0.35527136788E-14  0.98478345113E+02  0.12725718196E+03  0.80600284769E+02 0.  0.
         66    2    3    3    0    0 -0.67510669438E+01 -0.16906552481E+02 -0.74532264188E+01  0.19772683392E+02  0.20000007010E+01 0.  0.
         13    1    3    3    0    0  0.67510669438E+01  0.16906552481E+02  0.10593157153E+03  0.10748449857E+03  0.10566000000E+00 0. -1.
         13    1    4    4    0    0 -0.51327406582E+00 -0.10107752094E+01 -0.20985632865E+00  0.11577221191E+01  0.10566000000E+00 0.  1.
        -13    1    4    4    0    0 -0.62662521449E+01 -0.15088510388E+02 -0.69589702267E+01  0.17758589255E+02  0.10566000000E+00 0.  1.
        -14    1    4    4    0    0  0.28459266974E-01 -0.80726688383E+00 -0.28439986345E+00  0.85637201842E+00  0.00000000000E+00 0.  1.
<mgrwt>
<rscale>  0 0.80600285E+02</rscale>
<asrwt>0</asrwt>
<pdfrwt beam="1">  1        1 0.17364271E-01 0.80600285E+02</pdfrwt>
<pdfrwt beam="2">  1       -2 0.22137567E-02 0.80600285E+02</pdfrwt>
<totfact> 0.14706385E+05</totfact>
</mgrwt>
</event>
<event>
 8    1  0.1319619E-024  0.7818721E+02  0.7818608E-02  0.1334276E+00
          1   -1    0    0  501    0  0.00000000000E+00  0.00000000000E+00  0.49206947471E+02  0.49206947729E+02  0.50400000000E-02 0. -1.
         -2   -1    0    0    0  501 -0.00000000000E+00 -0.00000000000E+00 -0.31058826005E+02  0.31058826110E+02  0.25500000000E-02 0.  1.
        -24    2    1    2    0    0  0.35527136788E-14  0.00000000000E+00  0.18148121466E+02  0.80265773839E+02  0.78187212108E+02 0.  0.
         66    2    3    3    0    0 -0.30835059156E+02 -0.23686743412E+02  0.12981328597E+02  0.41041169326E+02  0.20000002138E+01 0.  0.
         13    1    3    3    0    0  0.30835059156E+02  0.23686743412E+02  0.51667928693E+01  0.39224604513E+02  0.10566000000E+00 0. -1.
         13    1    4    4    0    0 -0.26685542607E+01 -0.27739028141E+01  0.14025023404E+01  0.40980355677E+01  0.10566000000E+00 0. -1.
        -13    1    4    4    0    0 -0.13097486651E+02 -0.97578274847E+01  0.53974488873E+01  0.17201830493E+02  0.10566000000E+00 0.  1.
         14    1    4    4    0    0 -0.15069018244E+02 -0.11155013114E+02  0.61813773692E+01  0.19741303265E+02  0.00000000000E+00 0. -1.
<mgrwt>
<rscale>  0 0.78187212E+02</rscale>
<asrwt>0</asrwt>
<pdfrwt beam="1">  1        1 0.75702995E-02 0.78187212E+02</pdfrwt>
<pdfrwt beam="2">  1       -2 0.47782810E-02 0.78187212E+02</pdfrwt>
<totfact> 0.13987040E+05</totfact>
</mgrwt>
</event>
<event>
 8    1  0.1319619E-024  0.7911071E+02  0.7818608E-02  0.1331594E+00
         -2   -1    0    0    0  501 -0.00000000000E+00  0.00000000000E+00  0.10415790102E+02  0.10415790414E+02  0.25500000000E-02 0.  1.
          1   -1    0    0  501    0  0.00000000000E+00 -0.00000000000E+00 -0.15021672722E+03  0.15021672730E+03  0.50400000000E-02 0. -1.
        -24    2    1    2    0    0  0.17763568394E-14  0.00000000000E+00 -0.13980093712E+03  0.16063251772E+03  0.79110705531E+02 0.  0.
         66    2    3    3    0    0  0.92915713271E+01 -0.35918016772E+02 -0.42239321120E+02  0.56254755208E+02  0.20000020631E+01 0.  0.
         13    1    3    3    0    0 -0.92915713271E+01  0.35918016772E+02 -0.97561615996E+02  0.10437776251E+03  0.10566000000E+00 0. -1.
         13    1    4    4    0    0  0.27422290652E+01 -0.88214327802E+01 -0.10447233349E+02  0.13946087094E+02  0.10566000000E+00 0. -1.
        -13    1    4    4    0    0  0.23708455508E+01 -0.12753612558E+02 -0.14421990652E+02  0.19397951447E+02  0.10566000000E+00 0.  1.
        -14    1    4    4    0    0  0.41784967112E+01 -0.14342971434E+02 -0.17370097119E+02  0.22910716668E+02  0.00000000000E+00 0.  1.
<mgrwt>
<rscale>  0 0.79110706E+02</rscale>
<asrwt>0</asrwt>
<pdfrwt beam="1">  1        1 0.23110264E-01 0.79110706E+02</pdfrwt>
<pdfrwt beam="2">  1       -2 0.16024294E-02 0.79110706E+02</pdfrwt>
<totfact> 0.16271150E+05</totfact>
</mgrwt>
</event>
<event>
 8    1  0.1319619E-024  0.8102832E+02  0.7818608E-02  0.1326158E+00
          1   -1    0    0  501    0  0.00000000000E+00  0.00000000000E+00  0.35548826177E+02  0.35548826534E+02  0.50400000000E-02 0. -1.
         -2   -1    0    0    0  501 -0.00000000000E+00 -0.00000000000E+00 -0.46173035500E+02  0.46173035571E+02  0.25500000000E-02 0.  1.
        -24    2    1    2    0    0 -0.71054273576E-14  0.00000000000E+00 -0.10624209324E+02  0.81721862105E+02  0.81028321729E+02 0.  0.
         66    2    3    3    0    0  0.38141227253E+02 -0.10867971533E+02 -0.13541504990E+02  0.41955195164E+02  0.20000055642E+01 0.  0.
         13    1    3    3    0    0 -0.38141227253E+02  0.10867971533E+02  0.29172956665E+01  0.39766666941E+02  0.10566000000E+00 0. -1.
         13    1    4    4    0    0  0.72557997604E+00 -0.10137914555E+00 -0.39129449684E+00  0.83726904376E+00  0.10566000000E+00 0. -1.
        -13    1    4    4    0    0  0.68488156235E+01 -0.24187118492E+01 -0.21294485695E+01  0.75698188684E+01  0.10566000000E+00 0.  1.
         14    1    4    4    0    0  0.30566831653E+02 -0.83478805380E+01 -0.11020761924E+02  0.33548107252E+02  0.00000000000E+00 0. -1.
<mgrwt>
<rscale>  0 0.81028322E+02</rscale>
<asrwt>0</asrwt>
<pdfrwt beam="1">  1        1 0.54690502E-02 0.81028322E+02</pdfrwt>
<pdfrwt beam="2">  1       -2 0.71035440E-02 0.81028322E+02</pdfrwt>
<totfact> 0.12008902E+05</totfact>
</mgrwt>
</event>
<event>
 8    1  0.1319619E-024  0.7969864E+02  0.7818608E-02  0.1329909E+00
          1   -1    0    0  501    0  0.00000000000E+00  0.00000000000E+00  0.19276941711E+01  0.19277007597E+01  0.50400000000E-02 0. -1.
         -2   -1    0    0    0  501 -0.00000000000E+00 -0.00000000000E+00 -0.82376430172E+03  0.82376430173E+03  0.25500000000E-02 0.  1.
        -24    2    1    2    0    0  0.00000000000E+00  0.00000000000E+00 -0.82183660755E+03  0.82569200249E+03  0.79698641507E+02 0.  0.
         66    2    3    3    0    0 -0.16631682526E+02  0.66287663005E+01 -0.77971478943E+03  0.77992288481E+03  0.19999998551E+01 0.  0.
         13    1    3    3    0    0  0.16631682526E+02 -0.66287663005E+01 -0.42121818125E+02  0.45769117672E+02  0.10566000000E+00 0. -1.
         13    1    4    4    0    0 -0.12903662118E+01  0.81949944886E+00 -0.82487330665E+02  0.82501560644E+02  0.10566000000E+00 0. -1.
        -13    1    4    4    0    0 -0.76655446666E+01  0.30073595512E+01 -0.32663678786E+03  0.32674058079E+03  0.10566000000E+00 0.  1.
        -14    1    4    4    0    0 -0.76757716480E+01  0.28019073004E+01 -0.37059067090E+03  0.37068074338E+03  0.00000000000E+00 0.  1.
<mgrwt>
<rscale>  0 0.79698642E+02</rscale>
<asrwt>0</asrwt>
<pdfrwt beam="1">  1        1 0.29656950E-03 0.79698642E+02</pdfrwt>
<pdfrwt beam="2">  1       -2 0.12673269E+00 0.79698642E+02</pdfrwt>
<totfact> 0.32560425E+04</totfact>
</mgrwt>
</event>
<event>
 8    1  0.1319619E-024  0.8227834E+02  0.7818608E-02  0.1322707E+00
         -2   -1    0    0    0  501 -0.00000000000E+00  0.00000000000E+00  0.67838810417E+01  0.67838815210E+01  0.25500000000E-02 0.  1.
          1   -1    0    0  501    0  0.00000000000E+00 -0.00000000000E+00 -0.24947834440E+03  0.24947834445E+03  0.50400000000E-02 0. -1.
        -24    2    1    2    0    0 -0.71054273576E-14 -0.55511151231E-16 -0.24269446336E+03  0.25626222597E+03  0.82278344145E+02 0.  0.
         66    2    3    3    0    0 -0.40445388415E+02 -0.34432375590E+00 -0.98430183087E+02  0.10643518659E+03  0.19999999041E+01 0.  0.
         13    1    3    3    0    0  0.40445388415E+02  0.34432375590E+00 -0.14426428027E+03  0.14982703938E+03  0.10566000000E+00 0. -1.
         13    1    4    4    0    0 -0.10513849277E+02 -0.69306272995E+00 -0.26834353868E+02  0.28829066480E+02  0.10566000000E+00 0. -1.
        -13    1    4    4    0    0 -0.33602282160E+01  0.98867076298E-01 -0.86929851292E+01  0.93209475299E+01  0.10566000000E+00 0.  1.
        -14    1    4    4    0    0 -0.26571310922E+02  0.24987189775E+00 -0.62902844090E+02  0.68285172583E+02  0.00000000000E+00 0.  1.
<mgrwt>
<rscale>  0 0.82278344E+02</rscale>
<asrwt>0</asrwt>
<pdfrwt beam="1">  1        1 0.38381277E-01 0.82278344E+02</pdfrwt>
<pdfrwt beam="2">  1       -2 0.10436742E-02 0.82278344E+02</pdfrwt>
<totfact> 0.16160570E+05</totfact>
</mgrwt>
</event>
<event>
 8    1  0.1379535E-024  0.8349254E+02  0.7818608E-02  0.1319422E+00
         -2   -1    0    0    0  501 -0.00000000000E+00  0.00000000000E+00  0.26130207221E+01  0.26130219664E+01  0.25500000000E-02 0.  1.
          1   -1    0    0  501    0  0.00000000000E+00 -0.00000000000E+00 -0.66694866586E+03  0.66694866588E+03  0.50400000000E-02 0. -1.
        -24    2    1    2    0    0  0.00000000000E+00  0.35527136788E-14 -0.66433564514E+03  0.66956168785E+03  0.83492541162E+02 0.  0.
         66    2    3    3    0    0  0.28867492315E+02 -0.25348563902E+02 -0.46287114552E+03  0.46446698393E+03  0.20000000716E+01 0.  0.
         13    1    3    3    0    0 -0.28867492315E+02  0.25348563902E+02 -0.20146449962E+03  0.20509470392E+03  0.10566000000E+00 0. -1.
         13    1    4    4    0    0  0.32005444886E+01 -0.30091463420E+01 -0.48635294048E+02  0.48833404939E+02  0.10566000000E+00 0.  1.
        -13    1    4    4    0    0  0.15923358601E+01 -0.10730252233E+01 -0.26119452537E+02  0.26190148558E+02  0.10566000000E+00 0.  1.
        -14    1    4    4    0    0  0.24074611966E+02 -0.21266392337E+02 -0.38811639894E+03  0.38944343043E+03  0.00000000000E+00 0.  1.
<mgrwt>
<rscale>  0 0.83492541E+02</rscale>
<asrwt>0</asrwt>
<pdfrwt beam="1">  1        1 0.10260735E+00 0.83492541E+02</pdfrwt>
<pdfrwt beam="2">  1       -2 0.40200381E-03 0.83492541E+02</pdfrwt>
<totfact> 0.17896069E+05</totfact>
</mgrwt>
</event>
<event>
 8    1  0.1319619E-024  0.8101860E+02  0.7818608E-02  0.1326185E+00
          1   -1    0    0  501    0  0.00000000000E+00  0.00000000000E+00  0.17792341704E+03  0.17792341712E+03  0.50400000000E-02 0. -1.
         -2   -1    0    0    0  501 -0.00000000000E+00 -0.00000000000E+00 -0.92230878180E+01  0.92230881705E+01  0.25500000000E-02 0.  1.
        -24    2    1    2    0    0  0.00000000000E+00  0.00000000000E+00  0.16870032923E+03  0.18714650529E+03  0.81018598851E+02 0.  0.
         66    2    3    3    0    0  0.35003145764E+02 -0.51655340836E+01  0.38954340863E+02  0.52662544844E+02  0.20000004058E+01 0.  0.
         13    1    3    3    0    0 -0.35003145764E+02  0.51655340836E+01  0.12974598836E+03  0.13448396044E+03  0.10566000000E+00 0. -1.
         13    1    4    4    0    0  0.14762220740E+02 -0.20977142266E+01  0.15122310560E+02  0.21237208076E+02  0.10566000000E+00 0. -1.
        -13    1    4    4    0    0  0.13091217862E+02 -0.22648052352E+01  0.15200642749E+02  0.20188611440E+02  0.10566000000E+00 0.  1.
         14    1    4    4    0    0  0.71497071625E+01 -0.80301462177E+00  0.86313875541E+01  0.11236725328E+02  0.00000000000E+00 0. -1.
<mgrwt>
<rscale>  0 0.81018599E+02</rscale>
<asrwt>0</asrwt>
<pdfrwt beam="1">  1        1 0.27372833E-01 0.81018599E+02</pdfrwt>
<pdfrwt beam="2">  1       -2 0.14189366E-02 0.81018599E+02</pdfrwt>
<totfact> 0.15761916E+05</totfact>
</mgrwt>
</event>
<event>
 8    1  0.1319619E-024  0.8166646E+02  0.7818608E-02  0.1324388E+00
         -2   -1    0    0    0  501 -0.00000000000E+00  0.00000000000E+00  0.40523160668E+02  0.40523160748E+02  0.25500000000E-02 0.  1.
          1   -1    0    0  501    0  0.00000000000E+00 -0.00000000000E+00 -0.41145668720E+02  0.41145669029E+02  0.50400000000E-02 0. -1.
        -24    2    1    2    0    0  0.00000000000E+00  0.00000000000E+00 -0.62250805211E+00  0.81668829777E+02  0.81666457257E+02 0.  0.
         66    2    3    3    0    0 -0.34904144926E+02  0.66106648743E+01  0.19772652792E+02  0.40705749168E+02  0.19999984549E+01 0.  0.
         13    1    3    3    0    0  0.34904144926E+02 -0.66106648743E+01 -0.20395160845E+02  0.40963080609E+02  0.10566000000E+00 0. -1.
         13    1    4    4    0    0 -0.11964967696E+02  0.29795138880E+01  0.72637032037E+01  0.14311202019E+02  0.10566000000E+00 0.  1.
        -13    1    4    4    0    0 -0.22422823782E+02  0.34292578895E+01  0.12282986782E+02  0.25795847812E+02  0.10566000000E+00 0. -1.
         14    1    4    4    0    0 -0.51635344797E+00  0.20189309677E+00  0.22596280714E+00  0.59869933686E+00  0.00000000000E+00 0. -1.
<mgrwt>
<rscale>  0 0.81666457E+02</rscale>
<asrwt>0</asrwt>
<pdfrwt beam="1">  1        1 0.63301029E-02 0.81666457E+02</pdfrwt>
<pdfrwt beam="2">  1       -2 0.62343324E-02 0.81666457E+02</pdfrwt>
<totfact> 0.12035762E+05</totfact>
</mgrwt>
</event>
<event>
 8    1  0.1319619E-024  0.7911184E+02  0.7818608E-02  0.1331591E+00
         -2   -1    0    0    0  501 -0.00000000000E+00  0.00000000000E+00  0.34227162165E+02  0.34227162260E+02  0.25500000000E-02 0.  1.
          1   -1    0    0  501    0  0.00000000000E+00 -0.00000000000E+00 -0.45714306383E+02  0.45714306661E+02  0.50400000000E-02 0. -1.
        -24    2    1    2    0    0 -0.17763568394E-14  0.00000000000E+00 -0.11487144218E+02  0.79941468921E+02  0.79111844695E+02 0.  0.
         66    2    3    3    0    0 -0.13296823445E+02 -0.35589138162E+02  0.52885490474E+01  0.38410428513E+02  0.19999996601E+01 0.  0.
         13    1    3    3    0    0  0.13296823445E+02  0.35589138162E+02 -0.16775693265E+02  0.41531040409E+02  0.10566000000E+00 0. -1.
         13    1    4    4    0    0 -0.35547486315E+01 -0.84378220277E+01  0.20388644257E+01  0.93808960439E+01  0.10566000000E+00 0. -1.
        -13    1    4    4    0    0 -0.40247158317E+01 -0.11025565891E+02  0.13623435545E+01  0.11816453984E+02  0.10566000000E+00 0.  1.
         14    1    4    4    0    0 -0.57173589820E+01 -0.16125750243E+02  0.18873410672E+01  0.17213078485E+02  0.00000000000E+00 0. -1.
<mgrwt>
<rscale>  0 0.79111845E+02</rscale>
<asrwt>0</asrwt>
<pdfrwt beam="1">  1        1 0.70329703E-02 0.79111845E+02</pdfrwt>
<pdfrwt beam="2">  1       -2 0.52657173E-02 0.79111845E+02</pdfrwt>
<totfact> 0.13383039E+05</totfact>
</mgrwt>
</event>
<event>
 8    1  0.1319619E-024  0.7833655E+02  0.7818608E-02  0.1333839E+00
          1   -1    0    0  501    0  0.00000000000E+00  0.00000000000E+00  0.32686934781E+03  0.32686934785E+03  0.50400000000E-02 0. -1.
         -2   -1    0    0    0  501 -0.00000000000E+00 -0.00000000000E+00 -0.46934762569E+01  0.46934769497E+01  0.25500000000E-02 0.  1.
        -24    2    1    2    0    0  0.71054273576E-14 -0.17763568394E-14  0.32217587155E+03  0.33156282479E+03  0.78336546882E+02 0.  0.
         66    2    3    3    0    0  0.29758614681E+02 -0.83747301127E+01  0.26281224960E+03  0.26463180040E+03  0.19999970458E+01 0.  0.
         13    1    3    3    0    0 -0.29758614681E+02  0.83747301127E+01  0.59363621947E+02  0.66931024397E+02  0.10566000000E+00 0. -1.
         13    1    4    4    0    0  0.13720435769E+02 -0.43369962098E+01  0.12410639037E+03  0.12493785330E+03  0.10566000000E+00 0. -1.
        -13    1    4    4    0    0  0.88171488981E+01 -0.15960906879E+01  0.76006280849E+02  0.76532708777E+02  0.10566000000E+00 0.  1.
        -14    1    4    4    0    0  0.72210300140E+01 -0.24416432151E+01  0.62699578389E+02  0.63161238320E+02  0.00000000000E+00 0.  1.
<mgrwt>
<rscale>  0 0.78336547E+02</rscale>
<asrwt>0</asrwt>
<pdfrwt beam="1">  1        1 0.50287625E-01 0.78336547E+02</pdfrwt>
<pdfrwt beam="2">  1       -2 0.72207285E-03 0.78336547E+02</pdfrwt>
<totfact> 0.19376152E+05</totfact>
</mgrwt>
</event>
<event>
 8    1  0.1319619E-024  0.7919799E+02  0.7818608E-02  0.1331343E+00
         -2   -1    0    0    0  501 -0.00000000000E+00  0.00000000000E+00  0.22328473363E+03  0.22328473365E+03  0.25500000000E-02 0.  1.
          1   -1    0    0  501    0  0.00000000000E+00 -0.00000000000E+00 -0.70227830703E+01  0.70227848788E+01  0.50400000000E-02 0. -1.
        -24    2    1    2    0    0  0.17763568394E-14  0.17763568394E-14  0.21626195056E+03  0.23030751853E+03  0.79197991317E+02 0.  0.
         66    2    3    3    0    0 -0.11015450362E+02 -0.94462217310E+01  0.21526396896E+03  0.21576178434E+03  0.19999995501E+01 0.  0.
         13    1    3    3    0    0  0.11015450362E+02  0.94462217310E+01  0.99798160300E+00  0.14545734185E+02  0.10566000000E+00 0. -1.
         13    1    4    4    0    0 -0.17433131444E+01 -0.97214641582E+00  0.25766204514E+02  0.25843619493E+02  0.10566000000E+00 0. -1.
        -13    1    4    4    0    0 -0.89452190650E+01 -0.81163089857E+01  0.18511984272E+03  0.18551350018E+03  0.10566000000E+00 0.  1.
        -14    1    4    4    0    0 -0.32691815243E+00 -0.35776632952E+00  0.43779217240E+01  0.44046646690E+01  0.00000000000E+00 0.  1.
<mgrwt>
<rscale>  0 0.79197991E+02</rscale>
<asrwt>0</asrwt>
<pdfrwt beam="1">  1        1 0.10804283E-02 0.79197991E+02</pdfrwt>
<pdfrwt beam="2">  1       -2 0.34351499E-01 0.79197991E+02</pdfrwt>
<totfact> 0.83349115E+04</totfact>
</mgrwt>
</event>
<event>
 8    1  0.1319619E-024  0.8047402E+02  0.7818608E-02  0.1327712E+00
         -2   -1    0    0    0  501 -0.00000000000E+00  0.00000000000E+00  0.55124246454E+01  0.55124252352E+01  0.25500000000E-02 0.  1.
          1   -1    0    0  501    0  0.00000000000E+00 -0.00000000000E+00 -0.29370318815E+03  0.29370318820E+03  0.50400000000E-02 0. -1.
        -24    2    1    2    0    0 -0.35527136788E-14  0.00000000000E+00 -0.28819076351E+03  0.29921561343E+03  0.80474015372E+02 0.  0.
         66    2    3    3    0    0  0.23987563671E+02  0.31263171803E+02 -0.17398115708E+03  0.17839908109E+03  0.19999984295E+01 0.  0.
         13    1    3    3    0    0 -0.23987563671E+02 -0.31263171803E+02 -0.11420960643E+03  0.12081653234E+03  0.10566000000E+00 0. -1.
         13    1    4    4    0    0  0.94557720747E+01  0.12680734748E+02 -0.67245989971E+02  0.69081451856E+02  0.10566000000E+00 0. -1.
        -13    1    4    4    0    0  0.13691886623E+02  0.17510322367E+02 -0.10175851246E+03  0.10415798179E+03  0.10566000000E+00 0.  1.
        -14    1    4    4    0    0  0.83990497382E+00  0.10721146882E+01 -0.49766546493E+01  0.51596474461E+01  0.00000000000E+00 0.  1.
<mgrwt>
<rscale>  0 0.80474015E+02</rscale>
<asrwt>0</asrwt>
<pdfrwt beam="1">  1        1 0.45185094E-01 0.80474015E+02</pdfrwt>
<pdfrwt beam="2">  1       -2 0.84806560E-03 0.80474015E+02</pdfrwt>
<totfact> 0.17690822E+05</totfact>
</mgrwt>
</event>
<event>
 8    1  0.1319619E-024  0.7951592E+02  0.7818608E-02  0.1330431E+00
          1   -1    0    0  501    0  0.00000000000E+00  0.00000000000E+00  0.27752000505E+02  0.27752000963E+02  0.50400000000E-02 0. -1.
         -2   -1    0    0    0  501 -0.00000000000E+00 -0.00000000000E+00 -0.56957886701E+02  0.56957886758E+02  0.25500000000E-02 0.  1.
        -24    2    1    2    0    0  0.00000000000E+00  0.00000000000E+00 -0.29205886195E+02  0.84709887720E+02  0.79515918464E+02 0.  0.
         66    2    3    3    0    0 -0.28626500409E+02  0.85092815644E+01 -0.42530975564E+02  0.52007386759E+02  0.19999991527E+01 0.  0.
         13    1    3    3    0    0  0.28626500409E+02 -0.85092815644E+01  0.13325089369E+02  0.32702500962E+02  0.10566000000E+00 0. -1.
         13    1    4    4    0    0 -0.18236827554E+01  0.94110658948E+00 -0.33337452905E+01  0.39161871894E+01  0.10566000000E+00 0. -1.
        -13    1    4    4    0    0 -0.11112874999E+02  0.30638803248E+01 -0.16898466106E+02  0.20456115813E+02  0.10566000000E+00 0.  1.
         14    1    4    4    0    0 -0.15689942655E+02  0.45042946502E+01 -0.22298764168E+02  0.27635083756E+02  0.00000000000E+00 0. -1.
<mgrwt>
<rscale>  0 0.79515918E+02</rscale>
<asrwt>0</asrwt>
<pdfrwt beam="1">  1        1 0.42695386E-02 0.79515918E+02</pdfrwt>
<pdfrwt beam="2">  1       -2 0.87627518E-02 0.79515918E+02</pdfrwt>
<totfact> 0.12137589E+05</totfact>
</mgrwt>
</event>
<event>
 8    1  0.1319619E-024  0.8213518E+02  0.7818608E-02  0.1323099E+00
          1   -1    0    0  501    0  0.00000000000E+00  0.00000000000E+00  0.24157813386E+03  0.24157813391E+03  0.50400000000E-02 0. -1.
         -2   -1    0    0    0  501 -0.00000000000E+00 -0.00000000000E+00 -0.69813724129E+01  0.69813728786E+01  0.25500000000E-02 0.  1.
        -24    2    1    2    0    0  0.00000000000E+00 -0.17763568394E-14  0.23459676145E+03  0.24855950679E+03  0.82135180860E+02 0.  0.
         66    2    3    3    0    0 -0.35724384863E+02 -0.12263872547E+02  0.16596741001E+03  0.17022284050E+03  0.19999992244E+01 0.  0.
         13    1    3    3    0    0  0.35724384863E+02  0.12263872547E+02  0.68629351434E+02  0.78336666294E+02  0.10566000000E+00 0. -1.
         13    1    4    4    0    0 -0.59897298991E+01 -0.22434194439E+01  0.27711458544E+02  0.28440216134E+02  0.10566000000E+00 0.  1.
        -13    1    4    4    0    0 -0.10094531937E+02 -0.39616360067E+01  0.44937908945E+02  0.46227924021E+02  0.10566000000E+00 0. -1.
        -14    1    4    4    0    0 -0.19640123027E+02 -0.60588170963E+01  0.93318042525E+02  0.95554700344E+02  0.00000000000E+00 0.  1.
<mgrwt>
<rscale>  0 0.82135181E+02</rscale>
<asrwt>0</asrwt>
<pdfrwt beam="1">  1        1 0.37165862E-01 0.82135181E+02</pdfrwt>
<pdfrwt beam="2">  1       -2 0.10740575E-02 0.82135181E+02</pdfrwt>
<totfact> 0.16133242E+05</totfact>
</mgrwt>
</event>
<event>
 8    1  0.1319619E-024  0.8082427E+02  0.7818608E-02  0.1326728E+00
         -2   -1    0    0    0  501 -0.00000000000E+00  0.00000000000E+00  0.67188753352E+01  0.67188758191E+01  0.25500000000E-02 0.  1.
          1   -1    0    0  501    0  0.00000000000E+00 -0.00000000000E+00 -0.24306754306E+03  0.24306754311E+03  0.50400000000E-02 0. -1.
        -24    2    1    2    0    0  0.00000000000E+00  0.00000000000E+00 -0.23634866772E+03  0.24978641893E+03  0.80824268306E+02 0.  0.
         66    2    3    3    0    0  0.39576958909E+02 -0.70203413375E+01 -0.13041953841E+03  0.13648764370E+03  0.20000032147E+01 0.  0.
         13    1    3    3    0    0 -0.39576958909E+02  0.70203413375E+01 -0.10592912931E+03  0.11329877523E+03  0.10566000000E+00 0. -1.
         13    1    4    4    0    0  0.69091761460E+01 -0.77014935152E+00 -0.24451362997E+02  0.25420664064E+02  0.10566000000E+00 0. -1.
        -13    1    4    4    0    0  0.88437647823E+01 -0.15003580464E+01 -0.28008625169E+02  0.29410159770E+02  0.10566000000E+00 0.  1.
         14    1    4    4    0    0  0.23824017981E+02 -0.47498339395E+01 -0.77959550248E+02  0.81656819862E+02  0.00000000000E+00 0. -1.
<mgrwt>
<rscale>  0 0.80824268E+02</rscale>
<asrwt>0</asrwt>
<pdfrwt beam="1">  1        1 0.37395000E-01 0.80824268E+02</pdfrwt>
<pdfrwt beam="2">  1       -2 0.10336734E-02 0.80824268E+02</pdfrwt>
<totfact> 0.16856483E+05</totfact>
</mgrwt>
</event>
<event>
 8    1  0.1319619E-024  0.7899018E+02  0.7818608E-02  0.1331942E+00
         -2   -1    0    0    0  501 -0.00000000000E+00  0.00000000000E+00  0.40538341631E+02  0.40538341711E+02  0.25500000000E-02 0.  1.
          1   -1    0    0  501    0  0.00000000000E+00 -0.00000000000E+00 -0.38478684150E+02  0.38478684480E+02  0.50400000000E-02 0. -1.
        -24    2    1    2    0    0 -0.44408920985E-15  0.00000000000E+00  0.20596574803E+01  0.79017026191E+02  0.78990178118E+02 0.  0.
         66    2    3    3    0    0 -0.36106293466E+01  0.32013608975E+02  0.23840634542E+02  0.40128339794E+02  0.19999988394E+01 0.  0.
         13    1    3    3    0    0  0.36106293466E+01 -0.32013608975E+02 -0.21780977062E+02  0.38888686397E+02  0.10566000000E+00 0. -1.
         13    1    4    4    0    0 -0.97130057377E+00  0.53760485196E+01  0.44215805998E+01  0.70290014601E+01  0.10566000000E+00 0. -1.
        -13    1    4    4    0    0  0.52268777277E-01  0.42996322207E+01  0.29226717790E+01  0.52002638031E+01  0.10566000000E+00 0.  1.
        -14    1    4    4    0    0 -0.26915975501E+01  0.22337928235E+02  0.16496382164E+02  0.27899074531E+02  0.00000000000E+00 0.  1.
<mgrwt>
<rscale>  0 0.78990178E+02</rscale>
<asrwt>0</asrwt>
<pdfrwt beam="1">  1        1 0.59197976E-02 0.78990178E+02</pdfrwt>
<pdfrwt beam="2">  1       -2 0.62366680E-02 0.78990178E+02</pdfrwt>
<totfact> 0.13077813E+05</totfact>
</mgrwt>
</event>
<event>
 8    1  0.1319619E-024  0.7888653E+02  0.7818608E-02  0.1332241E+00
         -2   -1    0    0    0  501 -0.00000000000E+00  0.00000000000E+00  0.61367256719E+01  0.61367262017E+01  0.25500000000E-02 0.  1.
          1   -1    0    0  501    0  0.00000000000E+00 -0.00000000000E+00 -0.25351813059E+03  0.25351813064E+03  0.50400000000E-02 0. -1.
        -24    2    1    2    0    0  0.00000000000E+00  0.00000000000E+00 -0.24738140492E+03  0.25965485685E+03  0.78886533593E+02 0.  0.
         66    2    3    3    0    0  0.33066698437E+02  0.16845174720E+02 -0.80028976899E+02  0.88237200853E+02  0.20000034958E+01 0.  0.
         13    1    3    3    0    0 -0.33066698437E+02 -0.16845174720E+02 -0.16735242802E+03  0.17141765599E+03  0.10566000000E+00 0. -1.
         13    1    4    4    0    0  0.41412474341E+01  0.19900644955E+01 -0.92704838778E+01  0.10347140782E+02  0.10566000000E+00 0. -1.
        -13    1    4    4    0    0  0.78621249192E+01  0.46493975303E+01 -0.18686701598E+02  0.20799853035E+02  0.10566000000E+00 0.  1.
        -14    1    4    4    0    0  0.21063326084E+02  0.10205712694E+02 -0.52071791424E+02  0.57090207036E+02  0.00000000000E+00 0.  1.
<mgrwt>
<rscale>  0 0.78886534E+02</rscale>
<asrwt>0</asrwt>
<pdfrwt beam="1">  1        1 0.39002781E-01 0.78886534E+02</pdfrwt>
<pdfrwt beam="2">  1       -2 0.94411188E-03 0.78886534E+02</pdfrwt>
<totfact> 0.18121341E+05</totfact>
</mgrwt>
</event>
<event>
 8    1  0.1319619E-024  0.7400952E+02  0.7818608E-02  0.1346966E+00
         -2   -1    0    0    0  501 -0.00000000000E+00  0.00000000000E+00  0.24403526268E+01  0.24403539591E+01  0.25500000000E-02 0.  1.
          1   -1    0    0  501    0  0.00000000000E+00 -0.00000000000E+00 -0.56112874540E+03  0.56112874543E+03  0.50400000000E-02 0. -1.
        -24    2    1    2    0    0  0.00000000000E+00  0.00000000000E+00 -0.55868839278E+03  0.56356909939E+03  0.74009523431E+02 0.  0.
         66    2    3    3    0    0 -0.82507586353E+01  0.10852566560E+02 -0.54129080949E+03  0.54146615191E+03  0.20000005875E+01 0.  0.
         13    1    3    3    0    0  0.82507586353E+01 -0.10852566560E+02 -0.17397583284E+02  0.22102947477E+02  0.10566000000E+00 0. -1.
         13    1    4    4    0    0 -0.92962143819E+00  0.14042220930E+01 -0.74835955210E+02  0.74854975733E+02  0.10566000000E+00 0. -1.
        -13    1    4    4    0    0 -0.42266925620E+01  0.46211920154E+01 -0.27014540476E+03  0.27021800684E+03  0.10566000000E+00 0.  1.
         14    1    4    4    0    0 -0.30944446351E+01  0.48271524517E+01 -0.19630944953E+03  0.19639316934E+03  0.00000000000E+00 0. -1.
<mgrwt>
<rscale>  0 0.74009523E+02</rscale>
<asrwt>0</asrwt>
<pdfrwt beam="1">  1        1 0.86327397E-01 0.74009523E+02</pdfrwt>
<pdfrwt beam="2">  1       -2 0.37543941E-03 0.74009523E+02</pdfrwt>
<totfact> 0.24302764E+05</totfact>
</mgrwt>
</event>
<event>
 8    1  0.1319619E-024  0.7660906E+02  0.7818608E-02  0.1338959E+00
         -2   -1    0    0    0  501 -0.00000000000E+00  0.00000000000E+00  0.85031189810E+02  0.85031189848E+02  0.25500000000E-02 0.  1.
          1   -1    0    0  501    0  0.00000000000E+00 -0.00000000000E+00 -0.17255278677E+02  0.17255279413E+02  0.50400000000E-02 0. -1.
        -24    2    1    2    0    0  0.35527136788E-14 -0.71054273576E-14  0.67775911133E+02  0.10228646926E+03  0.76609057324E+02 0.  0.
         66    2    3    3    0    0  0.25543463888E+02  0.27666119927E+02  0.43098431802E+02  0.57265675295E+02  0.20000010005E+01 0.  0.
         13    1    3    3    0    0 -0.25543463888E+02 -0.27666119927E+02  0.24677479331E+02  0.45020793966E+02  0.10566000000E+00 0. -1.
         13    1    4    4    0    0  0.71898400656E+01  0.69352274463E+01  0.12159555289E+02  0.15737125810E+02  0.10566000000E+00 0. -1.
        -13    1    4    4    0    0  0.62053034152E+01  0.73506536340E+01  0.11267201627E+02  0.14815495127E+02  0.10566000000E+00 0.  1.
         14    1    4    4    0    0  0.12148320407E+02  0.13380238846E+02  0.19671674886E+02  0.26713054358E+02  0.00000000000E+00 0. -1.
<mgrwt>
<rscale>  0 0.76609057E+02</rscale>
<asrwt>0</asrwt>
<pdfrwt beam="1">  1        1 0.26546583E-02 0.76609057E+02</pdfrwt>
<pdfrwt beam="2">  1       -2 0.13081722E-01 0.76609057E+02</pdfrwt>
<totfact> 0.12314481E+05</totfact>
</mgrwt>
</event>
<event>
 8    1  0.1319619E-024  0.8006716E+02  0.7818608E-02  0.1328861E+00
         -2   -1    0    0    0  501 -0.00000000000E+00  0.00000000000E+00  0.34333889860E+01  0.34333899330E+01  0.25500000000E-02 0.  1.
          1   -1    0    0  501    0  0.00000000000E+00 -0.00000000000E+00 -0.46679452573E+03  0.46679452576E+03  0.50400000000E-02 0. -1.
        -24    2    1    2    0    0  0.00000000000E+00  0.00000000000E+00 -0.46336113675E+03  0.47022791569E+03  0.80067157123E+02 0.  0.
         66    2    3    3    0    0 -0.91946543346E+01 -0.38911678156E+02 -0.24017602427E+03  0.24348959524E+03  0.19999980452E+01 0.  0.
         13    1    3    3    0    0  0.91946543346E+01  0.38911678156E+02 -0.22318511248E+03  0.22673832045E+03  0.10566000000E+00 0. -1.
         13    1    4    4    0    0 -0.20121943470E+01 -0.83954614444E+01 -0.53859179905E+02  0.54546815883E+02  0.10566000000E+00 0.  1.
        -13    1    4    4    0    0 -0.16536417279E+01 -0.61176413756E+01 -0.41421981518E+02  0.41904078368E+02  0.10566000000E+00 0.  1.
        -14    1    4    4    0    0 -0.55288182598E+01 -0.24398575336E+02 -0.14489486284E+03  0.14703870099E+03  0.00000000000E+00 0.  1.
<mgrwt>
<rscale>  0 0.80067157E+02</rscale>
<asrwt>0</asrwt>
<pdfrwt beam="1">  1        1 0.71814492E-01 0.80067157E+02</pdfrwt>
<pdfrwt beam="2">  1       -2 0.52821413E-03 0.80067157E+02</pdfrwt>
<totfact> 0.19395989E+05</totfact>
</mgrwt>
</event>
<event>
 8    1  0.1319619E-024  0.8192872E+02  0.7818608E-02  0.1323665E+00
          1   -1    0    0  501    0  0.00000000000E+00  0.00000000000E+00  0.15376277374E+03  0.15376277382E+03  0.50400000000E-02 0. -1.
         -2   -1    0    0    0  501 -0.00000000000E+00 -0.00000000000E+00 -0.10913426528E+02  0.10913426825E+02  0.25500000000E-02 0.  1.
        -24    2    1    2    0    0 -0.11102230246E-15  0.00000000000E+00  0.14284934721E+03  0.16467620065E+03  0.81928719390E+02 0.  0.
         66    2    3    3    0    0 -0.55265756237E+00 -0.39700181445E+02  0.51400984587E+02  0.64980543631E+02  0.19999992206E+01 0.  0.
         13    1    3    3    0    0  0.55265756237E+00  0.39700181445E+02  0.91448362626E+02  0.99695657017E+02  0.10566000000E+00 0. -1.
         13    1    4    4    0    0  0.20069927307E-01 -0.98066152388E+00  0.92005676101E+00  0.13489878819E+01  0.10566000000E+00 0.  1.
        -13    1    4    4    0    0 -0.39345179822E-02 -0.38292399837E+00  0.49912714473E+00  0.63791708800E+00  0.10566000000E+00 0.  1.
        -14    1    4    4    0    0 -0.56879297170E+00 -0.38336595923E+02  0.49981800681E+02  0.62993638661E+02  0.00000000000E+00 0.  1.
<mgrwt>
<rscale>  0 0.81928719E+02</rscale>
<asrwt>0</asrwt>
<pdfrwt beam="1">  1        1 0.23655812E-01 0.81928719E+02</pdfrwt>
<pdfrwt beam="2">  1       -2 0.16789887E-02 0.81928719E+02</pdfrwt>
<totfact> 0.14882008E+05</totfact>
</mgrwt>
</event>
<event>
 8    1  0.1319619E-024  0.7743972E+02  0.7818608E-02  0.1336478E+00
         -2   -1    0    0    0  501 -0.00000000000E+00  0.00000000000E+00  0.36075587824E+03  0.36075587825E+03  0.25500000000E-02 0.  1.
          1   -1    0    0  501    0  0.00000000000E+00 -0.00000000000E+00 -0.41557934796E+01  0.41557965358E+01  0.50400000000E-02 0. -1.
        -24    2    1    2    0    0  0.00000000000E+00  0.00000000000E+00  0.35660008476E+03  0.36491167478E+03  0.77439718124E+02 0.  0.
         66    2    3    3    0    0 -0.75431683515E+01 -0.19359289961E+02  0.33223732249E+03  0.33289235490E+03  0.19999990638E+01 0.  0.
         13    1    3    3    0    0  0.75431683515E+01  0.19359289961E+02  0.24362762265E+02  0.32019319884E+02  0.10566000000E+00 0. -1.
         13    1    4    4    0    0 -0.15482746918E+01 -0.49486095450E+01  0.77863820088E+02  0.78036347516E+02  0.10566000000E+00 0. -1.
        -13    1    4    4    0    0 -0.59019927129E+01 -0.13223492561E+02  0.23368745299E+03  0.23413571090E+03  0.10566000000E+00 0.  1.
         14    1    4    4    0    0 -0.92900946780E-01 -0.11871878557E+01  0.20686049419E+02  0.20720296478E+02  0.00000000000E+00 0. -1.
<mgrwt>
<rscale>  0 0.77439718E+02</rscale>
<asrwt>0</asrwt>
<pdfrwt beam="1">  1        1 0.63935309E-03 0.77439718E+02</pdfrwt>
<pdfrwt beam="2">  1       -2 0.55500904E-01 0.77439718E+02</pdfrwt>
<totfact> 0.68662339E+04</totfact>
</mgrwt>
</event>
<event>
 8    1  0.1319619E-024  0.7810375E+02  0.7818608E-02  0.1334520E+00
         -2   -1    0    0    0  501 -0.00000000000E+00  0.00000000000E+00  0.25717836772E+03  0.25717836773E+03  0.25500000000E-02 0.  1.
          1   -1    0    0  501    0  0.00000000000E+00 -0.00000000000E+00 -0.59299253295E+01  0.59299274713E+01  0.50400000000E-02 0. -1.
        -24    2    1    2    0    0  0.00000000000E+00  0.00000000000E+00  0.25124844239E+03  0.26310829520E+03  0.78103746398E+02 0.  0.
         66    2    3    3    0    0 -0.20309084903E+01 -0.17032546952E+02  0.24379424635E+03  0.24440512842E+03  0.19999997368E+01 0.  0.
         13    1    3    3    0    0  0.20309084903E+01  0.17032546952E+02  0.74541960328E+01  0.18703166778E+02  0.10566000000E+00 0. -1.
         13    1    4    4    0    0 -0.12092016547E+01 -0.89136223083E+01  0.13483724296E+03  0.13513699746E+03  0.10566000000E+00 0.  1.
        -13    1    4    4    0    0 -0.25820716370E+00 -0.52657753082E+01  0.76226878288E+02  0.76409051807E+02  0.10566000000E+00 0. -1.
         14    1    4    4    0    0 -0.56349967185E+00 -0.28531493359E+01  0.32730125109E+02  0.32859079151E+02  0.00000000000E+00 0. -1.
<mgrwt>
<rscale>  0 0.78103746E+02</rscale>
<asrwt>0</asrwt>
<pdfrwt beam="1">  1        1 0.91229655E-03 0.78103746E+02</pdfrwt>
<pdfrwt beam="2">  1       -2 0.39565895E-01 0.78103746E+02</pdfrwt>
<totfact> 0.80928339E+04</totfact>
</mgrwt>
</event>
<event>
 8    1  0.1319619E-024  0.7797720E+02  0.7818608E-02  0.1334892E+00
         -2   -1    0    0    0  501 -0.00000000000E+00  0.00000000000E+00  0.26081631476E+01  0.26081643942E+01  0.25500000000E-02 0.  1.
          1   -1    0    0  501    0  0.00000000000E+00 -0.00000000000E+00 -0.58282808657E+03  0.58282808659E+03  0.50400000000E-02 0. -1.
        -24    2    1    2    0    0  0.00000000000E+00  0.00000000000E+00 -0.58021992342E+03  0.58543625098E+03  0.77977204568E+02 0.  0.
         66    2    3    3    0    0  0.22296488284E+02  0.25894586994E+02 -0.43084700501E+03  0.43220458669E+03  0.19999999745E+01 0.  0.
         13    1    3    3    0    0 -0.22296488284E+02 -0.25894586994E+02 -0.14937291841E+03  0.15323166429E+03  0.10566000000E+00 0. -1.
         13    1    4    4    0    0  0.58691111017E+01  0.76912295484E+01 -0.12915861623E+03  0.12952050335E+03  0.10566000000E+00 0. -1.
        -13    1    4    4    0    0  0.48673980632E+01  0.58887384870E+01 -0.94084255169E+02  0.94393998960E+02  0.10566000000E+00 0.  1.
         14    1    4    4    0    0  0.11559979119E+02  0.12314618958E+02 -0.20760413362E+03  0.20829008438E+03  0.00000000000E+00 0. -1.
<mgrwt>
<rscale>  0 0.77977205E+02</rscale>
<asrwt>0</asrwt>
<pdfrwt beam="1">  1        1 0.89665756E-01 0.77977205E+02</pdfrwt>
<pdfrwt beam="2">  1       -2 0.40125643E-03 0.77977205E+02</pdfrwt>
<totfact> 0.21275387E+05</totfact>
</mgrwt>
</event>
<event>
 8    1  0.1319619E-024  0.7929600E+02  0.7818608E-02  0.1331061E+00
         -2   -1    0    0    0  501 -0.00000000000E+00  0.00000000000E+00  0.39274021963E+01  0.39274030241E+01  0.25500000000E-02 0.  1.
          1   -1    0    0  501    0  0.00000000000E+00 -0.00000000000E+00 -0.40025533177E+03  0.40025533180E+03  0.50400000000E-02 0. -1.
        -24    2    1    2    0    0  0.00000000000E+00  0.71054273576E-14 -0.39632792957E+03  0.40418273482E+03  0.79295998456E+02 0.  0.
         66    2    3    3    0    0 -0.85815216055E+01  0.37376740620E+02 -0.24908123627E+03  0.25202405743E+03  0.20000029635E+01 0.  0.
         13    1    3    3    0    0  0.85815216055E+01 -0.37376740620E+02 -0.14724669331E+03  0.15215867739E+03  0.10566000000E+00 0. -1.
         13    1    4    4    0    0 -0.44776421879E+00  0.10230104420E+01 -0.87262638270E+01  0.87980615805E+01  0.10566000000E+00 0. -1.
        -13    1    4    4    0    0 -0.24944870032E+01  0.12824717999E+02 -0.84370504530E+02  0.85376162105E+02  0.10566000000E+00 0.  1.
         14    1    4    4    0    0 -0.56392703835E+01  0.23529012179E+02 -0.15598446791E+03  0.15784983374E+03  0.00000000000E+00 0. -1.
<mgrwt>
<rscale>  0 0.79295998E+02</rscale>
<asrwt>0</asrwt>
<pdfrwt beam="1">  1        1 0.61577711E-01 0.79295998E+02</pdfrwt>
<pdfrwt beam="2">  1       -2 0.60421610E-03 0.79295998E+02</pdfrwt>
<totfact> 0.19441381E+05</totfact>
</mgrwt>
</event>
<event>
 8    1  0.1319619E-024  0.7941696E+02  0.7818608E-02  0.1330714E+00
          1   -1    0    0  501    0  0.00000000000E+00  0.00000000000E+00  0.14813423315E+02  0.14813424172E+02  0.50400000000E-02 0. -1.
         -2   -1    0    0    0  501 -0.00000000000E+00 -0.00000000000E+00 -0.10644151983E+03  0.10644151986E+03  0.25500000000E-02 0.  1.
        -24    2    1    2    0    0 -0.44408920985E-15  0.00000000000E+00 -0.91628096518E+02  0.12125494404E+03  0.79416959030E+02 0.  0.
         66    2    3    3    0    0  0.36107441330E+01 -0.38351303731E+02 -0.60399771166E+02  0.71665837980E+02  0.20000013724E+01 0.  0.
         13    1    3    3    0    0 -0.36107441330E+01  0.38351303731E+02 -0.31228325351E+02  0.49589106055E+02  0.10566000000E+00 0. -1.
         13    1    4    4    0    0  0.48191367287E-02 -0.31233802728E+01 -0.52153408645E+01  0.60800059145E+01  0.10566000000E+00 0. -1.
        -13    1    4    4    0    0  0.86696371293E+00 -0.49440571919E+01 -0.71809449152E+01  0.87619895861E+01  0.10566000000E+00 0.  1.
        -14    1    4    4    0    0  0.27389612833E+01 -0.30283866266E+02 -0.48003485386E+02  0.56823842480E+02  0.00000000000E+00 0.  1.
<mgrwt>
<rscale>  0 0.79416959E+02</rscale>
<asrwt>0</asrwt>
<pdfrwt beam="1">  1        1 0.22789883E-02 0.79416959E+02</pdfrwt>
<pdfrwt beam="2">  1       -2 0.16375618E-01 0.79416959E+02</pdfrwt>
<totfact> 0.10643834E+05</totfact>
</mgrwt>
</event>
<event>
 8    1  0.1319619E-024  0.7894674E+02  0.7818608E-02  0.1332067E+00
         -2   -1    0    0    0  501 -0.00000000000E+00  0.00000000000E+00  0.33672732352E+02  0.33672732448E+02  0.25500000000E-02 0.  1.
          1   -1    0    0  501    0  0.00000000000E+00 -0.00000000000E+00 -0.46273249949E+02  0.46273250224E+02  0.50400000000E-02 0. -1.
        -24    2    1    2    0    0 -0.35527136788E-14  0.00000000000E+00 -0.12600517597E+02  0.79945982672E+02  0.78946735852E+02 0.  0.
         66    2    3    3    0    0  0.26977612412E+02 -0.11375130635E+02  0.20468126486E+02  0.35778895900E+02  0.20000053992E+01 0.  0.
         13    1    3    3    0    0 -0.26977612412E+02  0.11375130635E+02 -0.33068644083E+02  0.44167086772E+02  0.10566000000E+00 0. -1.
         13    1    4    4    0    0  0.78516310180E+01 -0.30011854011E+01  0.50561372012E+01  0.98097355157E+01  0.10566000000E+00 0. -1.
        -13    1    4    4    0    0  0.68871548760E+01 -0.31506962282E+01  0.50455693037E+01  0.91010286585E+01  0.10566000000E+00 0.  1.
         14    1    4    4    0    0  0.12238826518E+02 -0.52232490056E+01  0.10366419981E+02  0.16868131726E+02  0.00000000000E+00 0. -1.
<mgrwt>
<rscale>  0 0.78946736E+02</rscale>
<asrwt>0</asrwt>
<pdfrwt beam="1">  1        1 0.71189616E-02 0.78946736E+02</pdfrwt>
<pdfrwt beam="2">  1       -2 0.51804203E-02 0.78946736E+02</pdfrwt>
<totfact> 0.13486873E+05</totfact>
</mgrwt>
</event>
<event>
 8    1  0.1319619E-024  0.8149696E+02  0.7818608E-02  0.1324856E+00
         -2   -1    0    0    0  501 -0.00000000000E+00  0.00000000000E+00  0.15435465814E+02  0.15435466024E+02  0.25500000000E-02 0.  1.
          1   -1    0    0  501    0  0.00000000000E+00 -0.00000000000E+00 -0.10757294244E+03  0.10757294256E+03  0.50400000000E-02 0. -1.
        -24    2    1    2    0    0  0.00000000000E+00  0.00000000000E+00 -0.92137476627E+02  0.12300840858E+03  0.81496956894E+02 0.  0.
         66    2    3    3    0    0 -0.22364973114E+02  0.25310611729E+02 -0.11756698319E+02  0.35819534442E+02  0.20000009547E+01 0.  0.
         13    1    3    3    0    0  0.22364973114E+02 -0.25310611729E+02 -0.80380778309E+02  0.87188874141E+02  0.10566000000E+00 0. -1.
         13    1    4    4    0    0 -0.11396344631E+02  0.12030779244E+02 -0.57792968936E+01  0.17550719552E+02  0.10566000000E+00 0. -1.
        -13    1    4    4    0    0 -0.69813237546E+01  0.77383385342E+01 -0.32550520670E+01  0.10919125085E+02  0.10566000000E+00 0.  1.
        -14    1    4    4    0    0 -0.39873047286E+01  0.55414939502E+01 -0.27223493581E+01  0.73496898048E+01  0.00000000000E+00 0.  1.
<mgrwt>
<rscale>  0 0.81496957E+02</rscale>
<asrwt>0</asrwt>
<pdfrwt beam="1">  1        1 0.16549683E-01 0.81496957E+02</pdfrwt>
<pdfrwt beam="2">  1       -2 0.23746871E-02 0.81496957E+02</pdfrwt>
<totfact> 0.14155635E+05</totfact>
</mgrwt>
</event>
<event>
 8    1  0.1319619E-024  0.7995468E+02  0.7818608E-02  0.1329180E+00
          1   -1    0    0  501    0  0.00000000000E+00  0.00000000000E+00  0.17572578499E+01  0.17572650776E+01  0.50400000000E-02 0. -1.
         -2   -1    0    0    0  501 -0.00000000000E+00 -0.00000000000E+00 -0.90947639413E+03  0.90947639414E+03  0.25500000000E-02 0.  1.
        -24    2    1    2    0    0  0.88817841970E-15  0.00000000000E+00 -0.90771913628E+03  0.91123365921E+03  0.79954682854E+02 0.  0.
         66    2    3    3    0    0 -0.45338186095E+01 -0.31589270868E+02 -0.72808188590E+03  0.72878369228E+03  0.20000030046E+01 0.  0.
         13    1    3    3    0    0  0.45338186095E+01  0.31589270868E+02 -0.17963725038E+03  0.18244996694E+03  0.10566000000E+00 0. -1.
         13    1    4    4    0    0 -0.15785674902E+01 -0.95134189932E+01 -0.23770048296E+03  0.23789604406E+03  0.10566000000E+00 0. -1.
        -13    1    4    4    0    0 -0.91862934796E+00 -0.45884427633E+01 -0.10041724881E+03  0.10052627870E+03  0.10566000000E+00 0.  1.
         14    1    4    4    0    0 -0.20366217713E+01 -0.17487409111E+02 -0.38996415414E+03  0.39036136952E+03  0.00000000000E+00 0. -1.
<mgrwt>
<rscale>  0 0.79954683E+02</rscale>
<asrwt>0</asrwt>
<pdfrwt beam="1">  1        1 0.27034864E-03 0.79954683E+02</pdfrwt>
<pdfrwt beam="2">  1       -2 0.13991907E+00 0.79954683E+02</pdfrwt>
<totfact> 0.29071868E+04</totfact>
</mgrwt>
</event>
<event>
 8    1  0.1319619E-024  0.7611286E+02  0.7818608E-02  0.1340459E+00
         -2   -1    0    0    0  501 -0.00000000000E+00  0.00000000000E+00  0.15681220114E+03  0.15681220116E+03  0.25500000000E-02 0.  1.
          1   -1    0    0  501    0  0.00000000000E+00 -0.00000000000E+00 -0.92358367700E+01  0.92358381452E+01  0.50400000000E-02 0. -1.
        -24    2    1    2    0    0  0.00000000000E+00  0.00000000000E+00  0.14757636437E+03  0.16604803931E+03  0.76112863806E+02 0.  0.
         66    2    3    3    0    0  0.19465965532E+02  0.79330964060E+01  0.14297994299E+03  0.14453069546E+03  0.19999997906E+01 0.  0.
         13    1    3    3    0    0 -0.19465965532E+02 -0.79330964060E+01  0.45964213771E+01  0.21517343846E+02  0.10566000000E+00 0. -1.
         13    1    4    4    0    0  0.70806328594E+00  0.31350276742E+00  0.36820652863E+01  0.37640943678E+01  0.10566000000E+00 0. -1.
        -13    1    4    4    0    0  0.16344907046E+02  0.65689338301E+01  0.12375718175E+03  0.12500463222E+03  0.10566000000E+00 0.  1.
        -14    1    4    4    0    0  0.24129951997E+01  0.10506598085E+01  0.15540695959E+02  0.15761968873E+02  0.00000000000E+00 0.  1.
<mgrwt>
<rscale>  0 0.76112864E+02</rscale>
<asrwt>0</asrwt>
<pdfrwt beam="1">  1        1 0.14208981E-02 0.76112864E+02</pdfrwt>
<pdfrwt beam="2">  1       -2 0.24124953E-01 0.76112864E+02</pdfrwt>
<totfact> 0.10584204E+05</totfact>
</mgrwt>
</event>
<event>
 8    1  0.1319619E-024  0.7914192E+02  0.7818608E-02  0.1331504E+00
         -2   -1    0    0    0  501 -0.00000000000E+00  0.00000000000E+00  0.22894273110E+02  0.22894273252E+02  0.25500000000E-02 0.  1.
          1   -1    0    0  501    0  0.00000000000E+00 -0.00000000000E+00 -0.68395304359E+02  0.68395304544E+02  0.50400000000E-02 0. -1.
        -24    2    1    2    0    0 -0.35527136788E-14  0.71054273576E-14 -0.45501031249E+02  0.91289577796E+02  0.79141917904E+02 0.  0.
         66    2    3    3    0    0  0.24486775050E+02 -0.28121171920E+02 -0.75733166057E+01  0.38101936707E+02  0.19999984748E+01 0.  0.
         13    1    3    3    0    0 -0.24486775050E+02  0.28121171920E+02 -0.37927714643E+02  0.53187641089E+02  0.10566000000E+00 0. -1.
         13    1    4    4    0    0  0.72577299264E+01 -0.83568933535E+01 -0.14712132799E+01  0.11166375543E+02  0.10566000000E+00 0. -1.
        -13    1    4    4    0    0  0.88906113008E+00 -0.79557665186E+00 -0.22020204299E+00  0.12177950884E+01  0.10566000000E+00 0.  1.
        -14    1    4    4    0    0  0.16339983993E+02 -0.18968701915E+02 -0.58819012827E+01  0.25717766076E+02  0.00000000000E+00 0.  1.
<mgrwt>
<rscale>  0 0.79141918E+02</rscale>
<asrwt>0</asrwt>
<pdfrwt beam="1">  1        1 0.10522354E-01 0.79141918E+02</pdfrwt>
<pdfrwt beam="2">  1       -2 0.35221959E-02 0.79141918E+02</pdfrwt>
<totfact> 0.14234088E+05</totfact>
</mgrwt>
</event>
<event>
 8    1  0.1393240E-024  0.8376615E+02  0.7818608E-02  0.1318691E+00
          1   -1    0    0  501    0  0.00000000000E+00  0.00000000000E+00  0.29968583691E+02  0.29968584115E+02  0.50400000000E-02 0. -1.
         -2   -1    0    0    0  501 -0.00000000000E+00 -0.00000000000E+00 -0.58534360814E+02  0.58534360870E+02  0.25500000000E-02 0.  1.
        -24    2    1    2    0    0  0.00000000000E+00  0.88817841970E-15 -0.28565777124E+02  0.88502944985E+02  0.83766148582E+02 0.  0.
         66    2    3    3    0    0 -0.11353993666E+02 -0.64953984177E+01 -0.56302352516E+02  0.57836478750E+02  0.20000006452E+01 0.  0.
         13    1    3    3    0    0  0.11353993666E+02  0.64953984177E+01  0.27736575392E+02  0.30666466235E+02  0.10566000000E+00 0. -1.
         13    1    4    4    0    0 -0.47005472807E+01 -0.22834659703E+01 -0.21565119011E+02  0.22189521932E+02  0.10566000000E+00 0. -1.
        -13    1    4    4    0    0 -0.61413292688E+01 -0.34177786603E+01 -0.29564185427E+02  0.30388309597E+02  0.10566000000E+00 0.  1.
         14    1    4    4    0    0 -0.51211711694E+00 -0.79415378708E+00 -0.51730480779E+01  0.52586472210E+01  0.00000000000E+00 0. -1.
<mgrwt>
<rscale>  0 0.83766149E+02</rscale>
<asrwt>0</asrwt>
<pdfrwt beam="1">  1        1 0.46105514E-02 0.83766149E+02</pdfrwt>
<pdfrwt beam="2">  1       -2 0.90052863E-02 0.83766149E+02</pdfrwt>
<totfact> 0.10587597E+05</totfact>
</mgrwt>
</event>
<event>
 8    1  0.1319619E-024  0.7908957E+02  0.7818608E-02  0.1331655E+00
         -2   -1    0    0    0  501 -0.00000000000E+00  0.00000000000E+00  0.16159161504E+03  0.16159161506E+03  0.25500000000E-02 0.  1.
          1   -1    0    0  501    0  0.00000000000E+00 -0.00000000000E+00 -0.96774197255E+01  0.96774210379E+01  0.50400000000E-02 0. -1.
        -24    2    1    2    0    0  0.00000000000E+00  0.35527136788E-14  0.15191419531E+03  0.17126903610E+03  0.79089569400E+02 0.  0.
         66    2    3    3    0    0 -0.32978016810E+02 -0.13640508858E+02  0.11276638203E+03  0.11829568881E+03  0.19999995547E+01 0.  0.
         13    1    3    3    0    0  0.32978016810E+02  0.13640508858E+02  0.39147813278E+02  0.52973347290E+02  0.10566000000E+00 0. -1.
         13    1    4    4    0    0 -0.96802603160E+01 -0.44967664224E+01  0.33331363439E+02  0.34998847135E+02  0.10566000000E+00 0. -1.
        -13    1    4    4    0    0 -0.19433865472E+02 -0.81279963436E+01  0.65974755367E+02  0.69256183562E+02  0.10566000000E+00 0.  1.
         14    1    4    4    0    0 -0.38638910225E+01 -0.10157460920E+01  0.13460263228E+02  0.14040658108E+02  0.00000000000E+00 0. -1.
<mgrwt>
<rscale>  0 0.79089569E+02</rscale>
<asrwt>0</asrwt>
<pdfrwt beam="1">  1        1 0.14888340E-02 0.79089569E+02</pdfrwt>
<pdfrwt beam="2">  1       -2 0.24860247E-01 0.79089569E+02</pdfrwt>
<totfact> 0.94922133E+04</totfact>
</mgrwt>
</event>
<event>
 8    1  0.1319619E-024  0.7935379E+02  0.7818608E-02  0.1330895E+00
          1   -1    0    0  501    0  0.00000000000E+00  0.00000000000E+00  0.35914104337E+01  0.35914139702E+01  0.50400000000E-02 0. -1.
         -2   -1    0    0    0  501 -0.00000000000E+00 -0.00000000000E+00 -0.43833897378E+03  0.43833897379E+03  0.25500000000E-02 0.  1.
        -24    2    1    2    0    0  0.71054273576E-14  0.00000000000E+00 -0.43474756335E+03  0.44193038776E+03  0.79353788745E+02 0.  0.
         66    2    3    3    0    0 -0.36892841857E+02 -0.68623718357E+01 -0.28884770427E+03  0.29128194280E+03  0.20000020340E+01 0.  0.
         13    1    3    3    0    0  0.36892841857E+02  0.68623718357E+01 -0.14589985908E+03  0.15064844496E+03  0.10566000000E+00 0. -1.
         13    1    4    4    0    0 -0.11417681438E+02 -0.18392378307E+01 -0.89197240608E+02  0.89943899968E+02  0.10566000000E+00 0. -1.
        -13    1    4    4    0    0 -0.18102809887E+02 -0.41149555483E+01 -0.14613710956E+03  0.14731161033E+03  0.10566000000E+00 0.  1.
         14    1    4    4    0    0 -0.73723505323E+01 -0.90817845673E+00 -0.53513354106E+02  0.54026432496E+02  0.00000000000E+00 0. -1.
<mgrwt>
<rscale>  0 0.79353789E+02</rscale>
<asrwt>0</asrwt>
<pdfrwt beam="1">  1        1 0.55252530E-03 0.79353789E+02</pdfrwt>
<pdfrwt beam="2">  1       -2 0.67436723E-01 0.79353789E+02</pdfrwt>
<totfact> 0.56685158E+04</totfact>
</mgrwt>
</event>
<event>
 8    1  0.1319619E-024  0.8385346E+02  0.7818608E-02  0.1318458E+00
          1   -1    0    0  501    0  0.00000000000E+00  0.00000000000E+00  0.17325135871E+03  0.17325135878E+03  0.50400000000E-02 0. -1.
         -2   -1    0    0    0  501 -0.00000000000E+00 -0.00000000000E+00 -0.10146244013E+02  0.10146244334E+02  0.25500000000E-02 0.  1.
        -24    2    1    2    0    0  0.00000000000E+00  0.00000000000E+00  0.16310511469E+03  0.18339760311E+03  0.83853457822E+02 0.  0.
         66    2    3    3    0    0  0.29705420460E+02 -0.27541389552E+02  0.58154212318E+02  0.70900299961E+02  0.19999952550E+01 0.  0.
         13    1    3    3    0    0 -0.29705420460E+02  0.27541389552E+02  0.10495090238E+03  0.11249730315E+03  0.10566000000E+00 0. -1.
         13    1    4    4    0    0  0.95688323344E+01 -0.95625009649E+01  0.19261558528E+02  0.23537688457E+02  0.10566000000E+00 0. -1.
        -13    1    4    4    0    0  0.14561729980E+02 -0.12497325650E+02  0.28474269052E+02  0.34336894013E+02  0.10566000000E+00 0.  1.
        -14    1    4    4    0    0  0.55748581454E+01 -0.54815629378E+01  0.10418384739E+02  0.13025717491E+02  0.00000000000E+00 0.  1.
<mgrwt>
<rscale>  0 0.83853458E+02</rscale>
<asrwt>0</asrwt>
<pdfrwt beam="1">  1        1 0.26654055E-01 0.83853458E+02</pdfrwt>
<pdfrwt beam="2">  1       -2 0.15609607E-02 0.83853458E+02</pdfrwt>
<totfact> 0.14304980E+05</totfact>
</mgrwt>
</event>
<event>
 8    1  0.1319619E-024  0.8037127E+02  0.7818608E-02  0.1328001E+00
          1   -1    0    0  501    0  0.00000000000E+00  0.00000000000E+00  0.11245239747E+03  0.11245239758E+03  0.50400000000E-02 0. -1.
         -2   -1    0    0    0  501 -0.00000000000E+00 -0.00000000000E+00 -0.14360611928E+02  0.14360612155E+02  0.25500000000E-02 0.  1.
        -24    2    1    2    0    0  0.00000000000E+00  0.00000000000E+00  0.98091785538E+02  0.12681300973E+03  0.80371270039E+02 0.  0.
         66    2    3    3    0    0 -0.15290584876E+02  0.10320562486E+02 -0.72101396883E+01  0.19907338152E+02  0.20000005284E+01 0.  0.
         13    1    3    3    0    0  0.15290584876E+02 -0.10320562486E+02  0.10530192523E+03  0.10690567158E+03  0.10566000000E+00 0. -1.
         13    1    4    4    0    0 -0.44616047518E+01  0.31300567577E+01 -0.23133270037E+01  0.59216398176E+01  0.10566000000E+00 0. -1.
        -13    1    4    4    0    0 -0.10113380418E+02  0.70230051944E+01 -0.48957430594E+01  0.13250755811E+02  0.10566000000E+00 0.  1.
        -14    1    4    4    0    0 -0.71559970633E+00  0.16750053397E+00 -0.10696252225E-02  0.73494252338E+00  0.00000000000E+00 0.  1.
<mgrwt>
<rscale>  0 0.80371270E+02</rscale>
<asrwt>0</asrwt>
<pdfrwt beam="1">  1        1 0.17300369E-01 0.80371270E+02</pdfrwt>
<pdfrwt beam="2">  1       -2 0.22093249E-02 0.80371270E+02</pdfrwt>
<totfact> 0.14810128E+05</totfact>
</mgrwt>
</event>
<event>
 8    1  0.1319619E-024  0.7747265E+02  0.7818608E-02  0.1336381E+00
         -2   -1    0    0    0  501 -0.00000000000E+00  0.00000000000E+00  0.11048113825E+02  0.11048114119E+02  0.25500000000E-02 0.  1.
          1   -1    0    0  501    0  0.00000000000E+00 -0.00000000000E+00 -0.13581528922E+03  0.13581528931E+03  0.50400000000E-02 0. -1.
        -24    2    1    2    0    0  0.00000000000E+00 -0.35527136788E-14 -0.12476717539E+03  0.14686340343E+03  0.77472648152E+02 0.  0.
         66    2    3    3    0    0 -0.12190414515E+02 -0.26817464157E+02 -0.14816835118E+02  0.33035150872E+02  0.20000000938E+01 0.  0.
         13    1    3    3    0    0  0.12190414515E+02  0.26817464157E+02 -0.10995034028E+03  0.11382825256E+03  0.10566000000E+00 0. -1.
         13    1    4    4    0    0 -0.31796930576E+01 -0.80767012544E+01 -0.45261010100E+01  0.97898062025E+01  0.10566000000E+00 0. -1.
        -13    1    4    4    0    0 -0.12126074184E+01 -0.37116264798E+01 -0.17226472296E+01  0.42691059239E+01  0.10566000000E+00 0.  1.
        -14    1    4    4    0    0 -0.77981140395E+01 -0.15029136423E+02 -0.85680868785E+01  0.18976238746E+02  0.00000000000E+00 0.  1.
<mgrwt>
<rscale>  0 0.77472648E+02</rscale>
<asrwt>0</asrwt>
<pdfrwt beam="1">  1        1 0.20894659E-01 0.77472648E+02</pdfrwt>
<pdfrwt beam="2">  1       -2 0.16997099E-02 0.77472648E+02</pdfrwt>
<totfact> 0.16894030E+05</totfact>
</mgrwt>
</event>
<event>
 8    1  0.1319619E-024  0.7916664E+02  0.7818608E-02  0.1331433E+00
         -2   -1    0    0    0  501 -0.00000000000E+00  0.00000000000E+00  0.73405523225E+02  0.73405523269E+02  0.25500000000E-02 0.  1.
          1   -1    0    0  501    0  0.00000000000E+00 -0.00000000000E+00 -0.21344976043E+02  0.21344976638E+02  0.50400000000E-02 0. -1.
        -24    2    1    2    0    0  0.17763568394E-14 -0.35527136788E-14  0.52060547183E+02  0.94750499907E+02  0.79166638552E+02 0.  0.
         66    2    3    3    0    0 -0.86093979454E+01  0.17828762357E+02  0.67035160470E+02  0.69926384469E+02  0.20000013783E+01 0.  0.
         13    1    3    3    0    0  0.86093979454E+01 -0.17828762357E+02 -0.14974613287E+02  0.24824115438E+02  0.10566000000E+00 0. -1.
         13    1    4    4    0    0 -0.17281020701E+01  0.49413764650E+01  0.16104872938E+02  0.16934628266E+02  0.10566000000E+00 0. -1.
        -13    1    4    4    0    0 -0.14466746900E+01  0.30181247644E+01  0.10504222157E+02  0.11025052921E+02  0.10566000000E+00 0.  1.
         14    1    4    4    0    0 -0.54346211853E+01  0.98692611273E+01  0.40426065375E+02  0.41966703282E+02  0.00000000000E+00 0. -1.
<mgrwt>
<rscale>  0 0.79166639E+02</rscale>
<asrwt>0</asrwt>
<pdfrwt beam="1">  1        1 0.32838425E-02 0.79166639E+02</pdfrwt>
<pdfrwt beam="2">  1       -2 0.11293157E-01 0.79166639E+02</pdfrwt>
<totfact> 0.11687745E+05</totfact>
</mgrwt>
</event>
<event>
 8    1  0.1319619E-024  0.7986417E+02  0.7818608E-02  0.1329437E+00
         -2   -1    0    0    0  501 -0.00000000000E+00  0.00000000000E+00  0.61476817149E+02  0.61476817202E+02  0.25500000000E-02 0.  1.
          1   -1    0    0  501    0  0.00000000000E+00 -0.00000000000E+00 -0.25937764376E+02  0.25937764865E+02  0.50400000000E-02 0. -1.
        -24    2    1    2    0    0  0.00000000000E+00  0.17763568394E-14  0.35539052774E+02  0.87414582068E+02  0.79864165218E+02 0.  0.
         66    2    3    3    0    0 -0.91119449337E+01 -0.92521287001E+01  0.59083229572E+02  0.60526501974E+02  0.19999996273E+01 0.  0.
         13    1    3    3    0    0  0.91119449337E+01  0.92521287001E+01 -0.23544176799E+02  0.26888080094E+02  0.10566000000E+00 0. -1.
         13    1    4    4    0    0 -0.50548574148E+00 -0.88620340601E+00  0.31560028927E+01  0.33184922188E+01  0.10566000000E+00 0. -1.
        -13    1    4    4    0    0 -0.30878753148E+01 -0.25044333618E+01  0.17428036668E+02  0.17876095394E+02  0.10566000000E+00 0.  1.
         14    1    4    4    0    0 -0.55185838774E+01 -0.58614919323E+01  0.38499190012E+02  0.39331914361E+02  0.00000000000E+00 0. -1.
<mgrwt>
<rscale>  0 0.79864165E+02</rscale>
<asrwt>0</asrwt>
<pdfrwt beam="1">  1        1 0.39904253E-02 0.79864165E+02</pdfrwt>
<pdfrwt beam="2">  1       -2 0.94579719E-02 0.79864165E+02</pdfrwt>
<totfact> 0.11835876E+05</totfact>
</mgrwt>
</event>
<event>
 8    1  0.1319619E-024  0.7940584E+02  0.7818608E-02  0.1330746E+00
         -2   -1    0    0    0  501 -0.00000000000E+00  0.00000000000E+00  0.51377823104E+02  0.51377823168E+02  0.25500000000E-02 0.  1.
          1   -1    0    0  501    0  0.00000000000E+00 -0.00000000000E+00 -0.30680979987E+02  0.30680980401E+02  0.50400000000E-02 0. -1.
        -24    2    1    2    0    0 -0.71054273576E-14 -0.35527136788E-14  0.20696843117E+02  0.82058803569E+02  0.79405843161E+02 0.  0.
         66    2    3    3    0    0 -0.28247697089E+02 -0.27085336708E+02  0.35966604071E+01  0.39350780105E+02  0.20000183476E+01 0.  0.
         13    1    3    3    0    0  0.28247697089E+02  0.27085336708E+02  0.17100182710E+02  0.42708023464E+02  0.10566000000E+00 0. -1.
         13    1    4    4    0    0 -0.46256129072E+00 -0.31171230966E+00  0.19986529282E+00  0.60186184672E+00  0.10566000000E+00 0. -1.
        -13    1    4    4    0    0 -0.97577958219E+01 -0.97269051291E+01  0.16515198116E+01  0.13876813194E+02  0.10566000000E+00 0.  1.
        -14    1    4    4    0    0 -0.18027339977E+02 -0.17046719269E+02  0.17452753027E+01  0.24872105065E+02  0.00000000000E+00 0.  1.
<mgrwt>
<rscale>  0 0.79405843E+02</rscale>
<asrwt>0</asrwt>
<pdfrwt beam="1">  1        1 0.47201508E-02 0.79405843E+02</pdfrwt>
<pdfrwt beam="2">  1       -2 0.79042805E-02 0.79405843E+02</pdfrwt>
<totfact> 0.12405087E+05</totfact>
</mgrwt>
</event>
<event>
 8    1  0.1319619E-024  0.8010364E+02  0.7818608E-02  0.1328758E+00
          1   -1    0    0  501    0  0.00000000000E+00  0.00000000000E+00  0.48783239750E+01  0.48783265785E+01  0.50400000000E-02 0. -1.
         -2   -1    0    0    0  501 -0.00000000000E+00 -0.00000000000E+00 -0.32883176458E+03  0.32883176459E+03  0.25500000000E-02 0.  1.
        -24    2    1    2    0    0  0.00000000000E+00 -0.88817841970E-15 -0.32395344060E+03  0.33371009116E+03  0.80103640789E+02 0.  0.
         66    2    3    3    0    0 -0.19749155991E+02  0.44912296017E+01 -0.30590587420E+03  0.30658213284E+03  0.20000006080E+01 0.  0.
         13    1    3    3    0    0  0.19749155991E+02 -0.44912296017E+01 -0.18047566401E+02  0.27127958322E+02  0.10566000000E+00 0. -1.
         13    1    4    4    0    0 -0.27804562585E+01  0.13079134890E+01 -0.48488398801E+02  0.48585775254E+02  0.10566000000E+00 0. -1.
        -13    1    4    4    0    0 -0.15089868964E+02  0.28760734305E+01 -0.22655442190E+03  0.22707464233E+03  0.10566000000E+00 0.  1.
        -14    1    4    4    0    0 -0.18788307682E+01  0.30724268224E+00 -0.30863053498E+02  0.30921715256E+02  0.00000000000E+00 0.  1.
<mgrwt>
<rscale>  0 0.80103641E+02</rscale>
<asrwt>0</asrwt>
<pdfrwt beam="1">  1        1 0.75051184E-03 0.80103641E+02</pdfrwt>
<pdfrwt beam="2">  1       -2 0.50589485E-01 0.80103641E+02</pdfrwt>
<totfact> 0.66515558E+04</totfact>
</mgrwt>
</event>
<event>
 8    1  0.1319619E-024  0.8108105E+02  0.7818608E-02  0.1326011E+00
          1   -1    0    0  501    0  0.00000000000E+00  0.00000000000E+00  0.15767856533E+02  0.15767857338E+02  0.50400000000E-02 0. -1.
         -2   -1    0    0    0  501 -0.00000000000E+00 -0.00000000000E+00 -0.10423320560E+03  0.10423320563E+03  0.25500000000E-02 0.  1.
        -24    2    1    2    0    0  0.00000000000E+00 -0.17763568394E-14 -0.88465349070E+02  0.12000106297E+03  0.81081052833E+02 0.  0.
         66    2    3    3    0    0  0.35973246938E+02 -0.15057298404E+02 -0.60521661549E+02  0.72025469524E+02  0.20000032403E+01 0.  0.
         13    1    3    3    0    0 -0.35973246938E+02  0.15057298404E+02 -0.27943687521E+02  0.47975593449E+02  0.10566000000E+00 0. -1.
         13    1    4    4    0    0  0.27269570652E+02 -0.11340844432E+02 -0.46946070300E+02  0.55463401596E+02  0.10566000000E+00 0. -1.
        -13    1    4    4    0    0  0.14812910629E+01 -0.63876720608E+00 -0.19344246748E+01  0.25209937752E+01  0.10566000000E+00 0.  1.
        -14    1    4    4    0    0  0.72223852230E+01 -0.30776867661E+01 -0.11641166575E+02  0.14041074153E+02  0.00000000000E+00 0.  1.
<mgrwt>
<rscale>  0 0.81081053E+02</rscale>
<asrwt>0</asrwt>
<pdfrwt beam="1">  1        1 0.24258242E-02 0.81081053E+02</pdfrwt>
<pdfrwt beam="2">  1       -2 0.16035877E-01 0.81081053E+02</pdfrwt>
<totfact> 0.10147589E+05</totfact>
</mgrwt>
</event>
<event>
 8    1  0.1319619E-024  0.7894725E+02  0.7818608E-02  0.1332066E+00
          1   -1    0    0  501    0  0.00000000000E+00  0.00000000000E+00  0.14410836094E+02  0.14410836975E+02  0.50400000000E-02 0. -1.
         -2   -1    0    0    0  501 -0.00000000000E+00 -0.00000000000E+00 -0.10812467674E+03  0.10812467677E+03  0.25500000000E-02 0.  1.
        -24    2    1    2    0    0  0.00000000000E+00  0.00000000000E+00 -0.93713840643E+02  0.12253551374E+03  0.78947249478E+02 0.  0.
         66    2    3    3    0    0  0.22401953192E+02 -0.21687505967E+01 -0.97171992711E+02  0.99764458305E+02  0.19999968813E+01 0.  0.
         13    1    3    3    0    0 -0.22401953192E+02  0.21687505967E+01  0.34581520682E+01  0.22771055437E+02  0.10566000000E+00 0. -1.
         13    1    4    4    0    0  0.10554222576E+02 -0.10255748270E+01 -0.43736180772E+02  0.45003423098E+02  0.10566000000E+00 0. -1.
        -13    1    4    4    0    0  0.10676121341E+02 -0.13776351158E+01 -0.47240774210E+02  0.48451825119E+02  0.10566000000E+00 0.  1.
        -14    1    4    4    0    0  0.11716092750E+01  0.23445934611E+00 -0.61950377288E+01  0.63092100884E+01  0.00000000000E+00 0.  1.
<mgrwt>
<rscale>  0 0.78947249E+02</rscale>
<asrwt>0</asrwt>
<pdfrwt beam="1">  1        1 0.22170519E-02 0.78947249E+02</pdfrwt>
<pdfrwt beam="2">  1       -2 0.16634565E-01 0.78947249E+02</pdfrwt>
<totfact> 0.10762894E+05</totfact>
</mgrwt>
</event>
<event>
 8    1  0.1319619E-024  0.8092452E+02  0.7818608E-02  0.1326448E+00
          1   -1    0    0  501    0  0.00000000000E+00  0.00000000000E+00  0.74770986243E+02  0.74770986413E+02  0.50400000000E-02 0. -1.
         -2   -1    0    0    0  501 -0.00000000000E+00 -0.00000000000E+00 -0.21896118871E+02  0.21896119019E+02  0.25500000000E-02 0.  1.
        -24    2    1    2    0    0 -0.35527136788E-14  0.00000000000E+00  0.52874867373E+02  0.96667105432E+02  0.80924518367E+02 0.  0.
         66    2    3    3    0    0 -0.19086327359E+02  0.32817894264E+02  0.98204310114E+01  0.39265034647E+02  0.20000011458E+01 0.  0.
         13    1    3    3    0    0  0.19086327359E+02 -0.32817894264E+02  0.43054436361E+02  0.57402070785E+02  0.10566000000E+00 0. -1.
         13    1    4    4    0    0 -0.13950931914E+01  0.28832632860E+01  0.74891569692E+00  0.32911291293E+01  0.10566000000E+00 0. -1.
        -13    1    4    4    0    0 -0.46031365921E+00  0.12342293680E+01  0.15102634168E+00  0.13301066834E+01  0.10566000000E+00 0.  1.
         14    1    4    4    0    0 -0.17230920508E+02  0.28700401610E+02  0.89204889728E+01  0.34643798834E+02  0.00000000000E+00 0. -1.
<mgrwt>
<rscale>  0 0.80924518E+02</rscale>
<asrwt>0</asrwt>
<pdfrwt beam="1">  1        1 0.11503229E-01 0.80924518E+02</pdfrwt>
<pdfrwt beam="2">  1       -2 0.33686337E-02 0.80924518E+02</pdfrwt>
<totfact> 0.13583339E+05</totfact>
</mgrwt>
</event>
<event>
 8    1  0.1319619E-024  0.8276255E+02  0.7818608E-02  0.1321390E+00
          1   -1    0    0  501    0  0.00000000000E+00  0.00000000000E+00  0.10193570648E+03  0.10193570660E+03  0.50400000000E-02 0. -1.
         -2   -1    0    0    0  501 -0.00000000000E+00 -0.00000000000E+00 -0.16798922488E+02  0.16798922682E+02  0.25500000000E-02 0.  1.
        -24    2    1    2    0    0  0.00000000000E+00 -0.17763568394E-14  0.85136783989E+02  0.11873462928E+03  0.82762553145E+02 0.  0.
         66    2    3    3    0    0 -0.38086589451E+02 -0.15911878312E+02  0.38899465242E+02  0.56753366176E+02  0.20000021867E+01 0.  0.
         13    1    3    3    0    0  0.38086589451E+02  0.15911878312E+02  0.46237318746E+02  0.61981263107E+02  0.10566000000E+00 0. -1.
         13    1    4    4    0    0 -0.17364802479E+02 -0.73994265734E+01  0.18893218190E+02  0.26706791952E+02  0.10566000000E+00 0. -1.
        -13    1    4    4    0    0 -0.16014005855E+02 -0.68567724165E+01  0.15245028506E+02  0.23149206675E+02  0.10566000000E+00 0.  1.
        -14    1    4    4    0    0 -0.47077811173E+01 -0.16556793224E+01  0.47612185465E+01  0.68973675496E+01  0.00000000000E+00 0.  1.
<mgrwt>
<rscale>  0 0.82762553E+02</rscale>
<asrwt>0</asrwt>
<pdfrwt beam="1">  1        1 0.15682417E-01 0.82762553E+02</pdfrwt>
<pdfrwt beam="2">  1       -2 0.25844496E-02 0.82762553E+02</pdfrwt>
<totfact> 0.13451859E+05</totfact>
</mgrwt>
</event>
<event>
 8    1  0.1319619E-024  0.7979848E+02  0.7818608E-02  0.1329624E+00
          1   -1    0    0  501    0  0.00000000000E+00  0.00000000000E+00  0.30147778142E+02  0.30147778563E+02  0.50400000000E-02 0. -1.
         -2   -1    0    0    0  501 -0.00000000000E+00 -0.00000000000E+00 -0.52804867075E+02  0.52804867137E+02  0.25500000000E-02 0.  1.
        -24    2    1    2    0    0  0.00000000000E+00  0.00000000000E+00 -0.22657088934E+02  0.82952645700E+02  0.79798482126E+02 0.  0.
         66    2    3    3    0    0 -0.19634989547E+02  0.19187697070E+02 -0.41396549469E+02  0.49712924303E+02  0.20000003596E+01 0.  0.
         13    1    3    3    0    0  0.19634989547E+02 -0.19187697070E+02  0.18739460535E+02  0.33239721397E+02  0.10566000000E+00 0. -1.
         13    1    4    4    0    0 -0.74837792363E+01  0.77022342236E+01 -0.17762468839E+02  0.20756874211E+02  0.10566000000E+00 0. -1.
        -13    1    4    4    0    0 -0.27661967450E+01  0.28024904235E+01 -0.58679357468E+01  0.70675052862E+01  0.10566000000E+00 0.  1.
         14    1    4    4    0    0 -0.93850135659E+01  0.86829724226E+01 -0.17766144883E+02  0.21888544806E+02  0.00000000000E+00 0. -1.
<mgrwt>
<rscale>  0 0.79798482E+02</rscale>
<asrwt>0</asrwt>
<pdfrwt beam="1">  1        1 0.46381198E-02 0.79798482E+02</pdfrwt>
<pdfrwt beam="2">  1       -2 0.81238257E-02 0.79798482E+02</pdfrwt>
<totfact> 0.12193341E+05</totfact>
</mgrwt>
</event>
<event>
 8    1  0.1319619E-024  0.7983691E+02  0.7818608E-02  0.1329515E+00
          1   -1    0    0  501    0  0.00000000000E+00  0.00000000000E+00  0.83751014923E+02  0.83751015075E+02  0.50400000000E-02 0. -1.
         -2   -1    0    0    0  501 -0.00000000000E+00 -0.00000000000E+00 -0.19026433865E+02  0.19026434036E+02  0.25500000000E-02 0.  1.
        -24    2    1    2    0    0  0.00000000000E+00  0.35527136788E-14  0.64724581058E+02  0.10277744911E+03  0.79836912844E+02 0.  0.
         66    2    3    3    0    0  0.27110704283E+02  0.17952592623E+02  0.26287096398E+01  0.32683267613E+02  0.19999997194E+01 0.  0.
         13    1    3    3    0    0 -0.27110704283E+02 -0.17952592623E+02  0.62095871419E+02  0.70094181498E+02  0.10566000000E+00 0. -1.
         13    1    4    4    0    0  0.18219976801E+01  0.11295039571E+01  0.39490225237E+00  0.21823305341E+01  0.10566000000E+00 0. -1.
        -13    1    4    4    0    0  0.18513004728E+02  0.12407924222E+02  0.23709857001E+01  0.22412511345E+02  0.10566000000E+00 0.  1.
        -14    1    4    4    0    0  0.67757018746E+01  0.44151644432E+01 -0.13717831272E+00  0.80884257334E+01  0.00000000000E+00 0.  1.
<mgrwt>
<rscale>  0 0.79836913E+02</rscale>
<asrwt>0</asrwt>
<pdfrwt beam="1">  1        1 0.12884771E-01 0.79836913E+02</pdfrwt>
<pdfrwt beam="2">  1       -2 0.29271437E-02 0.79836913E+02</pdfrwt>
<totfact> 0.14354215E+05</totfact>
</mgrwt>
</event>
<event>
 8    1  0.1319619E-024  0.7926179E+02  0.7818608E-02  0.1331160E+00
          1   -1    0    0  501    0  0.00000000000E+00  0.00000000000E+00  0.58942512360E+02  0.58942512575E+02  0.50400000000E-02 0. -1.
         -2   -1    0    0    0  501 -0.00000000000E+00 -0.00000000000E+00 -0.26646437244E+02  0.26646437366E+02  0.25500000000E-02 0.  1.
        -24    2    1    2    0    0  0.00000000000E+00  0.00000000000E+00  0.32296075116E+02  0.85588949941E+02  0.79261793344E+02 0.  0.
         66    2    3    3    0    0 -0.20845938777E+02  0.25729418957E+02 -0.73027012524E+01  0.33968891657E+02  0.19999978633E+01 0.  0.
         13    1    3    3    0    0  0.20845938777E+02 -0.25729418957E+02  0.39598776368E+02  0.51620058284E+02  0.10566000000E+00 0. -1.
         13    1    4    4    0    0 -0.89430840530E+00  0.83016064545E+00 -0.24225913020E+00  0.12485222236E+01  0.10566000000E+00 0. -1.
        -13    1    4    4    0    0 -0.71829099354E+01  0.80240971921E+01 -0.18627417009E+01  0.10929835386E+02  0.10566000000E+00 0.  1.
        -14    1    4    4    0    0 -0.12768720436E+02  0.16875161120E+02 -0.51977004213E+01  0.21790534047E+02  0.00000000000E+00 0.  1.
<mgrwt>
<rscale>  0 0.79261793E+02</rscale>
<asrwt>0</asrwt>
<pdfrwt beam="1">  1        1 0.90680788E-02 0.79261793E+02</pdfrwt>
<pdfrwt beam="2">  1       -2 0.40994519E-02 0.79261793E+02</pdfrwt>
<totfact> 0.13850300E+05</totfact>
</mgrwt>
</event>
<event>
 8    1  0.1319619E-024  0.7920751E+02  0.7818608E-02  0.1331316E+00
         -2   -1    0    0    0  501 -0.00000000000E+00  0.00000000000E+00  0.13305124950E+03  0.13305124952E+03  0.25500000000E-02 0.  1.
          1   -1    0    0  501    0  0.00000000000E+00 -0.00000000000E+00 -0.11788368934E+02  0.11788370011E+02  0.50400000000E-02 0. -1.
        -24    2    1    2    0    0  0.17763568394E-14  0.00000000000E+00  0.12126288057E+03  0.14483961953E+03  0.79207507118E+02 0.  0.
         66    2    3    3    0    0  0.13323916446E+02 -0.33526673723E+02  0.90431293758E+02  0.97382665255E+02  0.20000002569E+01 0.  0.
         13    1    3    3    0    0 -0.13323916446E+02  0.33526673723E+02  0.30831586807E+02  0.47456954279E+02  0.10566000000E+00 0. -1.
         13    1    4    4    0    0  0.78238123211E+01 -0.19663683338E+02  0.52041480067E+02  0.56180061350E+02  0.10566000000E+00 0. -1.
        -13    1    4    4    0    0  0.37194003252E+01 -0.80362550170E+01  0.21864533333E+02  0.23589919784E+02  0.10566000000E+00 0.  1.
         14    1    4    4    0    0  0.17807038000E+01 -0.58267353673E+01  0.16525280358E+02  0.17612684121E+02  0.00000000000E+00 0. -1.
<mgrwt>
<rscale>  0 0.79207507E+02</rscale>
<asrwt>0</asrwt>
<pdfrwt beam="1">  1        1 0.18135954E-02 0.79207507E+02</pdfrwt>
<pdfrwt beam="2">  1       -2 0.20469422E-01 0.79207507E+02</pdfrwt>
<totfact> 0.10069205E+05</totfact>
</mgrwt>
</event>
<event>
 8    1  0.1319619E-024  0.7804706E+02  0.7818608E-02  0.1334687E+00
         -2   -1    0    0    0  501 -0.00000000000E+00  0.00000000000E+00  0.24213012676E+02  0.24213012811E+02  0.25500000000E-02 0.  1.
          1   -1    0    0  501    0  0.00000000000E+00 -0.00000000000E+00 -0.62893277142E+02  0.62893277344E+02  0.50400000000E-02 0. -1.
        -24    2    1    2    0    0  0.00000000000E+00  0.00000000000E+00 -0.38680264465E+02  0.87106290154E+02  0.78047055840E+02 0.  0.
         66    2    3    3    0    0  0.99013081970E+01 -0.36714296039E+02 -0.29008956933E+02  0.47869562576E+02  0.20000003109E+01 0.  0.
         13    1    3    3    0    0 -0.99013081970E+01  0.36714296039E+02 -0.96713075328E+01  0.39236727578E+02  0.10566000000E+00 0. -1.
         13    1    4    4    0    0  0.67640571159E+01 -0.27451066030E+02 -0.21351836040E+02  0.35429162581E+02  0.10566000000E+00 0. -1.
        -13    1    4    4    0    0  0.29062609015E+01 -0.85715462181E+01 -0.68403155772E+01  0.11345432483E+02  0.10566000000E+00 0.  1.
         14    1    4    4    0    0  0.23099017969E+00 -0.69168379066E+00 -0.81680531496E+00  0.10949675118E+01  0.00000000000E+00 0. -1.
<mgrwt>
<rscale>  0 0.78047056E+02</rscale>
<asrwt>0</asrwt>
<pdfrwt beam="1">  1        1 0.96758888E-02 0.78047056E+02</pdfrwt>
<pdfrwt beam="2">  1       -2 0.37250789E-02 0.78047056E+02</pdfrwt>
<totfact> 0.14596224E+05</totfact>
</mgrwt>
</event>
<event>
 8    1  0.1656180E-024  0.7962664E+02  0.7818608E-02  0.1330114E+00
         -2   -1    0    0    0  501 -0.00000000000E+00  0.00000000000E+00  0.23118243568E+03  0.23118243569E+03  0.25500000000E-02 0.  1.
          1   -1    0    0  501    0  0.00000000000E+00 -0.00000000000E+00 -0.68564909877E+01  0.68564928400E+01  0.50400000000E-02 0. -1.
        -24    2    1    2    0    0  0.00000000000E+00  0.43368086899E-17  0.22432594469E+03  0.23803892853E+03  0.79626641494E+02 0.  0.
         66    2    3    3    0    0  0.20879656430E+02 -0.27522474643E-02  0.21348398218E+03  0.21451193605E+03  0.19999999864E+01 0.  0.
         13    1    3    3    0    0 -0.20879656430E+02  0.27522474643E-02  0.10841962512E+02  0.23526992485E+02  0.10566000000E+00 0. -1.
         13    1    4    4    0    0  0.64642507323E+00 -0.19931890595E+00  0.67492114844E+01  0.67838494307E+01  0.10566000000E+00 0. -1.
        -13    1    4    4    0    0  0.34176600414E+01 -0.34357225979E+00  0.31059546528E+02  0.31249080573E+02  0.10566000000E+00 0.  1.
        -14    1    4    4    0    0  0.16815571316E+02  0.54013891828E+00  0.17567522417E+03  0.17647900605E+03  0.00000000000E+00 0.  1.
<mgrwt>
<rscale>  0 0.79626641E+02</rscale>
<asrwt>0</asrwt>
<pdfrwt beam="1">  1        1 0.10548450E-02 0.79626641E+02</pdfrwt>
<pdfrwt beam="2">  1       -2 0.35566527E-01 0.79626641E+02</pdfrwt>
<totfact> 0.80935162E+04</totfact>
</mgrwt>
</event>
<event>
 8    1  0.1319619E-024  0.7876245E+02  0.7818608E-02  0.1332601E+00
         -2   -1    0    0    0  501 -0.00000000000E+00  0.00000000000E+00  0.17256988545E+03  0.17256988547E+03  0.25500000000E-02 0.  1.
          1   -1    0    0  501    0  0.00000000000E+00 -0.00000000000E+00 -0.89869726792E+01  0.89869740925E+01  0.50400000000E-02 0. -1.
        -24    2    1    2    0    0  0.00000000000E+00 -0.35527136788E-14  0.16358291277E+03  0.18155685956E+03  0.78762452369E+02 0.  0.
         66    2    3    3    0    0 -0.45083784805E+01 -0.28549777101E+02  0.14341537097E+03  0.14631262378E+03  0.19999999559E+01 0.  0.
         13    1    3    3    0    0  0.45083784805E+01  0.28549777101E+02  0.20167541802E+02  0.35244235776E+02  0.10566000000E+00 0. -1.
         13    1    4    4    0    0 -0.44956754122E+00 -0.34068573596E+01  0.14684283981E+02  0.15081384158E+02  0.10566000000E+00 0. -1.
        -13    1    4    4    0    0 -0.25317406341E+01 -0.16960914426E+02  0.89162166201E+02  0.90796395162E+02  0.10566000000E+00 0.  1.
        -14    1    4    4    0    0 -0.15270703052E+01 -0.81820053160E+01  0.39568920785E+02  0.40434844463E+02  0.00000000000E+00 0.  1.
<mgrwt>
<rscale>  0 0.78762452E+02</rscale>
<asrwt>0</asrwt>
<pdfrwt beam="1">  1        1 0.13826114E-02 0.78762452E+02</pdfrwt>
<pdfrwt beam="2">  1       -2 0.26549211E-01 0.78762452E+02</pdfrwt>
<totfact> 0.93730250E+04</totfact>
</mgrwt>
</event>
<event>
 8    1  0.1543635E-024  0.7207980E+02  0.7818608E-02  0.1353160E+00
          1   -1    0    0  501    0  0.00000000000E+00  0.00000000000E+00  0.86215799190E+02  0.86215799337E+02  0.50400000000E-02 0. -1.
         -2   -1    0    0    0  501 -0.00000000000E+00 -0.00000000000E+00 -0.15065386191E+02  0.15065386406E+02  0.25500000000E-02 0.  1.
        -24    2    1    2    0    0 -0.35527136788E-14  0.00000000000E+00  0.71150412999E+02  0.10128118574E+03  0.72079798249E+02 0.  0.
         66    2    3    3    0    0 -0.19960641384E+02 -0.25532132913E+02  0.13539249179E+02  0.35179942364E+02  0.20000152179E+01 0.  0.
         13    1    3    3    0    0  0.19960641384E+02  0.25532132913E+02  0.57611163820E+02  0.66101243379E+02  0.10566000000E+00 0. -1.
         13    1    4    4    0    0 -0.62972883854E+00 -0.56791793419E+00  0.51458966600E+00  0.99752481173E+00  0.10566000000E+00 0. -1.
        -13    1    4    4    0    0 -0.45956463045E+00 -0.86691312333E+00  0.55703459609E+00  0.11332208919E+01  0.10566000000E+00 0.  1.
        -14    1    4    4    0    0 -0.18871347915E+02 -0.24097301855E+02  0.12467624917E+02  0.33049196660E+02  0.00000000000E+00 0.  1.
<mgrwt>
<rscale>  0 0.72079798E+02</rscale>
<asrwt>0</asrwt>
<pdfrwt beam="1">  1        1 0.13263969E-01 0.72079798E+02</pdfrwt>
<pdfrwt beam="2">  1       -2 0.23177517E-02 0.72079798E+02</pdfrwt>
<totfact> 0.18993738E+05</totfact>
</mgrwt>
</event>
<event>
 8    1  0.1319619E-024  0.8124342E+02  0.7818608E-02  0.1325559E+00
         -2   -1    0    0    0  501 -0.00000000000E+00  0.00000000000E+00  0.27872326628E+03  0.27872326629E+03  0.25500000000E-02 0.  1.
          1   -1    0    0  501    0  0.00000000000E+00 -0.00000000000E+00 -0.59202916947E+01  0.59202938400E+01  0.50400000000E-02 0. -1.
        -24    2    1    2    0    0 -0.71054273576E-14  0.00000000000E+00  0.27280297459E+03  0.28464356013E+03  0.81243420545E+02 0.  0.
         66    2    3    3    0    0  0.29373213617E+02 -0.10115370524E+02  0.22804845826E+03  0.23016343261E+03  0.19999996020E+01 0.  0.
         13    1    3    3    0    0 -0.29373213617E+02  0.10115370524E+02  0.44754516331E+02  0.54480127524E+02  0.10566000000E+00 0. -1.
         13    1    4    4    0    0  0.17668492368E+01 -0.57196925057E+00  0.16494228953E+02  0.16598784830E+02  0.10566000000E+00 0. -1.
        -13    1    4    4    0    0  0.54962856572E+01 -0.20854771719E+01  0.39416105274E+02  0.39852213114E+02  0.10566000000E+00 0.  1.
        -14    1    4    4    0    0  0.22110078723E+02 -0.74579241012E+01  0.17213812403E+03  0.17371243466E+03  0.00000000000E+00 0.  1.
<mgrwt>
<rscale>  0 0.81243421E+02</rscale>
<asrwt>0</asrwt>
<pdfrwt beam="1">  1        1 0.91081404E-03 0.81243421E+02</pdfrwt>
<pdfrwt beam="2">  1       -2 0.42880513E-01 0.81243421E+02</pdfrwt>
<totfact> 0.70207671E+04</totfact>
</mgrwt>
</event>
<event>
 8    1  0.1319619E-024  0.8025766E+02  0.7818608E-02  0.1328322E+00
          1   -1    0    0  501    0  0.00000000000E+00  0.00000000000E+00  0.61181858512E+02  0.61181858719E+02  0.50400000000E-02 0. -1.
         -2   -1    0    0    0  501 -0.00000000000E+00 -0.00000000000E+00 -0.26320267656E+02  0.26320267779E+02  0.25500000000E-02 0.  1.
        -24    2    1    2    0    0  0.00000000000E+00  0.00000000000E+00  0.34861590856E+02  0.87502126498E+02  0.80257657732E+02 0.  0.
         66    2    3    3    0    0 -0.48544007654E+01  0.12096373976E+02 -0.23908510350E+02  0.27303925280E+02  0.19999995867E+01 0.  0.
         13    1    3    3    0    0  0.48544007654E+01 -0.12096373976E+02  0.58770101206E+02  0.60198201219E+02  0.10566000000E+00 0. -1.
         13    1    4    4    0    0 -0.73782180354E+00  0.33413073736E+01 -0.65929324539E+01  0.74287709856E+01  0.10566000000E+00 0. -1.
        -13    1    4    4    0    0 -0.28301783171E+01  0.69061661202E+01 -0.14023204691E+02  0.15886046507E+02  0.10566000000E+00 0.  1.
         14    1    4    4    0    0 -0.12864006448E+01  0.18489004826E+01 -0.32923732055E+01  0.39891077872E+01  0.00000000000E+00 0. -1.
<mgrwt>
<rscale>  0 0.80257658E+02</rscale>
<asrwt>0</asrwt>
<pdfrwt beam="1">  1        1 0.94125937E-02 0.80257658E+02</pdfrwt>
<pdfrwt beam="2">  1       -2 0.40492719E-02 0.80257658E+02</pdfrwt>
<totfact> 0.13460124E+05</totfact>
</mgrwt>
</event>
<event>
 8    1  0.1319619E-024  0.7912180E+02  0.7818608E-02  0.1331562E+00
         -2   -1    0    0    0  501 -0.00000000000E+00  0.00000000000E+00  0.16735751256E+03  0.16735751258E+03  0.25500000000E-02 0.  1.
          1   -1    0    0  501    0  0.00000000000E+00 -0.00000000000E+00 -0.93516240826E+01  0.93516254407E+01  0.50400000000E-02 0. -1.
        -24    2    1    2    0    0  0.88817841970E-15 -0.35527136788E-14  0.15800588848E+03  0.17670913802E+03  0.79121796405E+02 0.  0.
         66    2    3    3    0    0  0.77225613410E+01  0.18525718955E+02  0.15512670398E+03  0.15643252381E+03  0.20000004712E+01 0.  0.
         13    1    3    3    0    0 -0.77225613410E+01 -0.18525718955E+02  0.28791845006E+01  0.20276614212E+02  0.10566000000E+00 0. -1.
         13    1    4    4    0    0  0.13312663142E+01  0.28930780929E+01  0.21377828952E+02  0.21613997908E+02  0.10566000000E+00 0. -1.
        -13    1    4    4    0    0 -0.37890614226E-01  0.21327466609E+00  0.21703235889E+01  0.21836644197E+01  0.10566000000E+00 0. -1.
        -14    1    4    4    0    0  0.64291856410E+01  0.15419366196E+02  0.13157855144E+03  0.13263486148E+03  0.00000000000E+00 0.  1.
<mgrwt>
<rscale>  0 0.79121796E+02</rscale>
<asrwt>0</asrwt>
<pdfrwt beam="1">  1        1 0.14387114E-02 0.79121796E+02</pdfrwt>
<pdfrwt beam="2">  1       -2 0.25747311E-01 0.79121796E+02</pdfrwt>
<totfact> 0.93663964E+04</totfact>
</mgrwt>
</event>
<event>
 8    1  0.1319619E-024  0.7747642E+02  0.7818608E-02  0.1336369E+00
          1   -1    0    0  501    0  0.00000000000E+00  0.00000000000E+00  0.32263810478E+02  0.32263810872E+02  0.50400000000E-02 0. -1.
         -2   -1    0    0    0  501 -0.00000000000E+00 -0.00000000000E+00 -0.46511834418E+02  0.46511834488E+02  0.25500000000E-02 0.  1.
        -24    2    1    2    0    0  0.00000000000E+00 -0.71054273576E-14 -0.14248023940E+02  0.78775645360E+02  0.77476422967E+02 0.  0.
         66    2    3    3    0    0 -0.16644794348E+02  0.33411666305E+02 -0.17560199069E+02  0.41300716510E+02  0.19999921799E+01 0.  0.
         13    1    3    3    0    0  0.16644794348E+02 -0.33411666305E+02  0.33121751297E+01  0.37474928850E+02  0.10566000000E+00 0. -1.
         13    1    4    4    0    0 -0.68139119036E+01  0.13534656146E+02 -0.70825978469E+01  0.16726944393E+02  0.10566000000E+00 0. -1.
        -13    1    4    4    0    0 -0.93868251312E+01  0.19487549157E+02 -0.10293856935E+02  0.23955202208E+02  0.10566000000E+00 0.  1.
         14    1    4    4    0    0 -0.44405731315E+00  0.38946100133E+00 -0.18374428788E+00  0.61856990894E+00  0.00000000000E+00 0. -1.
<mgrwt>
<rscale>  0 0.77476423E+02</rscale>
<asrwt>0</asrwt>
<pdfrwt beam="1">  1        1 0.49636632E-02 0.77476423E+02</pdfrwt>
<pdfrwt beam="2">  1       -2 0.71556668E-02 0.77476423E+02</pdfrwt>
<totfact> 0.13420879E+05</totfact>
</mgrwt>
</event>
<event>
 8    1  0.1319619E-024  0.7581846E+02  0.7818608E-02  0.1341355E+00
         -2   -1    0    0    0  501 -0.00000000000E+00  0.00000000000E+00  0.44229649862E+02  0.44229649936E+02  0.25500000000E-02 0.  1.
          1   -1    0    0  501    0  0.00000000000E+00 -0.00000000000E+00 -0.32491994277E+02  0.32491994668E+02  0.50400000000E-02 0. -1.
        -24    2    1    2    0    0  0.00000000000E+00  0.00000000000E+00  0.11737655585E+02  0.76721644604E+02  0.75818455485E+02 0.  0.
         66    2    3    3    0    0  0.14509277083E+02 -0.19349723765E+02  0.35377981181E+02  0.42901427432E+02  0.19999980160E+01 0.  0.
         13    1    3    3    0    0 -0.14509277083E+02  0.19349723765E+02 -0.23640325596E+02  0.33820217172E+02  0.10566000000E+00 0. -1.
         13    1    4    4    0    0  0.13349724329E+01 -0.11240327795E+01  0.21247267268E+01  0.27515865941E+01  0.10566000000E+00 0. -1.
        -13    1    4    4    0    0  0.31673283400E+01 -0.41363925621E+01  0.81411333013E+01  0.96659674998E+01  0.10566000000E+00 0.  1.
        -14    1    4    4    0    0  0.10006976310E+02 -0.14089298423E+02  0.25112121153E+02  0.30483873338E+02  0.00000000000E+00 0.  1.
<mgrwt>
<rscale>  0 0.75818455E+02</rscale>
<asrwt>0</asrwt>
<pdfrwt beam="1">  1        1 0.49987684E-02 0.75818455E+02</pdfrwt>
<pdfrwt beam="2">  1       -2 0.68045615E-02 0.75818455E+02</pdfrwt>
<totfact> 0.14285494E+05</totfact>
</mgrwt>
</event>
<event>
 8    1  0.1319619E-024  0.8021314E+02  0.7818608E-02  0.1328448E+00
          1   -1    0    0  501    0  0.00000000000E+00  0.00000000000E+00  0.14330772600E+03  0.14330772609E+03  0.50400000000E-02 0. -1.
         -2   -1    0    0    0  501 -0.00000000000E+00 -0.00000000000E+00 -0.11224354672E+02  0.11224354962E+02  0.25500000000E-02 0.  1.
        -24    2    1    2    0    0  0.00000000000E+00  0.00000000000E+00  0.13208337132E+03  0.15453208105E+03  0.80213135411E+02 0.  0.
         66    2    3    3    0    0  0.23943881870E+02  0.31846096909E+02  0.74490825239E+02  0.84500688830E+02  0.20000001275E+01 0.  0.
         13    1    3    3    0    0 -0.23943881870E+02 -0.31846096909E+02  0.57592546085E+02  0.70031392218E+02  0.10566000000E+00 0. -1.
         13    1    4    4    0    0  0.40613497444E+01  0.60949291203E+01  0.12980574896E+02  0.14904670791E+02  0.10566000000E+00 0. -1.
        -13    1    4    4    0    0  0.18766642765E+02  0.24485135784E+02  0.58846085056E+02  0.66442318183E+02  0.10566000000E+00 0.  1.
        -14    1    4    4    0    0  0.11158893613E+01  0.12660320050E+01  0.26641652874E+01  0.31536998562E+01  0.00000000000E+00 0.  1.
<mgrwt>
<rscale>  0 0.80213135E+02</rscale>
<asrwt>0</asrwt>
<pdfrwt beam="1">  1        1 0.22047341E-01 0.80213135E+02</pdfrwt>
<pdfrwt beam="2">  1       -2 0.17268239E-02 0.80213135E+02</pdfrwt>
<totfact> 0.15545597E+05</totfact>
</mgrwt>
</event>
<event>
 8    1  0.1319619E-024  0.8012851E+02  0.7818608E-02  0.1328687E+00
         -2   -1    0    0    0  501 -0.00000000000E+00  0.00000000000E+00  0.60033309844E+02  0.60033309898E+02  0.25500000000E-02 0.  1.
          1   -1    0    0  501    0  0.00000000000E+00 -0.00000000000E+00 -0.26737562495E+02  0.26737562970E+02  0.50400000000E-02 0. -1.
        -24    2    1    2    0    0  0.00000000000E+00  0.00000000000E+00  0.33295747349E+02  0.86770872868E+02  0.80128506705E+02 0.  0.
         66    2    3    3    0    0  0.23005744459E+02  0.21119035528E+02  0.43792530020E+02  0.53824377603E+02  0.19999997755E+01 0.  0.
         13    1    3    3    0    0 -0.23005744459E+02 -0.21119035528E+02 -0.10496782671E+02  0.32946495265E+02  0.10566000000E+00 0. -1.
         13    1    4    4    0    0  0.28597734658E+01  0.35276765455E+01  0.66632306550E+01  0.80642800598E+01  0.10566000000E+00 0. -1.
        -13    1    4    4    0    0  0.14064904918E+02  0.12261928505E+02  0.26109202850E+02  0.32091713549E+02  0.10566000000E+00 0.  1.
         14    1    4    4    0    0  0.60810660752E+01  0.53294304775E+01  0.11020096514E+02  0.13668383994E+02  0.00000000000E+00 0. -1.
<mgrwt>
<rscale>  0 0.80128507E+02</rscale>
<asrwt>0</asrwt>
<pdfrwt beam="1">  1        1 0.41134712E-02 0.80128507E+02</pdfrwt>
<pdfrwt beam="2">  1       -2 0.92358938E-02 0.80128507E+02</pdfrwt>
<totfact> 0.11789760E+05</totfact>
</mgrwt>
</event>
<event>
 8    1  0.1319619E-024  0.8100895E+02  0.7818608E-02  0.1326212E+00
          1   -1    0    0  501    0  0.00000000000E+00  0.00000000000E+00  0.59653815898E+01  0.59653837189E+01  0.50400000000E-02 0. -1.
         -2   -1    0    0    0  501 -0.00000000000E+00 -0.00000000000E+00 -0.27502214712E+03  0.27502214713E+03  0.25500000000E-02 0.  1.
        -24    2    1    2    0    0  0.71054273576E-14 -0.22204460493E-15 -0.26905676553E+03  0.28098753085E+03  0.81008946519E+02 0.  0.
         66    2    3    3    0    0  0.36404558017E+02 -0.83078196424E+00 -0.19593918997E+03  0.19930416007E+03  0.20000024901E+01 0.  0.
         13    1    3    3    0    0 -0.36404558017E+02  0.83078196424E+00 -0.73117575558E+02  0.81683370784E+02  0.10566000000E+00 0. -1.
         13    1    4    4    0    0  0.25885423268E+01  0.12710856447E+00 -0.15678496467E+02  0.15891605440E+02  0.10566000000E+00 0. -1.
        -13    1    4    4    0    0  0.10207388570E+02  0.32163983187E+00 -0.54400814181E+02  0.55351187713E+02  0.10566000000E+00 0.  1.
         14    1    4    4    0    0  0.23608627120E+02 -0.12795303606E+01 -0.12585987932E+03  0.12806136691E+03  0.00000000000E+00 0. -1.
<mgrwt>
<rscale>  0 0.81008947E+02</rscale>
<asrwt>0</asrwt>
<pdfrwt beam="1">  1        1 0.91775140E-03 0.81008947E+02</pdfrwt>
<pdfrwt beam="2">  1       -2 0.42311090E-01 0.81008947E+02</pdfrwt>
<totfact> 0.71221763E+04</totfact>
</mgrwt>
</event>
<event>
 8    1  0.1319619E-024  0.7734679E+02  0.7818608E-02  0.1336754E+00
         -2   -1    0    0    0  501 -0.00000000000E+00  0.00000000000E+00  0.49062107039E+01  0.49062113666E+01  0.25500000000E-02 0.  1.
          1   -1    0    0  501    0  0.00000000000E+00 -0.00000000000E+00 -0.30484454005E+03  0.30484454009E+03  0.50400000000E-02 0. -1.
        -24    2    1    2    0    0  0.35527136788E-14  0.35527136788E-14 -0.29993832935E+03  0.30975075146E+03  0.77346794491E+02 0.  0.
         66    2    3    3    0    0  0.29032940661E+02  0.20594467206E+02 -0.89787702510E+02  0.96606807499E+02  0.20000025427E+01 0.  0.
         13    1    3    3    0    0 -0.29032940661E+02 -0.20594467206E+02 -0.21015062684E+03  0.21314394396E+03  0.10566000000E+00 0. -1.
         13    1    4    4    0    0  0.75651464098E+01  0.44883691553E+01 -0.22293506619E+02  0.23966403553E+02  0.10566000000E+00 0. -1.
        -13    1    4    4    0    0  0.19013214378E+02  0.14010289148E+02 -0.58749169547E+02  0.63318769804E+02  0.10566000000E+00 0.  1.
         14    1    4    4    0    0  0.24545798737E+01  0.20958089026E+01 -0.87450263445E+01  0.93216341421E+01  0.00000000000E+00 0. -1.
<mgrwt>
<rscale>  0 0.77346794E+02</rscale>
<asrwt>0</asrwt>
<pdfrwt beam="1">  1        1 0.46899146E-01 0.77346794E+02</pdfrwt>
<pdfrwt beam="2">  1       -2 0.75480193E-03 0.77346794E+02</pdfrwt>
<totfact> 0.19775878E+05</totfact>
</mgrwt>
</event>
<event>
 8    1  0.1319619E-024  0.8030481E+02  0.7818608E-02  0.1328189E+00
         -2   -1    0    0    0  501 -0.00000000000E+00  0.00000000000E+00  0.41706249358E+01  0.41706257154E+01  0.25500000000E-02 0.  1.
          1   -1    0    0  501    0  0.00000000000E+00 -0.00000000000E+00 -0.38656451650E+03  0.38656451653E+03  0.50400000000E-02 0. -1.
        -24    2    1    2    0    0 -0.71054273576E-14  0.00000000000E+00 -0.38239389156E+03  0.39073514224E+03  0.80304813567E+02 0.  0.
         66    2    3    3    0    0 -0.33587125557E+02 -0.21331417583E+02 -0.16599211430E+03  0.17070590613E+03  0.19999997328E+01 0.  0.
         13    1    3    3    0    0  0.33587125557E+02  0.21331417583E+02 -0.21640177726E+03  0.22002923611E+03  0.10566000000E+00 0. -1.
         13    1    4    4    0    0 -0.11304826584E+01 -0.83299367060E+00 -0.48345034831E+01  0.50354202863E+01  0.10566000000E+00 0. -1.
        -13    1    4    4    0    0 -0.12904386277E+02 -0.83278271187E+01 -0.66796674858E+02  0.68539644191E+02  0.10566000000E+00 0.  1.
        -14    1    4    4    0    0 -0.19552256621E+02 -0.12170596793E+02 -0.94360935961E+02  0.97130841656E+02  0.00000000000E+00 0.  1.
<mgrwt>
<rscale>  0 0.80304814E+02</rscale>
<asrwt>0</asrwt>
<pdfrwt beam="1">  1        1 0.59471436E-01 0.80304814E+02</pdfrwt>
<pdfrwt beam="2">  1       -2 0.64163497E-03 0.80304814E+02</pdfrwt>
<totfact> 0.18698287E+05</totfact>
</mgrwt>
</event>
<event>
 8    1  0.1319619E-024  0.7905697E+02  0.7818608E-02  0.1331749E+00
         -2   -1    0    0    0  501 -0.00000000000E+00  0.00000000000E+00  0.12096830978E+02  0.12096831247E+02  0.25500000000E-02 0.  1.
          1   -1    0    0  501    0  0.00000000000E+00 -0.00000000000E+00 -0.12916614665E+03  0.12916614675E+03  0.50400000000E-02 0. -1.
        -24    2    1    2    0    0  0.88817841970E-15  0.71054273576E-14 -0.11706931567E+03  0.14126297800E+03  0.79056968576E+02 0.  0.
         66    2    3    3    0    0 -0.71136087284E+01 -0.37648761578E+02 -0.41390034294E+02  0.56437289249E+02  0.20000003677E+01 0.  0.
         13    1    3    3    0    0  0.71136087284E+01  0.37648761578E+02 -0.75679281377E+02  0.84825688746E+02  0.10566000000E+00 0. -1.
         13    1    4    4    0    0 -0.63522984653E+01 -0.34287783819E+02 -0.37238914073E+02  0.51017170643E+02  0.10566000000E+00 0. -1.
        -13    1    4    4    0    0 -0.71462701916E+00 -0.23392502889E+01 -0.26992597294E+01  0.36441666829E+01  0.10566000000E+00 0.  1.
         14    1    4    4    0    0 -0.46683243864E-01 -0.10217274692E+01 -0.14518604918E+01  0.17759519234E+01  0.00000000000E+00 0. -1.
<mgrwt>
<rscale>  0 0.79056969E+02</rscale>
<asrwt>0</asrwt>
<pdfrwt beam="1">  1        1 0.19871714E-01 0.79056969E+02</pdfrwt>
<pdfrwt beam="2">  1       -2 0.18610510E-02 0.79056969E+02</pdfrwt>
<totfact> 0.15861579E+05</totfact>
</mgrwt>
</event>
<event>
 8    1  0.1319619E-024  0.7936445E+02  0.7818608E-02  0.1330865E+00
         -2   -1    0    0    0  501 -0.00000000000E+00  0.00000000000E+00  0.40314981671E+01  0.40314989735E+01  0.25500000000E-02 0.  1.
          1   -1    0    0  501    0  0.00000000000E+00 -0.00000000000E+00 -0.39059394773E+03  0.39059394776E+03  0.50400000000E-02 0. -1.
        -24    2    1    2    0    0  0.00000000000E+00 -0.35527136788E-14 -0.38656244956E+03  0.39462544673E+03  0.79364449217E+02 0.  0.
         66    2    3    3    0    0 -0.22027127990E+02 -0.30004840338E+02 -0.26143346696E+03  0.26407753115E+03  0.20000007863E+01 0.  0.
         13    1    3    3    0    0  0.22027127990E+02  0.30004840338E+02 -0.12512898260E+03  0.13054791558E+03  0.10566000000E+00 0. -1.
         13    1    4    4    0    0 -0.54947682648E+01 -0.63466619452E+01 -0.58297132692E+02  0.58898552107E+02  0.10566000000E+00 0. -1.
        -13    1    4    4    0    0 -0.17072231968E+01 -0.29443420147E+01 -0.23150868501E+02  0.23399949515E+02  0.10566000000E+00 0. -1.
        -14    1    4    4    0    0 -0.14825136529E+02 -0.20713836378E+02 -0.17998546577E+03  0.18177902953E+03  0.00000000000E+00 0.  1.
<mgrwt>
<rscale>  0 0.79364449E+02</rscale>
<asrwt>0</asrwt>
<pdfrwt beam="1">  1        1 0.60091347E-01 0.79364449E+02</pdfrwt>
<pdfrwt beam="2">  1       -2 0.62023086E-03 0.79364449E+02</pdfrwt>
<totfact> 0.19319384E+05</totfact>
</mgrwt>
</event>
<event>
 8    1  0.1319619E-024  0.8423673E+02  0.7818608E-02  0.1317441E+00
          1   -1    0    0  501    0  0.00000000000E+00  0.00000000000E+00  0.10043822773E+02  0.10043824038E+02  0.50400000000E-02 0. -1.
         -2   -1    0    0    0  501 -0.00000000000E+00 -0.00000000000E+00 -0.17662164613E+03  0.17662164615E+03  0.25500000000E-02 0.  1.
        -24    2    1    2    0    0  0.00000000000E+00  0.00000000000E+00 -0.16657782335E+03  0.18666547018E+03  0.84236729075E+02 0.  0.
         66    2    3    3    0    0 -0.39537003455E+02  0.10384483415E+02 -0.10559920977E+03  0.11325283764E+03  0.19999979583E+01 0.  0.
         13    1    3    3    0    0  0.39537003455E+02 -0.10384483415E+02 -0.60978613584E+02  0.73412632542E+02  0.10566000000E+00 0. -1.
         13    1    4    4    0    0 -0.13429390365E+02  0.42725850684E+01 -0.35518545056E+02  0.38212324134E+02  0.10566000000E+00 0. -1.
        -13    1    4    4    0    0 -0.18582061160E+02  0.39702345256E+01 -0.49164885851E+02  0.52709135109E+02  0.10566000000E+00 0.  1.
         14    1    4    4    0    0 -0.75255519302E+01  0.21416638215E+01 -0.20915778862E+02  0.22331378399E+02  0.00000000000E+00 0. -1.
<mgrwt>
<rscale>  0 0.84236729E+02</rscale>
<asrwt>0</asrwt>
<pdfrwt beam="1">  1        1 0.15452037E-02 0.84236729E+02</pdfrwt>
<pdfrwt beam="2">  1       -2 0.27172559E-01 0.84236729E+02</pdfrwt>
<totfact> 0.78144064E+04</totfact>
</mgrwt>
</event>
<event>
 8    1  0.1319619E-024  0.7916928E+02  0.7818608E-02  0.1331426E+00
          1   -1    0    0  501    0  0.00000000000E+00  0.00000000000E+00  0.15589454137E+03  0.15589454145E+03  0.50400000000E-02 0. -1.
         -2   -1    0    0    0  501 -0.00000000000E+00 -0.00000000000E+00 -0.10051305623E+02  0.10051305946E+02  0.25500000000E-02 0.  1.
        -24    2    1    2    0    0 -0.22204460493E-15  0.00000000000E+00  0.14584323574E+03  0.16594584739E+03  0.79169279744E+02 0.  0.
         66    2    3    3    0    0  0.18335631326E+01 -0.35153769892E+02  0.35134389313E+02  0.49775242966E+02  0.20000021254E+01 0.  0.
         13    1    3    3    0    0 -0.18335631326E+01  0.35153769892E+02  0.11070884643E+03  0.11617060443E+03  0.10566000000E+00 0. -1.
         13    1    4    4    0    0 -0.13972437318E+00 -0.78743539216E+01  0.72965906907E+01  0.10736683488E+02  0.10566000000E+00 0. -1.
        -13    1    4    4    0    0  0.18908052642E+00 -0.26520571678E+01  0.23220173246E+01  0.35315842278E+01  0.10566000000E+00 0.  1.
        -14    1    4    4    0    0  0.17842069794E+01 -0.24627358802E+02  0.25515781298E+02  0.35506975250E+02  0.00000000000E+00 0.  1.
<mgrwt>
<rscale>  0 0.79169280E+02</rscale>
<asrwt>0</asrwt>
<pdfrwt beam="1">  1        1 0.23983776E-01 0.79169280E+02</pdfrwt>
<pdfrwt beam="2">  1       -2 0.15463547E-02 0.79169280E+02</pdfrwt>
<totfact> 0.16350643E+05</totfact>
</mgrwt>
</event>
<event>
 8    1  0.1319619E-024  0.7934750E+02  0.7818608E-02  0.1330913E+00
         -2   -1    0    0    0  501 -0.00000000000E+00  0.00000000000E+00  0.24314009355E+03  0.24314009356E+03  0.25500000000E-02 0.  1.
          1   -1    0    0  501    0  0.00000000000E+00 -0.00000000000E+00 -0.64736593613E+01  0.64736613233E+01  0.50400000000E-02 0. -1.
        -24    2    1    2    0    0  0.00000000000E+00  0.35527136788E-14  0.23666643419E+03  0.24961375489E+03  0.79347498744E+02 0.  0.
         66    2    3    3    0    0  0.23054530582E+02  0.30909949370E+02  0.14742241046E+03  0.15239522123E+03  0.19999996129E+01 0.  0.
         13    1    3    3    0    0 -0.23054530582E+02 -0.30909949370E+02  0.89244023728E+02  0.97218533652E+02  0.10566000000E+00 0. -1.
         13    1    4    4    0    0  0.19742360808E+02  0.26456285286E+02  0.12569695762E+03  0.12995934811E+03  0.10566000000E+00 0. -1.
        -13    1    4    4    0    0  0.26847785797E+01  0.37663802523E+01  0.19029279856E+02  0.19583623569E+02  0.10566000000E+00 0.  1.
         14    1    4    4    0    0  0.62739119502E+00  0.68728383114E+00  0.26961729848E+01  0.28522495579E+01  0.00000000000E+00 0. -1.
<mgrwt>
<rscale>  0 0.79347499E+02</rscale>
<asrwt>0</asrwt>
<pdfrwt beam="1">  1        1 0.99594772E-03 0.79347499E+02</pdfrwt>
<pdfrwt beam="2">  1       -2 0.37406169E-01 0.79347499E+02</pdfrwt>
<totfact> 0.79804052E+04</totfact>
</mgrwt>
</event>
<event>
 8    1  0.1319619E-024  0.8487509E+02  0.7818608E-02  0.1315760E+00
         -2   -1    0    0    0  501 -0.00000000000E+00  0.00000000000E+00  0.55897517218E+02  0.55897517276E+02  0.25500000000E-02 0.  1.
          1   -1    0    0  501    0  0.00000000000E+00 -0.00000000000E+00 -0.32218695721E+02  0.32218696115E+02  0.50400000000E-02 0. -1.
        -24    2    1    2    0    0  0.00000000000E+00 -0.71054273576E-14  0.23678821496E+02  0.88116213391E+02  0.84875087481E+02 0.  0.
         66    2    3    3    0    0 -0.11723683900E+02  0.35340189867E+02  0.32933338789E+02  0.49749156710E+02  0.20000013871E+01 0.  0.
         13    1    3    3    0    0  0.11723683900E+02 -0.35340189867E+02 -0.92545172925E+01  0.38367056681E+02  0.10566000000E+00 0. -1.
         13    1    4    4    0    0 -0.40288962066E+01  0.13069244291E+02  0.11628112580E+02  0.17951638287E+02  0.10566000000E+00 0. -1.
        -13    1    4    4    0    0 -0.44213620687E+01  0.11982890478E+02  0.12408032421E+02  0.17807541642E+02  0.10566000000E+00 0.  1.
        -14    1    4    4    0    0 -0.32734256252E+01  0.10288055097E+02  0.88971937881E+01  0.13989976780E+02  0.00000000000E+00 0.  1.
<mgrwt>
<rscale>  0 0.84875087E+02</rscale>
<asrwt>0</asrwt>
<pdfrwt beam="1">  1        1 0.49567225E-02 0.84875087E+02</pdfrwt>
<pdfrwt beam="2">  1       -2 0.85996179E-02 0.84875087E+02</pdfrwt>
<totfact> 0.10330036E+05</totfact>
</mgrwt>
</event>
<event>
 8    1  0.1319619E-024  0.7951613E+02  0.7818608E-02  0.1330430E+00
         -2   -1    0    0    0  501 -0.00000000000E+00  0.00000000000E+00  0.37950218801E+01  0.37950227368E+01  0.25500000000E-02 0.  1.
          1   -1    0    0  501    0  0.00000000000E+00 -0.00000000000E+00 -0.41652031660E+03  0.41652031663E+03  0.50400000000E-02 0. -1.
        -24    2    1    2    0    0  0.00000000000E+00  0.00000000000E+00 -0.41272529472E+03  0.42031533937E+03  0.79516134249E+02 0.  0.
         66    2    3    3    0    0  0.11959250584E+01 -0.39647738467E+02 -0.19429445275E+03  0.19831214729E+03  0.19999983425E+01 0.  0.
         13    1    3    3    0    0 -0.11959250584E+01  0.39647738467E+02 -0.21843084197E+03  0.22200319208E+03  0.10566000000E+00 0. -1.
         13    1    4    4    0    0  0.59892512291E+00 -0.11496435209E+02 -0.58141106519E+02  0.59269943185E+02  0.10566000000E+00 0.  1.
        -13    1    4    4    0    0  0.86081187400E+00 -0.23770155353E+02 -0.11680795014E+03  0.11920515787E+03  0.10566000000E+00 0.  1.
        -14    1    4    4    0    0 -0.26381193850E+00 -0.43811479046E+01 -0.19345396085E+02  0.19837046236E+02  0.00000000000E+00 0.  1.
<mgrwt>
<rscale>  0 0.79516134E+02</rscale>
<asrwt>0</asrwt>
<pdfrwt beam="1">  1        1 0.64080013E-01 0.79516134E+02</pdfrwt>
<pdfrwt beam="2">  1       -2 0.58384992E-03 0.79516134E+02</pdfrwt>
<totfact> 0.19423931E+05</totfact>
</mgrwt>
</event>
<event>
 8    1  0.1319619E-024  0.8081356E+02  0.7818608E-02  0.1326758E+00
         -2   -1    0    0    0  501 -0.00000000000E+00  0.00000000000E+00  0.49532468622E+03  0.49532468623E+03  0.25500000000E-02 0.  1.
          1   -1    0    0  501    0  0.00000000000E+00 -0.00000000000E+00 -0.32962356625E+01  0.32962395156E+01  0.50400000000E-02 0. -1.
        -24    2    1    2    0    0  0.35527136788E-14  0.17763568394E-14  0.49202845056E+03  0.49862092574E+03  0.80813559692E+02 0.  0.
         66    2    3    3    0    0  0.30938054257E+02  0.15292795256E+02  0.37553929412E+03  0.37712702664E+03  0.20000011589E+01 0.  0.
         13    1    3    3    0    0 -0.30938054257E+02 -0.15292795256E+02  0.11648915643E+03  0.12149389910E+03  0.10566000000E+00 0. -1.
         13    1    4    4    0    0  0.28293415316E+01  0.18464024688E+01  0.37487518169E+02  0.37639600929E+02  0.10566000000E+00 0.  1.
        -13    1    4    4    0    0  0.26651073356E+02  0.12743696915E+02  0.31697218305E+03  0.31834581435E+03  0.10566000000E+00 0. -1.
         14    1    4    4    0    0  0.14576393693E+01  0.70269587240E+00  0.21079592905E+02  0.21141611363E+02  0.00000000000E+00 0. -1.
<mgrwt>
<rscale>  0 0.80813560E+02</rscale>
<asrwt>0</asrwt>
<pdfrwt beam="1">  1        1 0.50711333E-03 0.80813560E+02</pdfrwt>
<pdfrwt beam="2">  1       -2 0.76203820E-01 0.80813560E+02</pdfrwt>
<totfact> 0.49441285E+04</totfact>
</mgrwt>
</event>
<event>
 8    1  0.1319619E-024  0.7842341E+02  0.7818608E-02  0.1333586E+00
         -2   -1    0    0    0  501 -0.00000000000E+00  0.00000000000E+00  0.14779326921E+03  0.14779326924E+03  0.25500000000E-02 0.  1.
          1   -1    0    0  501    0  0.00000000000E+00 -0.00000000000E+00 -0.10403435926E+02  0.10403437146E+02  0.50400000000E-02 0. -1.
        -24    2    1    2    0    0  0.00000000000E+00  0.00000000000E+00  0.13738983329E+03  0.15819670638E+03  0.78423412443E+02 0.  0.
         66    2    3    3    0    0 -0.81355497447E+01  0.21976415269E+02  0.13209417698E+03  0.13417161247E+03  0.20000006629E+01 0.  0.
         13    1    3    3    0    0  0.81355497447E+01 -0.21976415269E+02  0.52956563060E+01  0.24025093912E+02  0.10566000000E+00 0. -1.
         13    1    4    4    0    0 -0.14937242841E+01  0.58142019213E+01  0.35476910026E+02  0.35981362748E+02  0.10566000000E+00 0. -1.
        -13    1    4    4    0    0 -0.43422209097E+01  0.10696090049E+02  0.66523076239E+02  0.67517346372E+02  0.10566000000E+00 0.  1.
         14    1    4    4    0    0 -0.22996045509E+01  0.54661232983E+01  0.30094190718E+02  0.30672903351E+02  0.00000000000E+00 0. -1.
<mgrwt>
<rscale>  0 0.78423412E+02</rscale>
<asrwt>0</asrwt>
<pdfrwt beam="1">  1        1 0.16005287E-02 0.78423412E+02</pdfrwt>
<pdfrwt beam="2">  1       -2 0.22737426E-01 0.78423412E+02</pdfrwt>
<totfact> 0.99957285E+04</totfact>
</mgrwt>
</event>
<event>
 8    1  0.1319619E-024  0.8021100E+02  0.7818608E-02  0.1328454E+00
         -2   -1    0    0    0  501 -0.00000000000E+00  0.00000000000E+00  0.75477255767E+02  0.75477255810E+02  0.25500000000E-02 0.  1.
          1   -1    0    0  501    0  0.00000000000E+00 -0.00000000000E+00 -0.21310408235E+02  0.21310408831E+02  0.50400000000E-02 0. -1.
        -24    2    1    2    0    0 -0.71054273576E-14 -0.22204460493E-15  0.54166847532E+02  0.96787664642E+02  0.80211000837E+02 0.  0.
         66    2    3    3    0    0  0.37094248287E+02  0.16223207085E+01  0.88867531038E+01  0.38230741089E+02  0.20000007626E+01 0.  0.
         13    1    3    3    0    0 -0.37094248287E+02 -0.16223207085E+01  0.45280094428E+02  0.58556923552E+02  0.10566000000E+00 0. -1.
         13    1    4    4    0    0  0.51361857111E+00  0.10666082827E+00  0.30711744084E-01  0.53599236534E+00  0.10566000000E+00 0.  1.
        -13    1    4    4    0    0  0.18022101428E+01 -0.16954023692E+00  0.60199389744E+00  0.19105669260E+01  0.10566000000E+00 0.  1.
        -14    1    4    4    0    0  0.34778419573E+02  0.16852001172E+01  0.82540474623E+01  0.35784181798E+02  0.00000000000E+00 0.  1.
<mgrwt>
<rscale>  0 0.80211001E+02</rscale>
<asrwt>0</asrwt>
<pdfrwt beam="1">  1        1 0.32785244E-02 0.80211001E+02</pdfrwt>
<pdfrwt beam="2">  1       -2 0.11611886E-01 0.80211001E+02</pdfrwt>
<totfact> 0.11239492E+05</totfact>
</mgrwt>
</event>
<event>
 8    1  0.1319619E-024  0.8235682E+02  0.7818608E-02  0.1322493E+00
         -2   -1    0    0    0  501 -0.00000000000E+00  0.00000000000E+00  0.10897535609E+03  0.10897535612E+03  0.25500000000E-02 0.  1.
          1   -1    0    0  501    0  0.00000000000E+00 -0.00000000000E+00 -0.15560045324E+02  0.15560046141E+02  0.50400000000E-02 0. -1.
        -24    2    1    2    0    0 -0.35527136788E-14  0.00000000000E+00  0.93415310765E+02  0.12453540226E+03  0.82356822005E+02 0.  0.
         66    2    3    3    0    0 -0.24330334799E+02  0.10515090719E+02  0.94340641432E+02  0.98013718204E+02  0.20000015208E+01 0.  0.
         13    1    3    3    0    0  0.24330334799E+02 -0.10515090719E+02 -0.92533066734E+00  0.26521684056E+02  0.10566000000E+00 0. -1.
         13    1    4    4    0    0 -0.10217085709E+02  0.37140346665E+01  0.40677473144E+02  0.42105235770E+02  0.10566000000E+00 0. -1.
        -13    1    4    4    0    0 -0.11294690971E+02  0.52584244835E+01  0.43547367287E+02  0.45294651272E+02  0.10566000000E+00 0.  1.
        -14    1    4    4    0    0 -0.28185581192E+01  0.15426315691E+01  0.10115801002E+02  0.10613831162E+02  0.00000000000E+00 0.  1.
<mgrwt>
<rscale>  0 0.82356822E+02</rscale>
<asrwt>0</asrwt>
<pdfrwt beam="1">  1        1 0.23938531E-02 0.82356822E+02</pdfrwt>
<pdfrwt beam="2">  1       -2 0.16765440E-01 0.82356822E+02</pdfrwt>
<totfact> 0.96373449E+04</totfact>
</mgrwt>
</event>
<event>
 8    1  0.1319619E-024  0.7894681E+02  0.7818608E-02  0.1332067E+00
         -2   -1    0    0    0  501 -0.00000000000E+00  0.00000000000E+00  0.71071330835E+02  0.71071330880E+02  0.25500000000E-02 0.  1.
          1   -1    0    0  501    0  0.00000000000E+00 -0.00000000000E+00 -0.21923745870E+02  0.21923746450E+02  0.50400000000E-02 0. -1.
        -24    2    1    2    0    0 -0.71054273576E-14  0.00000000000E+00  0.49147584964E+02  0.92995077330E+02  0.78946813108E+02 0.  0.
         66    2    3    3    0    0 -0.23711762860E+02  0.54139254656E+00  0.61720125760E+02  0.66150697100E+02  0.19999998028E+01 0.  0.
         13    1    3    3    0    0  0.23711762860E+02 -0.54139254656E+00 -0.12572540796E+02  0.26844380230E+02  0.10566000000E+00 0. -1.
         13    1    4    4    0    0 -0.35077371937E+01 -0.20699516883E+00  0.95511647899E+01  0.10177572407E+02  0.10566000000E+00 0. -1.
        -13    1    4    4    0    0 -0.31661977990E+01 -0.58609985851E-01  0.98062370063E+01  0.10305420510E+02  0.10566000000E+00 0.  1.
         14    1    4    4    0    0 -0.17037827868E+02  0.80699770124E+00  0.42362723964E+02  0.45667704183E+02  0.00000000000E+00 0. -1.
<mgrwt>
<rscale>  0 0.78946813E+02</rscale>
<asrwt>0</asrwt>
<pdfrwt beam="1">  1        1 0.33728841E-02 0.78946813E+02</pdfrwt>
<pdfrwt beam="2">  1       -2 0.10934051E-01 0.78946813E+02</pdfrwt>
<totfact> 0.11848275E+05</totfact>
</mgrwt>
</event>
<event>
 8    1  0.1319619E-024  0.8129386E+02  0.7818608E-02  0.1325419E+00
         -2   -1    0    0    0  501 -0.00000000000E+00  0.00000000000E+00  0.62025852222E+02  0.62025852275E+02  0.25500000000E-02 0.  1.
          1   -1    0    0  501    0  0.00000000000E+00 -0.00000000000E+00 -0.26636843817E+02  0.26636844294E+02  0.50400000000E-02 0. -1.
        -24    2    1    2    0    0  0.00000000000E+00  0.00000000000E+00  0.35389008405E+02  0.88662696568E+02  0.81293861065E+02 0.  0.
         66    2    3    3    0    0  0.12801709145E+02  0.18965294657E+02  0.54312544078E+02  0.58969641407E+02  0.20000012381E+01 0.  0.
         13    1    3    3    0    0 -0.12801709145E+02 -0.18965294657E+02 -0.18923535673E+02  0.29693055162E+02  0.10566000000E+00 0. -1.
         13    1    4    4    0    0  0.54457495201E+01  0.65118439294E+01  0.19971578621E+02  0.21701046422E+02  0.10566000000E+00 0. -1.
        -13    1    4    4    0    0  0.62840284462E+01  0.10170562530E+02  0.28162421107E+02  0.30595138214E+02  0.10566000000E+00 0.  1.
         14    1    4    4    0    0  0.10719311787E+01  0.22828881967E+01  0.61785443502E+01  0.66734567698E+01  0.00000000000E+00 0. -1.
<mgrwt>
<rscale>  0 0.81293861E+02</rscale>
<asrwt>0</asrwt>
<pdfrwt beam="1">  1        1 0.40979760E-02 0.81293861E+02</pdfrwt>
<pdfrwt beam="2">  1       -2 0.95424388E-02 0.81293861E+02</pdfrwt>
<totfact> 0.11296934E+05</totfact>
</mgrwt>
</event>
<event>
 8    1  0.1319619E-024  0.7636148E+02  0.7818608E-02  0.1339706E+00
          1   -1    0    0  501    0  0.00000000000E+00  0.00000000000E+00  0.15614315561E+02  0.15614316374E+02  0.50400000000E-02 0. -1.
         -2   -1    0    0    0  501 -0.00000000000E+00 -0.00000000000E+00 -0.93361054500E+02  0.93361054535E+02  0.25500000000E-02 0.  1.
        -24    2    1    2    0    0  0.00000000000E+00  0.00000000000E+00 -0.77746738939E+02  0.10897537091E+03  0.76361482758E+02 0.  0.
         66    2    3    3    0    0  0.10485706351E+02  0.80742925504E+01 -0.89969757258E+02  0.90959889269E+02  0.19999991869E+01 0.  0.
         13    1    3    3    0    0 -0.10485706351E+02 -0.80742925504E+01  0.12223018319E+02  0.18015481640E+02  0.10566000000E+00 0. -1.
         13    1    4    4    0    0  0.26088352487E+01  0.25058975512E+01 -0.25495163760E+02  0.25750729758E+02  0.10566000000E+00 0. -1.
        -13    1    4    4    0    0  0.59326125011E+01  0.44073417306E+01 -0.53035155815E+02  0.53547730751E+02  0.10566000000E+00 0.  1.
         14    1    4    4    0    0  0.19442586007E+01  0.11610532687E+01 -0.11439437683E+02  0.11661428759E+02  0.00000000000E+00 0. -1.
<mgrwt>
<rscale>  0 0.76361483E+02</rscale>
<asrwt>0</asrwt>
<pdfrwt beam="1">  1        1 0.24022025E-02 0.76361483E+02</pdfrwt>
<pdfrwt beam="2">  1       -2 0.14363239E-01 0.76361483E+02</pdfrwt>
<totfact> 0.12153733E+05</totfact>
</mgrwt>
</event>
<event>
 8    1  0.1319619E-024  0.7864328E+02  0.7818608E-02  0.1332946E+00
         -2   -1    0    0    0  501 -0.00000000000E+00  0.00000000000E+00  0.11187273892E+02  0.11187274183E+02  0.25500000000E-02 0.  1.
          1   -1    0    0  501    0  0.00000000000E+00 -0.00000000000E+00 -0.13820982343E+03  0.13820982352E+03  0.50400000000E-02 0. -1.
        -24    2    1    2    0    0  0.00000000000E+00 -0.35527136788E-14 -0.12702254954E+03  0.14939709770E+03  0.78643275055E+02 0.  0.
         66    2    3    3    0    0 -0.70782369773E+01 -0.23682177551E+02 -0.55189621888E+01  0.25404840385E+02  0.19999997733E+01 0.  0.
         13    1    3    3    0    0  0.70782369773E+01  0.23682177551E+02 -0.12150358735E+03  0.12399225732E+03  0.10566000000E+00 0. -1.
         13    1    4    4    0    0 -0.12843885369E+01 -0.47717145599E+01 -0.13855026654E+01  0.51331954401E+01  0.10566000000E+00 0. -1.
        -13    1    4    4    0    0  0.71592824396E-01 -0.48418530775E+00 -0.19494428763E+00  0.53733439833E+00  0.10566000000E+00 0.  1.
        -14    1    4    4    0    0 -0.58654412647E+01 -0.18426277684E+02 -0.39385152358E+01  0.19734310547E+02  0.00000000000E+00 0.  1.
<mgrwt>
<rscale>  0 0.78643275E+02</rscale>
<asrwt>0</asrwt>
<pdfrwt beam="1">  1        1 0.21263049E-01 0.78643275E+02</pdfrwt>
<pdfrwt beam="2">  1       -2 0.17211192E-02 0.78643275E+02</pdfrwt>
<totfact> 0.16281842E+05</totfact>
</mgrwt>
</event>
<event>
 8    1  0.1319619E-024  0.7782701E+02  0.7818608E-02  0.1335334E+00
         -2   -1    0    0    0  501 -0.00000000000E+00  0.00000000000E+00  0.65448512672E+01  0.65448517639E+01  0.25500000000E-02 0.  1.
          1   -1    0    0  501    0  0.00000000000E+00 -0.00000000000E+00 -0.23136672522E+03  0.23136672527E+03  0.50400000000E-02 0. -1.
        -24    2    1    2    0    0  0.88817841970E-15  0.71054273576E-14 -0.22482187395E+03  0.23791157704E+03  0.77827009973E+02 0.  0.
         66    2    3    3    0    0  0.51502556651E+01  0.32286147304E+02 -0.48119710075E+02  0.58210196063E+02  0.19999967367E+01 0.  0.
         13    1    3    3    0    0 -0.51502556651E+01 -0.32286147304E+02 -0.17670216388E+03  0.17970138097E+03  0.10566000000E+00 0. -1.
         13    1    4    4    0    0  0.28716517715E+01  0.15235393963E+02 -0.24247191766E+02  0.28780220390E+02  0.10566000000E+00 0. -1.
        -13    1    4    4    0    0  0.25708815114E+00  0.15256897578E+01 -0.19678874989E+01  0.25055076928E+01  0.10566000000E+00 0.  1.
         14    1    4    4    0    0  0.20215157425E+01  0.15525063583E+02 -0.21904630809E+02  0.26924467981E+02  0.00000000000E+00 0. -1.
<mgrwt>
<rscale>  0 0.77827010E+02</rscale>
<asrwt>0</asrwt>
<pdfrwt beam="1">  1        1 0.35594875E-01 0.77827010E+02</pdfrwt>
<pdfrwt beam="2">  1       -2 0.10069004E-02 0.77827010E+02</pdfrwt>
<totfact> 0.18449636E+05</totfact>
</mgrwt>
</event>
<event>
 8    1  0.1319619E-024  0.8217851E+02  0.7818608E-02  0.1322980E+00
         -2   -1    0    0    0  501 -0.00000000000E+00  0.00000000000E+00  0.13362953158E+02  0.13362953401E+02  0.25500000000E-02 0.  1.
          1   -1    0    0  501    0  0.00000000000E+00 -0.00000000000E+00 -0.12634383471E+03  0.12634383481E+03  0.50400000000E-02 0. -1.
        -24    2    1    2    0    0  0.35527136788E-14  0.35527136788E-14 -0.11298088155E+03  0.13970678821E+03  0.82178507386E+02 0.  0.
         66    2    3    3    0    0 -0.28189777247E+02 -0.27531561364E+02 -0.36868561965E+02  0.53999456149E+02  0.19999976492E+01 0.  0.
         13    1    3    3    0    0  0.28189777247E+02  0.27531561364E+02 -0.76112319585E+02  0.85707332061E+02  0.10566000000E+00 0. -1.
         13    1    4    4    0    0 -0.33709574337E+01 -0.27951112980E+01 -0.37359956100E+01  0.57571545421E+01  0.10566000000E+00 0. -1.
        -13    1    4    4    0    0 -0.92750325904E+01 -0.95433511973E+01 -0.11778463091E+02  0.17772032479E+02  0.10566000000E+00 0.  1.
        -14    1    4    4    0    0 -0.15543787223E+02 -0.15193098869E+02 -0.21354103264E+02  0.30470269127E+02  0.00000000000E+00 0.  1.
<mgrwt>
<rscale>  0 0.82178507E+02</rscale>
<asrwt>0</asrwt>
<pdfrwt beam="1">  1        1 0.19437512E-01 0.82178507E+02</pdfrwt>
<pdfrwt beam="2">  1       -2 0.20558391E-02 0.82178507E+02</pdfrwt>
<totfact> 0.14238517E+05</totfact>
</mgrwt>
</event>
<event>
 8    1  0.1429636E-024  0.8571473E+02  0.7818608E-02  0.1313574E+00
          1   -1    0    0  501    0  0.00000000000E+00  0.00000000000E+00  0.13230359355E+03  0.13230359365E+03  0.50400000000E-02 0. -1.
         -2   -1    0    0    0  501 -0.00000000000E+00 -0.00000000000E+00 -0.13882871917E+02  0.13882872151E+02  0.25500000000E-02 0.  1.
        -24    2    1    2    0    0  0.00000000000E+00  0.00000000000E+00  0.11842072164E+03  0.14618646580E+03  0.85714733098E+02 0.  0.
         66    2    3    3    0    0  0.11339746067E+02  0.27442344592E+02  0.65904168812E+01  0.30481235394E+02  0.19999997244E+01 0.  0.
         13    1    3    3    0    0 -0.11339746067E+02 -0.27442344592E+02  0.11183030475E+03  0.11570523041E+03  0.10566000000E+00 0. -1.
         13    1    4    4    0    0  0.88062421560E+00  0.29797812316E+01  0.99805794829E+00  0.32652532675E+01  0.10566000000E+00 0. -1.
        -13    1    4    4    0    0  0.50980044531E+01  0.12473204208E+02  0.34399611807E+01  0.13907371052E+02  0.10566000000E+00 0.  1.
        -14    1    4    4    0    0  0.53611173983E+01  0.11989359153E+02  0.21523977522E+01  0.13308611075E+02  0.00000000000E+00 0.  1.
<mgrwt>
<rscale>  0 0.85714733E+02</rscale>
<asrwt>0</asrwt>
<pdfrwt beam="1">  1        1 0.20354399E-01 0.85714733E+02</pdfrwt>
<pdfrwt beam="2">  1       -2 0.21358265E-02 0.85714733E+02</pdfrwt>
<totfact> 0.12815707E+05</totfact>
</mgrwt>
</event>
<event>
 8    1  0.1319619E-024  0.8056626E+02  0.7818608E-02  0.1327452E+00
         -2   -1    0    0    0  501 -0.00000000000E+00  0.00000000000E+00  0.13569585176E+03  0.13569585178E+03  0.25500000000E-02 0.  1.
          1   -1    0    0  501    0  0.00000000000E+00 -0.00000000000E+00 -0.11958585097E+02  0.11958586159E+02  0.50400000000E-02 0. -1.
        -24    2    1    2    0    0  0.00000000000E+00  0.35527136788E-14  0.12373726666E+03  0.14765443794E+03  0.80566257718E+02 0.  0.
         66    2    3    3    0    0 -0.24571904558E+02  0.27431228067E+02  0.91711398368E+02  0.98849538895E+02  0.19999955577E+01 0.  0.
         13    1    3    3    0    0  0.24571904558E+02 -0.27431228067E+02  0.32025868294E+02  0.48804899046E+02  0.10566000000E+00 0. -1.
         13    1    4    4    0    0 -0.72238413880E+01  0.81431607554E+01  0.28935131870E+02  0.30915173813E+02  0.10566000000E+00 0. -1.
        -13    1    4    4    0    0 -0.97596857821E+01  0.10840875147E+02  0.36721504975E+02  0.39512733798E+02  0.10566000000E+00 0.  1.
         14    1    4    4    0    0 -0.75883773884E+01  0.84471921645E+01  0.26054761523E+02  0.28421631285E+02  0.00000000000E+00 0. -1.
<mgrwt>
<rscale>  0 0.80566258E+02</rscale>
<asrwt>0</asrwt>
<pdfrwt beam="1">  1        1 0.18397825E-02 0.80566258E+02</pdfrwt>
<pdfrwt beam="2">  1       -2 0.20876284E-01 0.80566258E+02</pdfrwt>
<totfact> 0.95809949E+04</totfact>
</mgrwt>
</event>
<event>
 8    1  0.1319619E-024  0.8074291E+02  0.7818608E-02  0.1326956E+00
         -2   -1    0    0    0  501 -0.00000000000E+00  0.00000000000E+00  0.36243234171E+03  0.36243234172E+03  0.25500000000E-02 0.  1.
          1   -1    0    0  501    0  0.00000000000E+00 -0.00000000000E+00 -0.44969882593E+01  0.44969910836E+01  0.50400000000E-02 0. -1.
        -24    2    1    2    0    0  0.71054273576E-14 -0.88817841970E-15  0.35793535345E+03  0.36692933280E+03  0.80742913132E+02 0.  0.
         66    2    3    3    0    0 -0.38155751892E+02  0.55452314409E+01  0.23308474507E+03  0.23626068097E+03  0.19999987309E+01 0.  0.
         13    1    3    3    0    0  0.38155751892E+02 -0.55452314409E+01  0.12485060838E+03  0.13066865183E+03  0.10566000000E+00 0. -1.
         13    1    4    4    0    0 -0.17622759753E+02  0.18401255561E+01  0.10871715584E+03  0.11015161760E+03  0.10566000000E+00 0.  1.
        -13    1    4    4    0    0 -0.19697487067E+01  0.20824097951E+00  0.10617039422E+02  0.10800739067E+02  0.10566000000E+00 0. -1.
        -14    1    4    4    0    0 -0.18563243432E+02  0.34968649053E+01  0.11375054981E+03  0.11530832430E+03  0.00000000000E+00 0.  1.
<mgrwt>
<rscale>  0 0.80742913E+02</rscale>
<asrwt>0</asrwt>
<pdfrwt beam="1">  1        1 0.69184443E-03 0.80742913E+02</pdfrwt>
<pdfrwt beam="2">  1       -2 0.55758833E-01 0.80742913E+02</pdfrwt>
<totfact> 0.61465783E+04</totfact>
</mgrwt>
</event>
<event>
 8    1  0.1319619E-024  0.8249176E+02  0.7818608E-02  0.1322125E+00
         -2   -1    0    0    0  501 -0.00000000000E+00  0.00000000000E+00  0.10168618694E+03  0.10168618697E+03  0.25500000000E-02 0.  1.
          1   -1    0    0  501    0  0.00000000000E+00 -0.00000000000E+00 -0.16730123481E+02  0.16730124240E+02  0.50400000000E-02 0. -1.
        -24    2    1    2    0    0  0.00000000000E+00 -0.17763568394E-14  0.84956063458E+02  0.11841631121E+03  0.82491757422E+02 0.  0.
         66    2    3    3    0    0  0.13011396769E+02  0.14348059818E+02  0.94737000525E+02  0.96717436578E+02  0.20000008333E+01 0.  0.
         13    1    3    3    0    0 -0.13011396769E+02 -0.14348059818E+02 -0.97809370674E+01  0.21698874633E+02  0.10566000000E+00 0. -1.
         13    1    4    4    0    0  0.42810926616E+01  0.53794427534E+01  0.37743813486E+02  0.38364994190E+02  0.10566000000E+00 0. -1.
        -13    1    4    4    0    0  0.21016536996E+01  0.20187543731E+01  0.13608428975E+02  0.13917356814E+02  0.10566000000E+00 0.  1.
         14    1    4    4    0    0  0.66286504073E+01  0.69498626911E+01  0.43384758064E+02  0.44435085574E+02  0.00000000000E+00 0. -1.
<mgrwt>
<rscale>  0 0.82491757E+02</rscale>
<asrwt>0</asrwt>
<pdfrwt beam="1">  1        1 0.25738652E-02 0.82491757E+02</pdfrwt>
<pdfrwt beam="2">  1       -2 0.15644029E-01 0.82491757E+02</pdfrwt>
<totfact> 0.97699467E+04</totfact>
</mgrwt>
</event>
<event>
 8    1  0.1319619E-024  0.8088822E+02  0.7818608E-02  0.1326550E+00
          1   -1    0    0  501    0  0.00000000000E+00  0.00000000000E+00  0.72819340397E+01  0.72819357839E+01  0.50400000000E-02 0. -1.
         -2   -1    0    0    0  501 -0.00000000000E+00 -0.00000000000E+00 -0.22462791095E+03  0.22462791097E+03  0.25500000000E-02 0.  1.
        -24    2    1    2    0    0  0.00000000000E+00  0.00000000000E+00 -0.21734597691E+03  0.23190984675E+03  0.80888215086E+02 0.  0.
         66    2    3    3    0    0 -0.18117878029E+02  0.21676512353E+02 -0.19161568589E+03  0.19369744389E+03  0.19999997847E+01 0.  0.
         13    1    3    3    0    0  0.18117878029E+02 -0.21676512353E+02 -0.25730291020E+02  0.38212402857E+02  0.10566000000E+00 0. -1.
         13    1    4    4    0    0 -0.73353653310E+00  0.11664103156E+01 -0.84229520381E+01  0.85355652385E+01  0.10566000000E+00 0. -1.
        -13    1    4    4    0    0 -0.46448063674E+01  0.45496451461E+01 -0.42320265558E+02  0.42816930507E+02  0.10566000000E+00 0.  1.
        -14    1    4    4    0    0 -0.12739535128E+02  0.15960456891E+02 -0.14087246830E+03  0.14234494815E+03  0.00000000000E+00 0.  1.
<mgrwt>
<rscale>  0 0.80888215E+02</rscale>
<asrwt>0</asrwt>
<pdfrwt beam="1">  1        1 0.11202979E-02 0.80888215E+02</pdfrwt>
<pdfrwt beam="2">  1       -2 0.34558135E-01 0.80888215E+02</pdfrwt>
<totfact> 0.78719221E+04</totfact>
</mgrwt>
</event>
<event>
 8    1  0.1319619E-024  0.7539069E+02  0.7818608E-02  0.1342665E+00
          1   -1    0    0  501    0  0.00000000000E+00  0.00000000000E+00  0.59973090225E+02  0.59973090436E+02  0.50400000000E-02 0. -1.
         -2   -1    0    0    0  501 -0.00000000000E+00 -0.00000000000E+00 -0.23692944373E+02  0.23692944510E+02  0.25500000000E-02 0.  1.
        -24    2    1    2    0    0  0.00000000000E+00  0.00000000000E+00  0.36280145852E+02  0.83666034946E+02  0.75390691870E+02 0.  0.
         66    2    3    3    0    0  0.10336910512E+02 -0.31192309752E+02 -0.22838435082E+01  0.33000421894E+02  0.19999993605E+01 0.  0.
         13    1    3    3    0    0 -0.10336910512E+02  0.31192309752E+02  0.38563989360E+02  0.50665613052E+02  0.10566000000E+00 0. -1.
         13    1    4    4    0    0  0.13295117392E+01 -0.31677671844E+01 -0.18747458001E+00  0.34421884249E+01  0.10566000000E+00 0. -1.
        -13    1    4    4    0    0  0.16345007905E+01 -0.34661305174E+01 -0.29086229839E-01  0.38337532057E+01  0.10566000000E+00 0.  1.
         14    1    4    4    0    0  0.73728979818E+01 -0.24558412050E+02 -0.20672826984E+01  0.25724480263E+02  0.00000000000E+00 0. -1.
<mgrwt>
<rscale>  0 0.75390692E+02</rscale>
<asrwt>0</asrwt>
<pdfrwt beam="1">  1        1 0.92266291E-02 0.75390692E+02</pdfrwt>
<pdfrwt beam="2">  1       -2 0.36450685E-02 0.75390692E+02</pdfrwt>
<totfact> 0.15931163E+05</totfact>
</mgrwt>
</event>
<event>
 8    1  0.1319619E-024  0.8118843E+02  0.7818608E-02  0.1325712E+00
          1   -1    0    0  501    0  0.00000000000E+00  0.00000000000E+00  0.20180369796E+03  0.20180369802E+03  0.50400000000E-02 0. -1.
         -2   -1    0    0    0  501 -0.00000000000E+00 -0.00000000000E+00 -0.81658070434E+01  0.81658074416E+01  0.25500000000E-02 0.  1.
        -24    2    1    2    0    0  0.71054273576E-14 -0.71054273576E-14  0.19363789092E+03  0.20996950547E+03  0.81188425446E+02 0.  0.
         66    2    3    3    0    0  0.33233116537E+02 -0.23224133349E+02  0.93143433302E+02  0.10160462379E+03  0.20000010104E+01 0.  0.
         13    1    3    3    0    0 -0.33233116537E+02  0.23224133349E+02  0.10049445762E+03  0.10836488167E+03  0.10566000000E+00 0. -1.
         13    1    4    4    0    0  0.18693844607E+01 -0.10843072801E+01  0.41917634988E+01  0.47172413342E+01  0.10566000000E+00 0. -1.
        -13    1    4    4    0    0  0.16095297820E+02 -0.11472300322E+02  0.44629427857E+02  0.48810544777E+02  0.10566000000E+00 0.  1.
         14    1    4    4    0    0  0.15268434257E+02 -0.10667525747E+02  0.44322241946E+02  0.48076837680E+02  0.00000000000E+00 0. -1.
<mgrwt>
<rscale>  0 0.81188425E+02</rscale>
<asrwt>0</asrwt>
<pdfrwt beam="1">  1        1 0.31046718E-01 0.81188425E+02</pdfrwt>
<pdfrwt beam="2">  1       -2 0.12562782E-02 0.81188425E+02</pdfrwt>
<totfact> 0.16061303E+05</totfact>
</mgrwt>
</event>
<event>
 8    1  0.1319619E-024  0.8107871E+02  0.7818608E-02  0.1326018E+00
         -2   -1    0    0    0  501 -0.00000000000E+00  0.00000000000E+00  0.20379487380E+02  0.20379487539E+02  0.25500000000E-02 0.  1.
          1   -1    0    0  501    0  0.00000000000E+00 -0.00000000000E+00 -0.80641843254E+02  0.80641843412E+02  0.50400000000E-02 0. -1.
        -24    2    1    2    0    0  0.00000000000E+00  0.71054273576E-14 -0.60262355874E+02  0.10102133095E+03  0.81078713430E+02 0.  0.
         66    2    3    3    0    0 -0.90992989319E+01  0.33463013661E+02 -0.40476173077E+01  0.34970755477E+02  0.20000021071E+01 0.  0.
         13    1    3    3    0    0  0.90992989319E+01 -0.33463013661E+02 -0.56214738567E+02  0.66050575474E+02  0.10566000000E+00 0. -1.
         13    1    4    4    0    0 -0.93231602549E+00  0.61207659007E+01 -0.65036378836E+00  0.62263251983E+01  0.10566000000E+00 0. -1.
        -13    1    4    4    0    0 -0.66771756985E+01  0.22802408672E+02 -0.30240334685E+01  0.23951836234E+02  0.10566000000E+00 0.  1.
         14    1    4    4    0    0 -0.14898072079E+01  0.45398390884E+01 -0.37322005093E+00  0.47925940441E+01  0.00000000000E+00 0. -1.
<mgrwt>
<rscale>  0 0.81078713E+02</rscale>
<asrwt>0</asrwt>
<pdfrwt beam="1">  1        1 0.12406437E-01 0.81078713E+02</pdfrwt>
<pdfrwt beam="2">  1       -2 0.31353058E-02 0.81078713E+02</pdfrwt>
<totfact> 0.13679061E+05</totfact>
</mgrwt>
</event>
<event>
 8    1  0.1319619E-024  0.7940516E+02  0.7818608E-02  0.1330748E+00
         -2   -1    0    0    0  501 -0.00000000000E+00  0.00000000000E+00  0.65769931940E+01  0.65769936884E+01  0.25500000000E-02 0.  1.
          1   -1    0    0  501    0  0.00000000000E+00 -0.00000000000E+00 -0.23966802471E+03  0.23966802476E+03  0.50400000000E-02 0. -1.
        -24    2    1    2    0    0 -0.35527136788E-14  0.00000000000E+00 -0.23309103151E+03  0.24624501845E+03  0.79405164434E+02 0.  0.
         66    2    3    3    0    0  0.22714478655E+02  0.25940217178E+02 -0.55735492272E+02  0.65568952321E+02  0.20000004547E+01 0.  0.
         13    1    3    3    0    0 -0.22714478655E+02 -0.25940217178E+02 -0.17735553924E+03  0.18067606613E+03  0.10566000000E+00 0. -1.
         13    1    4    4    0    0  0.38338776951E+01  0.44105048995E+01 -0.93154089810E+01  0.10997235115E+02  0.10566000000E+00 0. -1.
        -13    1    4    4    0    0  0.11910018168E+02  0.14548932065E+02 -0.29356248998E+02  0.34861446847E+02  0.10566000000E+00 0.  1.
         14    1    4    4    0    0  0.69705827916E+01  0.69807802144E+01 -0.17063834294E+02  0.19710270360E+02  0.00000000000E+00 0. -1.
<mgrwt>
<rscale>  0 0.79405164E+02</rscale>
<asrwt>0</asrwt>
<pdfrwt beam="1">  1        1 0.36871997E-01 0.79405164E+02</pdfrwt>
<pdfrwt beam="2">  1       -2 0.10118453E-02 0.79405164E+02</pdfrwt>
<totfact> 0.17616941E+05</totfact>
</mgrwt>
</event>
<event>
 8    1  0.1319619E-024  0.7933083E+02  0.7818608E-02  0.1330961E+00
         -2   -1    0    0    0  501 -0.00000000000E+00  0.00000000000E+00  0.11856299399E+02  0.11856299673E+02  0.25500000000E-02 0.  1.
          1   -1    0    0  501    0  0.00000000000E+00 -0.00000000000E+00 -0.13270119504E+03  0.13270119514E+03  0.50400000000E-02 0. -1.
        -24    2    1    2    0    0  0.35527136788E-14  0.00000000000E+00 -0.12084489564E+03  0.14455749481E+03  0.79330829461E+02 0.  0.
         66    2    3    3    0    0  0.29838105853E+02 -0.10312879092E+02 -0.16778123345E+02  0.35807449769E+02  0.19999999783E+01 0.  0.
         13    1    3    3    0    0 -0.29838105853E+02  0.10312879092E+02 -0.10406677230E+03  0.10875004504E+03  0.10566000000E+00 0. -1.
         13    1    4    4    0    0  0.17296005550E+02 -0.55771361677E+01 -0.10516322753E+02  0.20996677454E+02  0.10566000000E+00 0.  1.
        -13    1    4    4    0    0  0.10595715832E+01 -0.24806349761E+00 -0.53652119608E+00  0.12178860654E+01  0.10566000000E+00 0. -1.
        -14    1    4    4    0    0  0.11482528720E+02 -0.44876794264E+01 -0.57252793962E+01  0.13592886250E+02  0.00000000000E+00 0.  1.
<mgrwt>
<rscale>  0 0.79330829E+02</rscale>
<asrwt>0</asrwt>
<pdfrwt beam="1">  1        1 0.20415568E-01 0.79330829E+02</pdfrwt>
<pdfrwt beam="2">  1       -2 0.18240462E-02 0.79330829E+02</pdfrwt>
<totfact> 0.15791293E+05</totfact>
</mgrwt>
</event>
<event>
 8    1  0.1319619E-024  0.8086168E+02  0.7818608E-02  0.1326624E+00
         -2   -1    0    0    0  501 -0.00000000000E+00  0.00000000000E+00  0.23077180107E+02  0.23077180248E+02  0.25500000000E-02 0.  1.
          1   -1    0    0  501    0  0.00000000000E+00 -0.00000000000E+00 -0.70834158500E+02  0.70834158680E+02  0.50400000000E-02 0. -1.
        -24    2    1    2    0    0  0.00000000000E+00  0.00000000000E+00 -0.47756978393E+02  0.93911338927E+02  0.80861675680E+02 0.  0.
         66    2    3    3    0    0  0.39520132702E+02  0.83979917856E+01 -0.24508174694E+02  0.47297122295E+02  0.19999989286E+01 0.  0.
         13    1    3    3    0    0 -0.39520132702E+02 -0.83979917856E+01 -0.23248803699E+02  0.46614216633E+02  0.10566000000E+00 0. -1.
         13    1    4    4    0    0  0.20321216566E+02  0.44092931472E+01 -0.13561007495E+02  0.24825506986E+02  0.10566000000E+00 0. -1.
        -13    1    4    4    0    0  0.14618420005E+02  0.33031166498E+01 -0.85962844408E+01  0.17277617118E+02  0.10566000000E+00 0.  1.
        -14    1    4    4    0    0  0.45804961304E+01  0.68558198870E+00 -0.23508827587E+01  0.51939981911E+01  0.00000000000E+00 0.  1.
<mgrwt>
<rscale>  0 0.80861676E+02</rscale>
<asrwt>0</asrwt>
<pdfrwt beam="1">  1        1 0.10897563E-01 0.80861676E+02</pdfrwt>
<pdfrwt beam="2">  1       -2 0.35503355E-02 0.80861676E+02</pdfrwt>
<totfact> 0.13494827E+05</totfact>
</mgrwt>
</event>
<event>
 8    1  0.1319619E-024  0.7977153E+02  0.7818608E-02  0.1329701E+00
         -2   -1    0    0    0  501 -0.00000000000E+00  0.00000000000E+00  0.93102718265E+01  0.93102721758E+01  0.25500000000E-02 0.  1.
          1   -1    0    0  501    0  0.00000000000E+00 -0.00000000000E+00 -0.17087301733E+03  0.17087301741E+03  0.50400000000E-02 0. -1.
        -24    2    1    2    0    0  0.00000000000E+00  0.00000000000E+00 -0.16156274550E+03  0.18018328958E+03  0.79771530694E+02 0.  0.
         66    2    3    3    0    0  0.20103801262E+02  0.32499115382E+02 -0.55226005602E+02  0.67188295254E+02  0.19999996544E+01 0.  0.
         13    1    3    3    0    0 -0.20103801262E+02 -0.32499115382E+02 -0.10633673990E+03  0.11299499433E+03  0.10566000000E+00 0. -1.
         13    1    4    4    0    0  0.65448307186E+01  0.89831656783E+01 -0.16140259847E+02  0.19597224974E+02  0.10566000000E+00 0. -1.
        -13    1    4    4    0    0  0.76689834721E+01  0.13769424958E+02 -0.22995630140E+02  0.27878675376E+02  0.10566000000E+00 0.  1.
         14    1    4    4    0    0  0.58899870717E+01  0.97465247459E+01 -0.16090115615E+02  0.19712394904E+02  0.00000000000E+00 0. -1.
<mgrwt>
<rscale>  0 0.79771531E+02</rscale>
<asrwt>0</asrwt>
<pdfrwt beam="1">  1        1 0.26288154E-01 0.79771531E+02</pdfrwt>
<pdfrwt beam="2">  1       -2 0.14323497E-02 0.79771531E+02</pdfrwt>
<totfact> 0.16301194E+05</totfact>
</mgrwt>
</event>
<event>
 8    1  0.1319619E-024  0.8225586E+02  0.7818608E-02  0.1322769E+00
         -2   -1    0    0    0  501 -0.00000000000E+00  0.00000000000E+00  0.89481294861E+01  0.89481298494E+01  0.25500000000E-02 0.  1.
          1   -1    0    0  501    0  0.00000000000E+00 -0.00000000000E+00 -0.18903464102E+03  0.18903464109E+03  0.50400000000E-02 0. -1.
        -24    2    1    2    0    0  0.00000000000E+00 -0.71054273576E-14 -0.18008651154E+03  0.19798277094E+03  0.82255856639E+02 0.  0.
         66    2    3    3    0    0 -0.16582073920E+02 -0.33614181033E+02 -0.49489827455E+02  0.62113777423E+02  0.19999955559E+01 0.  0.
         13    1    3    3    0    0  0.16582073920E+02  0.33614181033E+02 -0.13059668408E+03  0.13586899352E+03  0.10566000000E+00 0. -1.
         13    1    4    4    0    0 -0.44362539615E+01 -0.98666233638E+01 -0.15021958300E+02  0.18512185203E+02  0.10566000000E+00 0. -1.
        -13    1    4    4    0    0 -0.47007242540E+01 -0.10520827708E+02 -0.14651914936E+02  0.18640665210E+02  0.10566000000E+00 0.  1.
         14    1    4    4    0    0 -0.74450957042E+01 -0.13226729961E+02 -0.19815954220E+02  0.24960927009E+02  0.00000000000E+00 0. -1.
<mgrwt>
<rscale>  0 0.82255857E+02</rscale>
<asrwt>0</asrwt>
<pdfrwt beam="1">  1        1 0.29082250E-01 0.82255857E+02</pdfrwt>
<pdfrwt beam="2">  1       -2 0.13766355E-02 0.82255857E+02</pdfrwt>
<totfact> 0.15316095E+05</totfact>
</mgrwt>
</event>
<event>
 8    1  0.1319619E-024  0.7979644E+02  0.7818608E-02  0.1329630E+00
         -2   -1    0    0    0  501 -0.00000000000E+00  0.00000000000E+00  0.10276258017E+03  0.10276258021E+03  0.25500000000E-02 0.  1.
          1   -1    0    0  501    0  0.00000000000E+00 -0.00000000000E+00 -0.15490734174E+02  0.15490734994E+02  0.50400000000E-02 0. -1.
        -24    2    1    2    0    0 -0.17763568394E-14  0.35527136788E-14  0.87271846000E+02  0.11825331520E+03  0.79796437586E+02 0.  0.
         66    2    3    3    0    0 -0.13043548826E+02  0.24364664177E+02  0.86256823936E+02  0.90598072293E+02  0.20000003104E+01 0.  0.
         13    1    3    3    0    0  0.13043548826E+02 -0.24364664177E+02  0.10150220642E+01  0.27655242907E+02  0.10566000000E+00 0. -1.
         13    1    4    4    0    0 -0.45081193984E+01  0.96888015935E+01  0.31606384581E+02  0.33364213270E+02  0.10566000000E+00 0. -1.
        -13    1    4    4    0    0 -0.72422641214E+01  0.13024271581E+02  0.47713600206E+02  0.49986806745E+02  0.10566000000E+00 0.  1.
         14    1    4    4    0    0 -0.12931653058E+01  0.16515910017E+01  0.69368391487E+01  0.72470522780E+01  0.00000000000E+00 0. -1.
<mgrwt>
<rscale>  0 0.79796438E+02</rscale>
<asrwt>0</asrwt>
<pdfrwt beam="1">  1        1 0.23831899E-02 0.79796438E+02</pdfrwt>
<pdfrwt beam="2">  1       -2 0.15809628E-01 0.79796438E+02</pdfrwt>
<totfact> 0.10609569E+05</totfact>
</mgrwt>
</event>
<event>
 8    1  0.1319619E-024  0.8039043E+02  0.7818608E-02  0.1327947E+00
          1   -1    0    0  501    0  0.00000000000E+00  0.00000000000E+00  0.20357560471E+02  0.20357561095E+02  0.50400000000E-02 0. -1.
         -2   -1    0    0    0  501 -0.00000000000E+00 -0.00000000000E+00 -0.79363893339E+02  0.79363893380E+02  0.25500000000E-02 0.  1.
        -24    2    1    2    0    0  0.00000000000E+00  0.00000000000E+00 -0.59006332868E+02  0.99721454475E+02  0.80390429555E+02 0.  0.
         66    2    3    3    0    0  0.26529323711E+02  0.25186660430E+02 -0.50109998090E+02  0.62074026718E+02  0.20000010523E+01 0.  0.
         13    1    3    3    0    0 -0.26529323711E+02 -0.25186660430E+02 -0.88963347776E+01  0.37647427757E+02  0.10566000000E+00 0. -1.
         13    1    4    4    0    0  0.13888347474E+02  0.14236764534E+02 -0.26266690589E+02  0.32947258740E+02  0.10566000000E+00 0. -1.
        -13    1    4    4    0    0  0.16255556591E+01  0.13053119083E+01 -0.28834064810E+01  0.35597004578E+01  0.10566000000E+00 0.  1.
         14    1    4    4    0    0  0.11015420577E+02  0.96445839886E+01 -0.20959901020E+02  0.25567067520E+02  0.00000000000E+00 0. -1.
<mgrwt>
<rscale>  0 0.80390430E+02</rscale>
<asrwt>0</asrwt>
<pdfrwt beam="1">  1        1 0.31319325E-02 0.80390430E+02</pdfrwt>
<pdfrwt beam="2">  1       -2 0.12209830E-01 0.80390430E+02</pdfrwt>
<totfact> 0.11057237E+05</totfact>
</mgrwt>
</event>
<event>
 8    1  0.1319619E-024  0.8129901E+02  0.7818608E-02  0.1325405E+00
         -2   -1    0    0    0  501 -0.00000000000E+00  0.00000000000E+00  0.91125067451E+01  0.91125071019E+01  0.25500000000E-02 0.  1.
          1   -1    0    0  501    0  0.00000000000E+00 -0.00000000000E+00 -0.18133123823E+03  0.18133123830E+03  0.50400000000E-02 0. -1.
        -24    2    1    2    0    0 -0.35527136788E-14 -0.35527136788E-14 -0.17221873148E+03  0.19044374540E+03  0.81299007917E+02 0.  0.
         66    2    3    3    0    0  0.21726845347E+02 -0.27767919913E+02 -0.38887644688E+02  0.52529630622E+02  0.19999997321E+01 0.  0.
         13    1    3    3    0    0 -0.21726845347E+02  0.27767919913E+02 -0.13333108679E+03  0.13791411478E+03  0.10566000000E+00 0. -1.
         13    1    4    4    0    0  0.72584963424E+01 -0.80889032701E+01 -0.11803530823E+02  0.16045268125E+02  0.10566000000E+00 0.  1.
        -13    1    4    4    0    0  0.23600141917E+01 -0.34170639044E+01 -0.51162441689E+01  0.65903801972E+01  0.10566000000E+00 0.  1.
        -14    1    4    4    0    0  0.12108334812E+02 -0.16261952738E+02 -0.21967869695E+02  0.29893982300E+02  0.00000000000E+00 0.  1.
<mgrwt>
<rscale>  0 0.81299008E+02</rscale>
<asrwt>0</asrwt>
<pdfrwt beam="1">  1        1 0.27897111E-01 0.81299008E+02</pdfrwt>
<pdfrwt beam="2">  1       -2 0.14019243E-02 0.81299008E+02</pdfrwt>
<totfact> 0.15674566E+05</totfact>
</mgrwt>
</event>
<event>
 8    1  0.1319619E-024  0.7905237E+02  0.7818608E-02  0.1331762E+00
         -2   -1    0    0    0  501 -0.00000000000E+00  0.00000000000E+00  0.32557440670E+03  0.32557440671E+03  0.25500000000E-02 0.  1.
          1   -1    0    0  501    0  0.00000000000E+00 -0.00000000000E+00 -0.47986537178E+01  0.47986563645E+01  0.50400000000E-02 0. -1.
        -24    2    1    2    0    0 -0.88817841970E-15  0.00000000000E+00  0.32077575298E+03  0.33037306307E+03  0.79052369375E+02 0.  0.
         66    2    3    3    0    0 -0.62037066965E+01 -0.18156841740E+02  0.30478699942E+03  0.30539690878E+03  0.19999997298E+01 0.  0.
         13    1    3    3    0    0  0.62037066965E+01  0.18156841740E+02  0.15988753562E+02  0.24976154293E+02  0.10566000000E+00 0. -1.
         13    1    4    4    0    0 -0.28533993132E+01 -0.90860954464E+01  0.16200362351E+03  0.16228334545E+03  0.10566000000E+00 0. -1.
        -13    1    4    4    0    0 -0.93681788240E+00 -0.38482337824E+01  0.57392947996E+02  0.57529541757E+02  0.10566000000E+00 0.  1.
         14    1    4    4    0    0 -0.24134895009E+01 -0.52225125115E+01  0.85390427918E+02  0.85584021572E+02  0.00000000000E+00 0. -1.
<mgrwt>
<rscale>  0 0.79052369E+02</rscale>
<asrwt>0</asrwt>
<pdfrwt beam="1">  1        1 0.73825448E-03 0.79052369E+02</pdfrwt>
<pdfrwt beam="2">  1       -2 0.50088380E-01 0.79052369E+02</pdfrwt>
<totfact> 0.69221747E+04</totfact>
</mgrwt>
</event>
<event>
 8    1  0.1319619E-024  0.8033191E+02  0.7818608E-02  0.1328112E+00
          1   -1    0    0  501    0  0.00000000000E+00  0.00000000000E+00  0.69834711407E+01  0.69834729594E+01  0.50400000000E-02 0. -1.
         -2   -1    0    0    0  501 -0.00000000000E+00 -0.00000000000E+00 -0.23101744427E+03  0.23101744428E+03  0.25500000000E-02 0.  1.
        -24    2    1    2    0    0  0.00000000000E+00  0.00000000000E+00 -0.22403397313E+03  0.23800091724E+03  0.80331908309E+02 0.  0.
         66    2    3    3    0    0 -0.29753881191E+02 -0.90962592628E+01 -0.18722861699E+03  0.18980671860E+03  0.20000065058E+01 0.  0.
         13    1    3    3    0    0  0.29753881191E+02  0.90962592628E+01 -0.36805356133E+02  0.48194198641E+02  0.10566000000E+00 0. -1.
         13    1    4    4    0    0 -0.82435112558E+01 -0.18010522951E+01 -0.50729932525E+02  0.51427001519E+02  0.10566000000E+00 0. -1.
        -13    1    4    4    0    0 -0.74079568223E+01 -0.28455841920E+01 -0.50072022129E+02  0.50697078198E+02  0.10566000000E+00 0.  1.
        -14    1    4    4    0    0 -0.14102413113E+02 -0.44496227756E+01 -0.86426662340E+02  0.87682638884E+02  0.00000000000E+00 0.  1.
<mgrwt>
<rscale>  0 0.80331908E+02</rscale>
<asrwt>0</asrwt>
<pdfrwt beam="1">  1        1 0.10743805E-02 0.80331908E+02</pdfrwt>
<pdfrwt beam="2">  1       -2 0.35541139E-01 0.80331908E+02</pdfrwt>
<totfact> 0.79138951E+04</totfact>
</mgrwt>
</event>
<event>
 8    1  0.1319619E-024  0.8343241E+02  0.7818608E-02  0.1319584E+00
          1   -1    0    0  501    0  0.00000000000E+00  0.00000000000E+00  0.40419513643E+02  0.40419513957E+02  0.50400000000E-02 0. -1.
         -2   -1    0    0    0  501 -0.00000000000E+00 -0.00000000000E+00 -0.43054494143E+02  0.43054494219E+02  0.25500000000E-02 0.  1.
        -24    2    1    2    0    0  0.00000000000E+00  0.00000000000E+00 -0.26349805004E+01  0.83474008176E+02  0.83432409283E+02 0.  0.
         66    2    3    3    0    0 -0.34548869223E+02  0.96344292462E+01 -0.22584199145E+02  0.42432211431E+02  0.19999811162E+01 0.  0.
         13    1    3    3    0    0  0.34548869223E+02 -0.96344292462E+01  0.19949218645E+02  0.41041796745E+02  0.10566000000E+00 0. -1.
         13    1    4    4    0    0 -0.18101446265E+02  0.53399862594E+01 -0.11488187667E+02  0.22094511311E+02  0.10566000000E+00 0. -1.
        -13    1    4    4    0    0 -0.12427554649E+02  0.31674050370E+01 -0.77278769885E+01  0.14973570583E+02  0.10566000000E+00 0.  1.
        -14    1    4    4    0    0 -0.40198683081E+01  0.11270379499E+01 -0.33681344893E+01  0.53641295373E+01  0.00000000000E+00 0.  1.
<mgrwt>
<rscale>  0 0.83432409E+02</rscale>
<asrwt>0</asrwt>
<pdfrwt beam="1">  1        1 0.62183867E-02 0.83432409E+02</pdfrwt>
<pdfrwt beam="2">  1       -2 0.66237684E-02 0.83432409E+02</pdfrwt>
<totfact> 0.11294652E+05</totfact>
</mgrwt>
</event>
<event>
 8    1  0.1319619E-024  0.7931742E+02  0.7818608E-02  0.1331000E+00
          1   -1    0    0  501    0  0.00000000000E+00  0.00000000000E+00  0.98140608000E+02  0.98140608130E+02  0.50400000000E-02 0. -1.
         -2   -1    0    0    0  501 -0.00000000000E+00 -0.00000000000E+00 -0.16026119073E+02  0.16026119276E+02  0.25500000000E-02 0.  1.
        -24    2    1    2    0    0  0.17763568394E-14  0.00000000000E+00  0.82114488927E+02  0.11416672741E+03  0.79317415205E+02 0.  0.
         66    2    3    3    0    0  0.15731460365E+02  0.29669704137E+02  0.10786845521E+02  0.35328830004E+02  0.20000010818E+01 0.  0.
         13    1    3    3    0    0 -0.15731460365E+02 -0.29669704137E+02  0.71327643407E+02  0.78837897402E+02  0.10566000000E+00 0. -1.
         13    1    4    4    0    0  0.48889437430E+01  0.80228288016E+01  0.31967847892E+01  0.99246234148E+01  0.10566000000E+00 0. -1.
        -13    1    4    4    0    0  0.96415785935E+01  0.18442680354E+02  0.62509992391E+01  0.21729672154E+02  0.10566000000E+00 0.  1.
         14    1    4    4    0    0  0.12009380283E+01  0.32041949821E+01  0.13390614923E+01  0.36745344347E+01  0.00000000000E+00 0. -1.
<mgrwt>
<rscale>  0 0.79317415E+02</rscale>
<asrwt>0</asrwt>
<pdfrwt beam="1">  1        1 0.15098555E-01 0.79317415E+02</pdfrwt>
<pdfrwt beam="2">  1       -2 0.24655568E-02 0.79317415E+02</pdfrwt>
<totfact> 0.14996193E+05</totfact>
</mgrwt>
</event>
<event>
 8    1  0.1319619E-024  0.7399217E+02  0.7818608E-02  0.1347021E+00
         -2   -1    0    0    0  501 -0.00000000000E+00  0.00000000000E+00  0.80297782018E+01  0.80297786067E+01  0.25500000000E-02 0.  1.
          1   -1    0    0  501    0  0.00000000000E+00 -0.00000000000E+00 -0.17045430427E+03  0.17045430435E+03  0.50400000000E-02 0. -1.
        -24    2    1    2    0    0  0.35527136788E-14  0.00000000000E+00 -0.16242452607E+03  0.17848408296E+03  0.73992169847E+02 0.  0.
         66    2    3    3    0    0 -0.23781633050E+02 -0.25731892302E+02 -0.52831057579E+02  0.63425681035E+02  0.20000044725E+01 0.  0.
         13    1    3    3    0    0  0.23781633050E+02  0.25731892302E+02 -0.10959346849E+03  0.11505840192E+03  0.10566000000E+00 0. -1.
         13    1    4    4    0    0 -0.30907852142E+01 -0.31166147454E+01 -0.55920363233E+01  0.71097310068E+01  0.10566000000E+00 0. -1.
        -13    1    4    4    0    0 -0.10540852548E+02 -0.11329802751E+02 -0.24359713499E+02  0.28859674437E+02  0.10566000000E+00 0.  1.
         14    1    4    4    0    0 -0.10149995287E+02 -0.11285474806E+02 -0.22879307757E+02  0.27456275592E+02  0.00000000000E+00 0. -1.
<mgrwt>
<rscale>  0 0.73992170E+02</rscale>
<asrwt>0</asrwt>
<pdfrwt beam="1">  1        1 0.26223737E-01 0.73992170E+02</pdfrwt>
<pdfrwt beam="2">  1       -2 0.12353507E-02 0.73992170E+02</pdfrwt>
<totfact> 0.19887906E+05</totfact>
</mgrwt>
</event>
<event>
 8    1  0.1319619E-024  0.7993347E+02  0.7818608E-02  0.1329240E+00
          1   -1    0    0  501    0  0.00000000000E+00  0.00000000000E+00  0.39239579309E+02  0.39239579633E+02  0.50400000000E-02 0. -1.
         -2   -1    0    0    0  501 -0.00000000000E+00 -0.00000000000E+00 -0.40707368686E+02  0.40707368766E+02  0.25500000000E-02 0.  1.
        -24    2    1    2    0    0 -0.71054273576E-14  0.00000000000E+00 -0.14677893768E+01  0.79946948399E+02  0.79933473293E+02 0.  0.
         66    2    3    3    0    0 -0.34526131949E+02  0.27041311083E+01 -0.20636676383E+02  0.40363826926E+02  0.19999998810E+01 0.  0.
         13    1    3    3    0    0  0.34526131949E+02 -0.27041311083E+01  0.19168887006E+02  0.39583121473E+02  0.10566000000E+00 0. -1.
         13    1    4    4    0    0 -0.27636453971E+01  0.20114899843E+00 -0.20263232048E+01  0.34344354072E+01  0.10566000000E+00 0. -1.
        -13    1    4    4    0    0 -0.28381662073E+01 -0.75530124379E-01 -0.13219679308E+01  0.31336329500E+01  0.10566000000E+00 0.  1.
        -14    1    4    4    0    0 -0.28924320345E+02  0.25785122342E+01 -0.17288385248E+02  0.33795758569E+02  0.00000000000E+00 0.  1.
<mgrwt>
<rscale>  0 0.79933473E+02</rscale>
<asrwt>0</asrwt>
<pdfrwt beam="1">  1        1 0.60368584E-02 0.79933473E+02</pdfrwt>
<pdfrwt beam="2">  1       -2 0.62626721E-02 0.79933473E+02</pdfrwt>
<totfact> 0.12687669E+05</totfact>
</mgrwt>
</event>
<event>
 8    1  0.1319619E-024  0.7952700E+02  0.7818608E-02  0.1330399E+00
          1   -1    0    0  501    0  0.00000000000E+00  0.00000000000E+00  0.61139089075E+01  0.61139109849E+01  0.50400000000E-02 0. -1.
         -2   -1    0    0    0  501 -0.00000000000E+00 -0.00000000000E+00 -0.25861291424E+03  0.25861291425E+03  0.25500000000E-02 0.  1.
        -24    2    1    2    0    0  0.00000000000E+00  0.17763568394E-14 -0.25249900533E+03  0.26472682524E+03  0.79527003630E+02 0.  0.
         66    2    3    3    0    0  0.35025482236E+02 -0.10248759444E+02 -0.17867758132E+03  0.18237735479E+03  0.19999992891E+01 0.  0.
         13    1    3    3    0    0 -0.35025482236E+02  0.10248759444E+02 -0.73821424011E+02  0.82349470447E+02  0.10566000000E+00 0. -1.
         13    1    4    4    0    0  0.46036982729E+01 -0.13205034406E+01 -0.20569570325E+02  0.21120041537E+02  0.10566000000E+00 0. -1.
        -13    1    4    4    0    0  0.10521539161E+02 -0.30554863960E+01 -0.56433297807E+02  0.57487103326E+02  0.10566000000E+00 0.  1.
         14    1    4    4    0    0  0.19900244802E+02 -0.58727696079E+01 -0.10167471319E+03  0.10377020993E+03  0.00000000000E+00 0. -1.
<mgrwt>
<rscale>  0 0.79527004E+02</rscale>
<asrwt>0</asrwt>
<pdfrwt beam="1">  1        1 0.94060173E-03 0.79527004E+02</pdfrwt>
<pdfrwt beam="2">  1       -2 0.39786594E-01 0.79527004E+02</pdfrwt>
<totfact> 0.77035037E+04</totfact>
</mgrwt>
</event>
<event>
 8    1  0.1319619E-024  0.7502713E+02  0.7818608E-02  0.1343787E+00
         -2   -1    0    0    0  501 -0.00000000000E+00  0.00000000000E+00  0.94996874774E+01  0.94996878196E+01  0.25500000000E-02 0.  1.
          1   -1    0    0  501    0  0.00000000000E+00 -0.00000000000E+00 -0.14813828111E+03  0.14813828120E+03  0.50400000000E-02 0. -1.
        -24    2    1    2    0    0  0.00000000000E+00  0.00000000000E+00 -0.13863859364E+03  0.15763796902E+03  0.75027125968E+02 0.  0.
         66    2    3    3    0    0 -0.13036305485E+02 -0.24365845643E+02 -0.16147491473E+02  0.32068382862E+02  0.20000009710E+01 0.  0.
         13    1    3    3    0    0  0.13036305485E+02  0.24365845643E+02 -0.12249110216E+03  0.12556958616E+03  0.10566000000E+00 0. -1.
         13    1    4    4    0    0 -0.32381229416E+00 -0.10477811920E+01 -0.85044153173E+00  0.13918026666E+01  0.10566000000E+00 0. -1.
        -13    1    4    4    0    0 -0.11573120949E+02 -0.20866598554E+02 -0.14137913732E+02  0.27735245311E+02  0.10566000000E+00 0.  1.
         14    1    4    4    0    0 -0.11393722413E+01 -0.24514658974E+01 -0.11591362095E+01  0.29413348844E+01  0.00000000000E+00 0. -1.
<mgrwt>
<rscale>  0 0.75027126E+02</rscale>
<asrwt>0</asrwt>
<pdfrwt beam="1">  1        1 0.22790503E-01 0.75027126E+02</pdfrwt>
<pdfrwt beam="2">  1       -2 0.14614905E-02 0.75027126E+02</pdfrwt>
<totfact> 0.18687218E+05</totfact>
</mgrwt>
</event>
<event>
 8    1  0.1319619E-024  0.7507656E+02  0.7818608E-02  0.1343634E+00
         -2   -1    0    0    0  501 -0.00000000000E+00  0.00000000000E+00  0.47978983651E+03  0.47978983652E+03  0.25500000000E-02 0.  1.
          1   -1    0    0  501    0  0.00000000000E+00 -0.00000000000E+00 -0.29369556404E+01  0.29369599649E+01  0.50400000000E-02 0. -1.
        -24    2    1    2    0    0  0.00000000000E+00  0.35527136788E-14  0.47685288087E+03  0.48272679648E+03  0.75076561242E+02 0.  0.
         66    2    3    3    0    0 -0.10212526728E+02  0.30375522225E+02  0.36395958946E+03  0.36537316654E+03  0.20000025585E+01 0.  0.
         13    1    3    3    0    0  0.10212526728E+02 -0.30375522225E+02  0.11289329140E+03  0.11735362994E+03  0.10566000000E+00 0. -1.
         13    1    4    4    0    0 -0.36021331998E+01  0.95106043930E+01  0.12403085792E+03  0.12444714476E+03  0.10566000000E+00 0. -1.
        -13    1    4    4    0    0 -0.44740657312E+01  0.14542967012E+02  0.17001481565E+03  0.17069435801E+03  0.10566000000E+00 0.  1.
        -14    1    4    4    0    0 -0.21363277974E+01  0.63219508199E+01  0.69913915900E+02  0.70231663765E+02  0.00000000000E+00 0.  1.
<mgrwt>
<rscale>  0 0.75076561E+02</rscale>
<asrwt>0</asrwt>
<pdfrwt beam="1">  1        1 0.45183968E-03 0.75076561E+02</pdfrwt>
<pdfrwt beam="2">  1       -2 0.73813819E-01 0.75076561E+02</pdfrwt>
<totfact> 0.61230836E+04</totfact>
</mgrwt>
</event>
<event>
 8    1  0.1319619E-024  0.8239078E+02  0.7818608E-02  0.1322400E+00
          1   -1    0    0  501    0  0.00000000000E+00  0.00000000000E+00  0.59137835025E+03  0.59137835027E+03  0.50400000000E-02 0. -1.
         -2   -1    0    0    0  501 -0.00000000000E+00 -0.00000000000E+00 -0.28696685825E+01  0.28696697155E+01  0.25500000000E-02 0.  1.
        -24    2    1    2    0    0  0.00000000000E+00 -0.35527136788E-14  0.58850868167E+03  0.59424801999E+03  0.82390781405E+02 0.  0.
         66    2    3    3    0    0 -0.20588708925E+02  0.29893179774E+02  0.43457334516E+03  0.43609114811E+03  0.20000010801E+01 0.  0.
         13    1    3    3    0    0  0.20588708925E+02 -0.29893179774E+02  0.15393533651E+03  0.15815687188E+03  0.10566000000E+00 0. -1.
         13    1    4    4    0    0 -0.60631618915E+01  0.90945211382E+01  0.12314914635E+03  0.12363331128E+03  0.10566000000E+00 0. -1.
        -13    1    4    4    0    0 -0.12876622901E+02  0.18367158971E+02  0.27955815168E+03  0.28045664777E+03  0.10566000000E+00 0.  1.
        -14    1    4    4    0    0 -0.16489241320E+01  0.24314996650E+01  0.31866047130E+02  0.32001189058E+02  0.00000000000E+00 0.  1.
<mgrwt>
<rscale>  0 0.82390781E+02</rscale>
<asrwt>0</asrwt>
<pdfrwt beam="1">  1        1 0.90981300E-01 0.82390781E+02</pdfrwt>
<pdfrwt beam="2">  1       -2 0.44148749E-03 0.82390781E+02</pdfrwt>
<totfact> 0.18438441E+05</totfact>
</mgrwt>
</event>
<event>
 8    1  0.1319619E-024  0.7991122E+02  0.7818608E-02  0.1329304E+00
         -2   -1    0    0    0  501 -0.00000000000E+00  0.00000000000E+00  0.59937702984E+01  0.59937708409E+01  0.25500000000E-02 0.  1.
          1   -1    0    0  501    0  0.00000000000E+00 -0.00000000000E+00 -0.26635164021E+03  0.26635164025E+03  0.50400000000E-02 0. -1.
        -24    2    1    2    0    0  0.71054273576E-14 -0.88817841970E-15 -0.26035786991E+03  0.27234541109E+03  0.79911216493E+02 0.  0.
         66    2    3    3    0    0  0.36197129346E+02 -0.57796839041E+01 -0.76286366652E+02  0.84659592787E+02  0.19999987538E+01 0.  0.
         13    1    3    3    0    0 -0.36197129346E+02  0.57796839041E+01 -0.18407150326E+03  0.18768581831E+03  0.10566000000E+00 0. -1.
         13    1    4    4    0    0  0.39498113611E+01 -0.12080978120E+01 -0.90757417009E+01  0.99719988753E+01  0.10566000000E+00 0. -1.
        -13    1    4    4    0    0  0.25053606830E+02 -0.36946823533E+01 -0.52468189221E+02  0.58260243194E+02  0.10566000000E+00 0.  1.
        -14    1    4    4    0    0  0.71937111543E+01 -0.87690373880E+00 -0.14742435730E+02  0.16427350718E+02  0.00000000000E+00 0.  1.
<mgrwt>
<rscale>  0 0.79911216E+02</rscale>
<asrwt>0</asrwt>
<pdfrwt beam="1">  1        1 0.40977166E-01 0.79911216E+02</pdfrwt>
<pdfrwt beam="2">  1       -2 0.92211876E-03 0.79911216E+02</pdfrwt>
<totfact> 0.17683742E+05</totfact>
</mgrwt>
</event>
<event>
 8    1  0.1319619E-024  0.7990029E+02  0.7818608E-02  0.1329335E+00
         -2   -1    0    0    0  501 -0.00000000000E+00  0.00000000000E+00  0.16375182838E+02  0.16375183037E+02  0.25500000000E-02 0.  1.
          1   -1    0    0  501    0  0.00000000000E+00 -0.00000000000E+00 -0.97465431810E+02  0.97465431941E+02  0.50400000000E-02 0. -1.
        -24    2    1    2    0    0  0.00000000000E+00  0.00000000000E+00 -0.81090248972E+02  0.11384061498E+03  0.79900294993E+02 0.  0.
         66    2    3    3    0    0 -0.16761373705E+02 -0.17019753926E+02  0.50091110216E+01  0.24488913104E+02  0.19999999080E+01 0.  0.
         13    1    3    3    0    0  0.16761373705E+02  0.17019753926E+02 -0.86099359994E+02  0.89351701873E+02  0.10566000000E+00 0. -1.
         13    1    4    4    0    0 -0.27625292040E+01 -0.26629143712E+01  0.12782569368E+01  0.40457119748E+01  0.10566000000E+00 0. -1.
        -13    1    4    4    0    0 -0.12530314401E+02 -0.13390324004E+02  0.33079119221E+01  0.18634993997E+02  0.10566000000E+00 0.  1.
         14    1    4    4    0    0 -0.14685300994E+01 -0.96651555077E+00  0.42294216267E+00  0.18082071330E+01  0.00000000000E+00 0. -1.
<mgrwt>
<rscale>  0 0.79900295E+02</rscale>
<asrwt>0</asrwt>
<pdfrwt beam="1">  1        1 0.14994682E-01 0.79900295E+02</pdfrwt>
<pdfrwt beam="2">  1       -2 0.25192590E-02 0.79900295E+02</pdfrwt>
<totfact> 0.14685409E+05</totfact>
</mgrwt>
</event>
<event>
 8    1  0.1319619E-024  0.7673295E+02  0.7818608E-02  0.1338587E+00
         -2   -1    0    0    0  501 -0.00000000000E+00  0.00000000000E+00  0.95089490582E+01  0.95089494002E+01  0.25500000000E-02 0.  1.
          1   -1    0    0  501    0  0.00000000000E+00 -0.00000000000E+00 -0.15480011818E+03  0.15480011826E+03  0.50400000000E-02 0. -1.
        -24    2    1    2    0    0 -0.71054273576E-14  0.88817841970E-15 -0.14529116912E+03  0.16430906766E+03  0.76732951795E+02 0.  0.
         66    2    3    3    0    0  0.37852713573E+02 -0.51670611404E+01 -0.65771001261E+02  0.76087785046E+02  0.19999951751E+01 0.  0.
         13    1    3    3    0    0 -0.37852713573E+02  0.51670611404E+01 -0.79520167858E+02  0.88221282613E+02  0.10566000000E+00 0. -1.
         13    1    4    4    0    0  0.27540676520E+02 -0.40036515866E+01 -0.49137074429E+02  0.56471066367E+02  0.10566000000E+00 0. -1.
        -13    1    4    4    0    0  0.92596497475E+01 -0.87483386082E+00 -0.15080204466E+02  0.17718074909E+02  0.10566000000E+00 0.  1.
         14    1    4    4    0    0  0.10523873061E+01 -0.28857569293E+00 -0.15537223662E+01  0.18986437696E+01  0.00000000000E+00 0. -1.
<mgrwt>
<rscale>  0 0.76732952E+02</rscale>
<asrwt>0</asrwt>
<pdfrwt beam="1">  1        1 0.23815401E-01 0.76732952E+02</pdfrwt>
<pdfrwt beam="2">  1       -2 0.14629154E-02 0.76732952E+02</pdfrwt>
<totfact> 0.17746129E+05</totfact>
</mgrwt>
</event>
<event>
 8    1  0.1319619E-024  0.7981586E+02  0.7818608E-02  0.1329575E+00
          1   -1    0    0  501    0  0.00000000000E+00  0.00000000000E+00  0.16609534331E+01  0.16609610797E+01  0.50400000000E-02 0. -1.
         -2   -1    0    0    0  501 -0.00000000000E+00 -0.00000000000E+00 -0.95887048849E+03  0.95887048849E+03  0.25500000000E-02 0.  1.
        -24    2    1    2    0    0 -0.17763568394E-14  0.35527136788E-14 -0.95720953505E+03  0.96053144957E+03  0.79815860674E+02 0.  0.
         66    2    3    3    0    0  0.10990246082E+02  0.17573418109E+02 -0.88896086721E+03  0.88920471994E+03  0.20000007126E+01 0.  0.
         13    1    3    3    0    0 -0.10990246082E+02 -0.17573418109E+02 -0.68248667842E+02  0.71326729626E+02  0.10566000000E+00 0. -1.
         13    1    4    4    0    0  0.69089454173E+01  0.11851695262E+02 -0.55750167899E+03  0.55767044879E+03  0.10566000000E+00 0. -1.
        -13    1    4    4    0    0  0.40947971708E+01  0.57042914959E+01 -0.32877960649E+03  0.32885459874E+03  0.10566000000E+00 0.  1.
         14    1    4    4    0    0 -0.13496506288E-01  0.17431350692E-01 -0.26795817282E+01  0.26796724139E+01  0.00000000000E+00 0. -1.
<mgrwt>
<rscale>  0 0.79815861E+02</rscale>
<asrwt>0</asrwt>
<pdfrwt beam="1">  1        1 0.25553265E-03 0.79815861E+02</pdfrwt>
<pdfrwt beam="2">  1       -2 0.14751809E+00 0.79815861E+02</pdfrwt>
<totfact> 0.27528402E+04</totfact>
</mgrwt>
</event>
<event>
 8    1  0.1319619E-024  0.8477248E+02  0.7818608E-02  0.1316029E+00
          1   -1    0    0  501    0  0.00000000000E+00  0.00000000000E+00  0.57272133420E+02  0.57272133642E+02  0.50400000000E-02 0. -1.
         -2   -1    0    0    0  501 -0.00000000000E+00 -0.00000000000E+00 -0.31369417393E+02  0.31369417497E+02  0.25500000000E-02 0.  1.
        -24    2    1    2    0    0  0.00000000000E+00  0.00000000000E+00  0.25902716027E+02  0.88641551138E+02  0.84772483098E+02 0.  0.
         66    2    3    3    0    0 -0.28251229743E+02 -0.15518929798E+02 -0.15784576600E+02  0.35946098823E+02  0.19999995290E+01 0.  0.
         13    1    3    3    0    0  0.28251229743E+02  0.15518929798E+02  0.41687292627E+02  0.52695452315E+02  0.10566000000E+00 0. -1.
         13    1    4    4    0    0 -0.12705865453E+02 -0.61872233328E+01 -0.63896533965E+01  0.15509983367E+02  0.10566000000E+00 0. -1.
        -13    1    4    4    0    0 -0.12871153511E+02 -0.78301480835E+01 -0.81171085110E+01  0.17113632763E+02  0.10566000000E+00 0.  1.
        -14    1    4    4    0    0 -0.26742107781E+01 -0.15015583813E+01 -0.12778146928E+01  0.33224826933E+01  0.00000000000E+00 0.  1.
<mgrwt>
<rscale>  0 0.84772483E+02</rscale>
<asrwt>0</asrwt>
<pdfrwt beam="1">  1        1 0.88110975E-02 0.84772483E+02</pdfrwt>
<pdfrwt beam="2">  1       -2 0.48260642E-02 0.84772483E+02</pdfrwt>
<totfact> 0.11443205E+05</totfact>
</mgrwt>
</event>
<event>
 8    1  0.1319619E-024  0.8019465E+02  0.7818608E-02  0.1328500E+00
          1   -1    0    0  501    0  0.00000000000E+00  0.00000000000E+00  0.24080520132E+01  0.24080572875E+01  0.50400000000E-02 0. -1.
         -2   -1    0    0    0  501 -0.00000000000E+00 -0.00000000000E+00 -0.66767400492E+03  0.66767400493E+03  0.25500000000E-02 0.  1.
        -24    2    1    2    0    0  0.00000000000E+00  0.71054273576E-14 -0.66526595291E+03  0.67008206222E+03  0.80194650705E+02 0.  0.
         66    2    3    3    0    0 -0.11058453629E+01  0.34959564567E+02 -0.49623457861E+03  0.49746974890E+03  0.20000017069E+01 0.  0.
         13    1    3    3    0    0  0.11058453629E+01 -0.34959564567E+02 -0.16903137430E+03  0.17261231332E+03  0.10566000000E+00 0. -1.
         13    1    4    4    0    0  0.66060232576E-01  0.11363441165E+02 -0.17149941053E+03  0.17187551058E+03  0.10566000000E+00 0. -1.
        -13    1    4    4    0    0  0.69531753809E-01  0.30254837023E+01 -0.42042815320E+02  0.42151724406E+02  0.10566000000E+00 0.  1.
         14    1    4    4    0    0 -0.12414373493E+01  0.20570639700E+02 -0.28269235276E+03  0.28344251391E+03  0.00000000000E+00 0. -1.
<mgrwt>
<rscale>  0 0.80194651E+02</rscale>
<asrwt>0</asrwt>
<pdfrwt beam="1">  1        1 0.37047048E-03 0.80194651E+02</pdfrwt>
<pdfrwt beam="2">  1       -2 0.10271893E+00 0.80194651E+02</pdfrwt>
<totfact> 0.39295469E+04</totfact>
</mgrwt>
</event>
<event>
 8    1  0.1319619E-024  0.7892252E+02  0.7818608E-02  0.1332137E+00
          1   -1    0    0  501    0  0.00000000000E+00  0.00000000000E+00  0.74717616694E+02  0.74717616864E+02  0.50400000000E-02 0. -1.
         -2   -1    0    0    0  501 -0.00000000000E+00 -0.00000000000E+00 -0.20841013562E+02  0.20841013718E+02  0.25500000000E-02 0.  1.
        -24    2    1    2    0    0 -0.22204460493E-15  0.00000000000E+00  0.53876603131E+02  0.95558630582E+02  0.78922515886E+02 0.  0.
         66    2    3    3    0    0  0.10540408477E+01  0.34808854077E+02  0.45504118323E+01  0.35177742576E+02  0.20000001525E+01 0.  0.
         13    1    3    3    0    0 -0.10540408477E+01 -0.34808854077E+02  0.49326191299E+02  0.60380888006E+02  0.10566000000E+00 0. -1.
         13    1    4    4    0    0 -0.26761589922E+00  0.25361301372E+01  0.65062250720E+00  0.26340174686E+01  0.10566000000E+00 0. -1.
        -13    1    4    4    0    0  0.55714022956E+00  0.75437726303E+01  0.11132928515E+01  0.76465348846E+01  0.10566000000E+00 0.  1.
        -14    1    4    4    0    0  0.76451651734E+00  0.24728951310E+02  0.27864964736E+01  0.24897190223E+02  0.00000000000E+00 0.  1.
<mgrwt>
<rscale>  0 0.78922516E+02</rscale>
<asrwt>0</asrwt>
<pdfrwt beam="1">  1        1 0.11495018E-01 0.78922516E+02</pdfrwt>
<pdfrwt beam="2">  1       -2 0.32063098E-02 0.78922516E+02</pdfrwt>
<totfact> 0.14543298E+05</totfact>
</mgrwt>
</event>
<event>
 8    1  0.1319619E-024  0.7853709E+02  0.7818608E-02  0.1333255E+00
          1   -1    0    0  501    0  0.00000000000E+00  0.00000000000E+00  0.56604547719E+01  0.56604570156E+01  0.50400000000E-02 0. -1.
         -2   -1    0    0    0  501 -0.00000000000E+00 -0.00000000000E+00 -0.27241950361E+03  0.27241950362E+03  0.25500000000E-02 0.  1.
        -24    2    1    2    0    0 -0.35527136788E-14  0.88817841970E-15 -0.26675904884E+03  0.27807996064E+03  0.78537089144E+02 0.  0.
         66    2    3    3    0    0 -0.21544831251E+02  0.50770303383E+01 -0.24820224523E+03  0.24919532605E+03  0.20000003311E+01 0.  0.
         13    1    3    3    0    0  0.21544831251E+02 -0.50770303383E+01 -0.18556803614E+02  0.28884634585E+02  0.10566000000E+00 0. -1.
         13    1    4    4    0    0 -0.62146726932E+01  0.17930308494E+01 -0.76458966164E+02  0.76732143116E+02  0.10566000000E+00 0. -1.
        -13    1    4    4    0    0 -0.69944242604E+01  0.16032433286E+01 -0.86245386953E+02  0.86543458993E+02  0.10566000000E+00 0.  1.
        -14    1    4    4    0    0 -0.83357342978E+01  0.16807561603E+01 -0.85497892110E+02  0.85919723945E+02  0.00000000000E+00 0.  1.
<mgrwt>
<rscale>  0 0.78537089E+02</rscale>
<asrwt>0</asrwt>
<pdfrwt beam="1">  1        1 0.87083958E-03 0.78537089E+02</pdfrwt>
<pdfrwt beam="2">  1       -2 0.41910683E-01 0.78537089E+02</pdfrwt>
<totfact> 0.77530447E+04</totfact>
</mgrwt>
</event>
<event>
 8    1  0.1319619E-024  0.7962801E+02  0.7818608E-02  0.1330110E+00
         -2   -1    0    0    0  501 -0.00000000000E+00  0.00000000000E+00  0.82554524041E+02  0.82554524081E+02  0.25500000000E-02 0.  1.
          1   -1    0    0  501    0  0.00000000000E+00 -0.00000000000E+00 -0.19201309055E+02  0.19201309717E+02  0.50400000000E-02 0. -1.
        -24    2    1    2    0    0  0.00000000000E+00  0.00000000000E+00  0.63353214986E+02  0.10175583380E+03  0.79628009285E+02 0.  0.
         66    2    3    3    0    0 -0.21705833753E+02  0.26686134443E+02  0.57249766025E+02  0.66819373707E+02  0.20000005755E+01 0.  0.
         13    1    3    3    0    0  0.21705833753E+02 -0.26686134443E+02  0.61034489612E+01  0.34936460090E+02  0.10566000000E+00 0. -1.
         13    1    4    4    0    0 -0.11064600498E+02  0.13814621381E+02  0.28835680448E+02  0.33834550078E+02  0.10566000000E+00 0.  1.
        -13    1    4    4    0    0 -0.67470585145E+01  0.83044477402E+01  0.16957495560E+02  0.20051295982E+02  0.10566000000E+00 0. -1.
         14    1    4    4    0    0 -0.38941747399E+01  0.45670653210E+01  0.11456590018E+02  0.12933527647E+02  0.00000000000E+00 0. -1.
<mgrwt>
<rscale>  0 0.79628009E+02</rscale>
<asrwt>0</asrwt>
<pdfrwt beam="1">  1        1 0.29540477E-02 0.79628009E+02</pdfrwt>
<pdfrwt beam="2">  1       -2 0.12700696E-01 0.79628009E+02</pdfrwt>
<totfact> 0.11232399E+05</totfact>
</mgrwt>
</event>
<event>
 8    1  0.1319619E-024  0.7998697E+02  0.7818608E-02  0.1329088E+00
          1   -1    0    0  501    0  0.00000000000E+00  0.00000000000E+00  0.11947436617E+03  0.11947436628E+03  0.50400000000E-02 0. -1.
         -2   -1    0    0    0  501 -0.00000000000E+00 -0.00000000000E+00 -0.13387630928E+02  0.13387631171E+02  0.25500000000E-02 0.  1.
        -24    2    1    2    0    0  0.00000000000E+00  0.00000000000E+00  0.10608673524E+03  0.13286199745E+03  0.79986967509E+02 0.  0.
         66    2    3    3    0    0  0.26318026334E+02 -0.23093928159E+02  0.21060641602E+02  0.40908662588E+02  0.20000055418E+01 0.  0.
         13    1    3    3    0    0 -0.26318026334E+02  0.23093928159E+02  0.85026093643E+02  0.91953334861E+02  0.10566000000E+00 0. -1.
         13    1    4    4    0    0  0.10888538927E+02 -0.94845278576E+01  0.85602725032E+01  0.16787077709E+02  0.10566000000E+00 0.  1.
        -13    1    4    4    0    0  0.14961996080E+02 -0.13246368471E+02  0.11810675351E+02  0.23212729711E+02  0.10566000000E+00 0. -1.
         14    1    4    4    0    0  0.46749132691E+00 -0.36303183018E+00  0.68969374821E+00  0.90885516821E+00  0.00000000000E+00 0. -1.
<mgrwt>
<rscale>  0 0.79986968E+02</rscale>
<asrwt>0</asrwt>
<pdfrwt beam="1">  1        1 0.18380672E-01 0.79986968E+02</pdfrwt>
<pdfrwt beam="2">  1       -2 0.20596355E-02 0.79986968E+02</pdfrwt>
<totfact> 0.15161385E+05</totfact>
</mgrwt>
</event>
<event>
 8    1  0.1319619E-024  0.7831239E+02  0.7818608E-02  0.1333910E+00
          1   -1    0    0  501    0  0.00000000000E+00  0.00000000000E+00  0.61543289680E+01  0.61543310317E+01  0.50400000000E-02 0. -1.
         -2   -1    0    0    0  501 -0.00000000000E+00 -0.00000000000E+00 -0.24912666508E+03  0.24912666509E+03  0.25500000000E-02 0.  1.
        -24    2    1    2    0    0  0.00000000000E+00  0.00000000000E+00 -0.24297233611E+03  0.25528099612E+03  0.78312392804E+02 0.  0.
         66    2    3    3    0    0  0.33958632240E+02  0.18420637041E+02 -0.14184252015E+03  0.14702315848E+03  0.20000080043E+01 0.  0.
         13    1    3    3    0    0 -0.33958632240E+02 -0.18420637041E+02 -0.10112981596E+03  0.10825783765E+03  0.10566000000E+00 0. -1.
         13    1    4    4    0    0  0.65640428975E+01  0.33818654360E+01 -0.28050905290E+02  0.29006691032E+02  0.10566000000E+00 0. -1.
        -13    1    4    4    0    0  0.10922346953E+02  0.64084704333E+01 -0.48841630308E+02  0.50456735640E+02  0.10566000000E+00 0.  1.
         14    1    4    4    0    0  0.16472242389E+02  0.86303011721E+01 -0.64949984556E+02  0.67559731805E+02  0.00000000000E+00 0. -1.
<mgrwt>
<rscale>  0 0.78312393E+02</rscale>
<asrwt>0</asrwt>
<pdfrwt beam="1">  1        1 0.94682020E-03 0.78312393E+02</pdfrwt>
<pdfrwt beam="2">  1       -2 0.38327172E-01 0.78312393E+02</pdfrwt>
<totfact> 0.81612751E+04</totfact>
</mgrwt>
</event>
<event>
 8    1  0.1319619E-024  0.8439780E+02  0.7818608E-02  0.1317015E+00
         -2   -1    0    0    0  501 -0.00000000000E+00  0.00000000000E+00  0.93690014696E+01  0.93690018166E+01  0.25500000000E-02 0.  1.
          1   -1    0    0  501    0  0.00000000000E+00 -0.00000000000E+00 -0.19006796653E+03  0.19006796660E+03  0.50400000000E-02 0. -1.
        -24    2    1    2    0    0  0.00000000000E+00  0.00000000000E+00 -0.18069896506E+03  0.19943696841E+03  0.84397798526E+02 0.  0.
         66    2    3    3    0    0 -0.32890619915E+02 -0.15279077218E+02 -0.39525719450E+02  0.53679843307E+02  0.20000000977E+01 0.  0.
         13    1    3    3    0    0  0.32890619915E+02  0.15279077218E+02 -0.14117324561E+03  0.14575712511E+03  0.10566000000E+00 0. -1.
         13    1    4    4    0    0 -0.19009663107E+01 -0.11560061530E+01 -0.25247412847E+01  0.33668242797E+01  0.10566000000E+00 0.  1.
        -13    1    4    4    0    0 -0.23464109748E+02 -0.11341089394E+02 -0.28755891578E+02  0.38808468398E+02  0.10566000000E+00 0.  1.
        -14    1    4    4    0    0 -0.75255438563E+01 -0.27819816713E+01 -0.82450865868E+01  0.11504550629E+02  0.00000000000E+00 0.  1.
<mgrwt>
<rscale>  0 0.84397799E+02</rscale>
<asrwt>0</asrwt>
<pdfrwt beam="1">  1        1 0.29241223E-01 0.84397799E+02</pdfrwt>
<pdfrwt beam="2">  1       -2 0.14413850E-02 0.84397799E+02</pdfrwt>
<totfact> 0.14315222E+05</totfact>
</mgrwt>
</event>
<event>
 8    1  0.1319619E-024  0.7731330E+02  0.7818608E-02  0.1336854E+00
          1   -1    0    0  501    0  0.00000000000E+00  0.00000000000E+00  0.44137609824E+01  0.44137638599E+01  0.50400000000E-02 0. -1.
         -2   -1    0    0    0  501 -0.00000000000E+00 -0.00000000000E+00 -0.33856298507E+03  0.33856298508E+03  0.25500000000E-02 0.  1.
        -24    2    1    2    0    0  0.35527136788E-14  0.55511151231E-16 -0.33414922409E+03  0.34297674894E+03  0.77313299987E+02 0.  0.
         66    2    3    3    0    0 -0.14585276742E+02 -0.35684211045E+00 -0.32586757248E+03  0.32620014168E+03  0.20000001869E+01 0.  0.
         13    1    3    3    0    0  0.14585276742E+02  0.35684211045E+00 -0.82816516075E+01  0.16776607265E+02  0.10566000000E+00 0. -1.
         13    1    4    4    0    0 -0.13397689849E+01  0.35235871342E+00 -0.40382657928E+02  0.40406550990E+02  0.10566000000E+00 0. -1.
        -13    1    4    4    0    0 -0.73173779721E+01 -0.14556184628E+00 -0.15356323578E+03  0.15373758082E+03  0.10566000000E+00 0.  1.
        -14    1    4    4    0    0 -0.59281297848E+01 -0.56363897758E+00 -0.13192167878E+03  0.13205600987E+03  0.00000000000E+00 0.  1.
<mgrwt>
<rscale>  0 0.77313300E+02</rscale>
<asrwt>0</asrwt>
<pdfrwt beam="1">  1        1 0.67904064E-03 0.77313300E+02</pdfrwt>
<pdfrwt beam="2">  1       -2 0.52086593E-01 0.77313300E+02</pdfrwt>
<totfact> 0.71654058E+04</totfact>
</mgrwt>
</event>
<event>
 8    1  0.1319619E-024  0.8106647E+02  0.7818608E-02  0.1326052E+00
         -2   -1    0    0    0  501 -0.00000000000E+00  0.00000000000E+00  0.22090497438E+02  0.22090497586E+02  0.25500000000E-02 0.  1.
          1   -1    0    0  501    0  0.00000000000E+00 -0.00000000000E+00 -0.74373301036E+02  0.74373301207E+02  0.50400000000E-02 0. -1.
        -24    2    1    2    0    0 -0.44408920985E-15  0.00000000000E+00 -0.52282803598E+02  0.96463798792E+02  0.81066472265E+02 0.  0.
         66    2    3    3    0    0  0.20511322555E+01  0.40360069879E+02 -0.29479694924E+02  0.50061909678E+02  0.20000008943E+01 0.  0.
         13    1    3    3    0    0 -0.20511322555E+01 -0.40360069879E+02 -0.22803108674E+02  0.46401889115E+02  0.10566000000E+00 0. -1.
         13    1    4    4    0    0  0.35155831333E+00  0.65714488925E+01 -0.41075074245E+01  0.77582417513E+01  0.10566000000E+00 0. -1.
        -13    1    4    4    0    0  0.15337587369E+01  0.26266567776E+02 -0.20248426667E+02  0.33200827476E+02  0.10566000000E+00 0.  1.
        -14    1    4    4    0    0  0.16581520526E+00  0.75220532111E+01 -0.51237608324E+01  0.91028404501E+01  0.00000000000E+00 0.  1.
<mgrwt>
<rscale>  0 0.81066472E+02</rscale>
<asrwt>0</asrwt>
<pdfrwt beam="1">  1        1 0.11442046E-01 0.81066472E+02</pdfrwt>
<pdfrwt beam="2">  1       -2 0.33985381E-02 0.81066472E+02</pdfrwt>
<totfact> 0.13506770E+05</totfact>
</mgrwt>
</event>
<event>
 8    1  0.1319619E-024  0.8052351E+02  0.7818608E-02  0.1327572E+00
          1   -1    0    0  501    0  0.00000000000E+00  0.00000000000E+00  0.46345349675E+01  0.46345377080E+01  0.50400000000E-02 0. -1.
         -2   -1    0    0    0  501 -0.00000000000E+00 -0.00000000000E+00 -0.34976724911E+03  0.34976724912E+03  0.25500000000E-02 0.  1.
        -24    2    1    2    0    0  0.17763568394E-14  0.35527136788E-14 -0.34513271414E+03  0.35440178683E+03  0.80523512932E+02 0.  0.
         66    2    3    3    0    0  0.13938827360E+02  0.29072360736E+02 -0.27862326506E+03  0.28048960212E+03  0.19999993467E+01 0.  0.
         13    1    3    3    0    0 -0.13938827360E+02 -0.29072360736E+02 -0.66509449077E+02  0.73912184703E+02  0.10566000000E+00 0. -1.
         13    1    4    4    0    0  0.51250073840E+01  0.11355294167E+02 -0.11018006173E+03  0.11088221486E+03  0.10566000000E+00 0.  1.
        -13    1    4    4    0    0  0.83261541832E+01  0.16121360796E+02 -0.15172209350E+03  0.15280323274E+03  0.10566000000E+00 0. -1.
         14    1    4    4    0    0  0.48766579253E+00  0.15957057734E+01 -0.16721109835E+02  0.16804154515E+02  0.00000000000E+00 0. -1.
<mgrwt>
<rscale>  0 0.80523513E+02</rscale>
<asrwt>0</asrwt>
<pdfrwt beam="1">  1        1 0.71300587E-03 0.80523513E+02</pdfrwt>
<pdfrwt beam="2">  1       -2 0.53810325E-01 0.80523513E+02</pdfrwt>
<totfact> 0.63264756E+04</totfact>
</mgrwt>
</event>
<event>
 8    1  0.1319619E-024  0.8221211E+02  0.7818608E-02  0.1322888E+00
          1   -1    0    0  501    0  0.00000000000E+00  0.00000000000E+00  0.57483836485E+02  0.57483836706E+02  0.50400000000E-02 0. -1.
         -2   -1    0    0    0  501 -0.00000000000E+00 -0.00000000000E+00 -0.29394486285E+02  0.29394486396E+02  0.25500000000E-02 0.  1.
        -24    2    1    2    0    0  0.00000000000E+00  0.00000000000E+00  0.28089350200E+02  0.86878323101E+02  0.82212112430E+02 0.  0.
         66    2    3    3    0    0 -0.26108456811E+01  0.34608482582E+02 -0.91750352963E+01  0.35954761048E+02  0.19999968833E+01 0.  0.
         13    1    3    3    0    0  0.26108456811E+01 -0.34608482582E+02  0.37264385496E+02  0.50923562053E+02  0.10566000000E+00 0. -1.
         13    1    4    4    0    0 -0.89756641857E+00  0.15551967918E+02 -0.37334145275E+01  0.16019328315E+02  0.10566000000E+00 0. -1.
        -13    1    4    4    0    0 -0.31297877570E+00  0.20405541518E+01 -0.20667189705E+00  0.20774249130E+01  0.10566000000E+00 0.  1.
         14    1    4    4    0    0 -0.14003004869E+01  0.17015960512E+02 -0.52349488717E+01  0.17858007820E+02  0.00000000000E+00 0. -1.
<mgrwt>
<rscale>  0 0.82212112E+02</rscale>
<asrwt>0</asrwt>
<pdfrwt beam="1">  1        1 0.88436671E-02 0.82212112E+02</pdfrwt>
<pdfrwt beam="2">  1       -2 0.45222287E-02 0.82212112E+02</pdfrwt>
<totfact> 0.12469875E+05</totfact>
</mgrwt>
</event>
<event>
 8    1  0.1319619E-024  0.7960816E+02  0.7818608E-02  0.1330167E+00
          1   -1    0    0  501    0  0.00000000000E+00  0.00000000000E+00  0.14764203190E+02  0.14764204050E+02  0.50400000000E-02 0. -1.
         -2   -1    0    0    0  501 -0.00000000000E+00 -0.00000000000E+00 -0.10731123423E+03  0.10731123426E+03  0.25500000000E-02 0.  1.
        -24    2    1    2    0    0  0.00000000000E+00  0.71054273576E-14 -0.92547031036E+02  0.12207543831E+03  0.79608163426E+02 0.  0.
         66    2    3    3    0    0  0.16564597616E+02 -0.35733125980E+02 -0.54856753146E+02  0.67561124608E+02  0.20000015267E+01 0.  0.
         13    1    3    3    0    0 -0.16564597616E+02  0.35733125980E+02 -0.37690277890E+02  0.54514313698E+02  0.10566000000E+00 0. -1.
         13    1    4    4    0    0  0.80130269126E+00 -0.26146499800E+01 -0.37750791377E+01  0.46627102690E+01  0.10566000000E+00 0. -1.
        -13    1    4    4    0    0  0.14735709895E+01 -0.34425068008E+01 -0.46641545928E+01  0.59822877426E+01  0.10566000000E+00 0.  1.
        -14    1    4    4    0    0  0.14289723936E+02 -0.29675969199E+02 -0.46417519416E+02  0.56916126597E+02  0.00000000000E+00 0.  1.
<mgrwt>
<rscale>  0 0.79608163E+02</rscale>
<asrwt>0</asrwt>
<pdfrwt beam="1">  1        1 0.22714160E-02 0.79608163E+02</pdfrwt>
<pdfrwt beam="2">  1       -2 0.16509420E-01 0.79608163E+02</pdfrwt>
<totfact> 0.10556196E+05</totfact>
</mgrwt>
</event>
<event>
 8    1  0.1319619E-024  0.7945609E+02  0.7818608E-02  0.1330602E+00
          1   -1    0    0  501    0  0.00000000000E+00  0.00000000000E+00  0.15155998566E+02  0.15155999404E+02  0.50400000000E-02 0. -1.
         -2   -1    0    0    0  501 -0.00000000000E+00 -0.00000000000E+00 -0.10413814016E+03  0.10413814019E+03  0.25500000000E-02 0.  1.
        -24    2    1    2    0    0  0.00000000000E+00  0.00000000000E+00 -0.88982141598E+02  0.11929413960E+03  0.79456089881E+02 0.  0.
         66    2    3    3    0    0 -0.24859435083E+02 -0.30434671609E+02 -0.53019172341E+02  0.66024945213E+02  0.20000015222E+01 0.  0.
         13    1    3    3    0    0  0.24859435083E+02  0.30434671609E+02 -0.35962969257E+02  0.53269194385E+02  0.10566000000E+00 0. -1.
         13    1    4    4    0    0 -0.15274977762E+02 -0.18662301026E+02 -0.33267178942E+02  0.41089205201E+02  0.10566000000E+00 0.  1.
        -13    1    4    4    0    0 -0.23350494189E+01 -0.34972737886E+01 -0.50248185571E+01  0.65531172207E+01  0.10566000000E+00 0. -1.
         14    1    4    4    0    0 -0.72494079028E+01 -0.82750967941E+01 -0.14727174842E+02  0.18382622792E+02  0.00000000000E+00 0. -1.
<mgrwt>
<rscale>  0 0.79456090E+02</rscale>
<asrwt>0</asrwt>
<pdfrwt beam="1">  1        1 0.23316922E-02 0.79456090E+02</pdfrwt>
<pdfrwt beam="2">  1       -2 0.16021252E-01 0.79456090E+02</pdfrwt>
<totfact> 0.10690215E+05</totfact>
</mgrwt>
</event>
<event>
 8    1  0.1319619E-024  0.8041653E+02  0.7818608E-02  0.1327874E+00
          1   -1    0    0  501    0  0.00000000000E+00  0.00000000000E+00  0.46288313020E+02  0.46288313295E+02  0.50400000000E-02 0. -1.
         -2   -1    0    0    0  501 -0.00000000000E+00 -0.00000000000E+00 -0.34926843867E+02  0.34926843960E+02  0.25500000000E-02 0.  1.
        -24    2    1    2    0    0  0.00000000000E+00 -0.35527136788E-14  0.11361469153E+02  0.81215157255E+02  0.80416533043E+02 0.  0.
         66    2    3    3    0    0 -0.26009144738E+02  0.30628011763E+02  0.52943776359E+01  0.40578087010E+02  0.19999990660E+01 0.  0.
         13    1    3    3    0    0  0.26009144738E+02 -0.30628011763E+02  0.60670915168E+01  0.40637070245E+02  0.10566000000E+00 0. -1.
         13    1    4    4    0    0 -0.10530523525E+01  0.16178501594E+01  0.16085784498E+00  0.19399478542E+01  0.10566000000E+00 0. -1.
        -13    1    4    4    0    0 -0.14632974028E+02  0.18104477363E+02  0.31376030337E+01  0.23489396466E+02  0.10566000000E+00 0.  1.
        -14    1    4    4    0    0 -0.10323118358E+02  0.10905684241E+02  0.19959167572E+01  0.15148742690E+02  0.00000000000E+00 0.  1.
<mgrwt>
<rscale>  0 0.80416533E+02</rscale>
<asrwt>0</asrwt>
<pdfrwt beam="1">  1        1 0.71212790E-02 0.80416533E+02</pdfrwt>
<pdfrwt beam="2">  1       -2 0.53733606E-02 0.80416533E+02</pdfrwt>
<totfact> 0.12810693E+05</totfact>
</mgrwt>
</event>
<event>
 8    1  0.1319619E-024  0.7987905E+02  0.7818608E-02  0.1329395E+00
          1   -1    0    0  501    0  0.00000000000E+00  0.00000000000E+00  0.97843563180E+02  0.97843563310E+02  0.50400000000E-02 0. -1.
         -2   -1    0    0    0  501 -0.00000000000E+00 -0.00000000000E+00 -0.16303223961E+02  0.16303224161E+02  0.25500000000E-02 0.  1.
        -24    2    1    2    0    0  0.35527136788E-14 -0.35527136788E-14  0.81540339219E+02  0.11414678747E+03  0.79879047127E+02 0.  0.
         66    2    3    3    0    0  0.27277375663E+02 -0.19230093597E+02  0.95104850444E+01  0.34760625079E+02  0.20000018248E+01 0.  0.
         13    1    3    3    0    0 -0.27277375663E+02  0.19230093597E+02  0.72029854175E+02  0.79386162392E+02  0.10566000000E+00 0. -1.
         13    1    4    4    0    0  0.79950873640E+01 -0.63138733638E+01  0.25664419436E+01  0.10506388870E+02  0.10566000000E+00 0. -1.
        -13    1    4    4    0    0  0.14016482198E+02 -0.10010516016E+02  0.51104337634E+01  0.17966633001E+02  0.10566000000E+00 0.  1.
        -14    1    4    4    0    0  0.52658061014E+01 -0.29057042168E+01  0.18336093375E+01  0.62876032075E+01  0.00000000000E+00 0.  1.
<mgrwt>
<rscale>  0 0.79879047E+02</rscale>
<asrwt>0</asrwt>
<pdfrwt beam="1">  1        1 0.15052856E-01 0.79879047E+02</pdfrwt>
<pdfrwt beam="2">  1       -2 0.25081884E-02 0.79879047E+02</pdfrwt>
<totfact> 0.14705494E+05</totfact>
</mgrwt>
</event>
<event>
 8    1  0.1319619E-024  0.8268964E+02  0.7818608E-02  0.1321587E+00
          1   -1    0    0  501    0  0.00000000000E+00  0.00000000000E+00  0.81630322317E+02  0.81630322473E+02  0.50400000000E-02 0. -1.
         -2   -1    0    0    0  501 -0.00000000000E+00 -0.00000000000E+00 -0.20940675655E+02  0.20940675810E+02  0.25500000000E-02 0.  1.
        -24    2    1    2    0    0 -0.35527136788E-14  0.00000000000E+00  0.60689646662E+02  0.10257099828E+03  0.82689639477E+02 0.  0.
         66    2    3    3    0    0 -0.24729304127E+02  0.15575437134E+02 -0.58712225501E+01  0.29876478552E+02  0.19999979857E+01 0.  0.
         13    1    3    3    0    0  0.24729304127E+02 -0.15575437134E+02  0.66560869213E+02  0.72694519731E+02  0.10566000000E+00 0. -1.
         13    1    4    4    0    0 -0.16534138642E+01  0.12495242348E+01 -0.59729876859E+00  0.21594022493E+01  0.10566000000E+00 0. -1.
        -13    1    4    4    0    0 -0.85658014178E+01  0.61677728412E+01 -0.17071939071E+01  0.10692990733E+02  0.10566000000E+00 0.  1.
        -14    1    4    4    0    0 -0.14510088845E+02  0.81581400584E+01 -0.35667298743E+01  0.17024085570E+02  0.00000000000E+00 0.  1.
<mgrwt>
<rscale>  0 0.82689639E+02</rscale>
<asrwt>0</asrwt>
<pdfrwt beam="1">  1        1 0.12558511E-01 0.82689639E+02</pdfrwt>
<pdfrwt beam="2">  1       -2 0.32216424E-02 0.82689639E+02</pdfrwt>
<totfact> 0.12989277E+05</totfact>
</mgrwt>
</event>
<event>
 8    1  0.1319619E-024  0.8097379E+02  0.7818608E-02  0.1326310E+00
          1   -1    0    0  501    0  0.00000000000E+00  0.00000000000E+00  0.39156978443E+03  0.39156978447E+03  0.50400000000E-02 0. -1.
         -2   -1    0    0    0  501 -0.00000000000E+00 -0.00000000000E+00 -0.41861978404E+01  0.41861986171E+01  0.25500000000E-02 0.  1.
        -24    2    1    2    0    0  0.00000000000E+00  0.00000000000E+00  0.38738358659E+03  0.39575598308E+03  0.80973791960E+02 0.  0.
         66    2    3    3    0    0  0.23508131514E+02  0.32750674641E+02  0.17691793728E+03  0.18146403354E+03  0.19999995802E+01 0.  0.
         13    1    3    3    0    0 -0.23508131514E+02 -0.32750674641E+02  0.21046564931E+03  0.21429194955E+03  0.10566000000E+00 0. -1.
         13    1    4    4    0    0  0.10960263024E+02  0.16669896298E+02  0.87329824501E+02  0.89579697586E+02  0.10566000000E+00 0.  1.
        -13    1    4    4    0    0  0.99308636453E+01  0.12551910152E+02  0.71665296125E+02  0.73430908574E+02  0.10566000000E+00 0. -1.
         14    1    4    4    0    0  0.26170048443E+01  0.35288681912E+01  0.17922816658E+02  0.18453427379E+02  0.00000000000E+00 0. -1.
<mgrwt>
<rscale>  0 0.80973792E+02</rscale>
<asrwt>0</asrwt>
<pdfrwt beam="1">  1        1 0.60241494E-01 0.80973792E+02</pdfrwt>
<pdfrwt beam="2">  1       -2 0.64403063E-03 0.80973792E+02</pdfrwt>
<totfact> 0.18334375E+05</totfact>
</mgrwt>
</event>
<event>
 8    1  0.1687542E-024  0.7516521E+02  0.7818608E-02  0.1343360E+00
          1   -1    0    0  501    0  0.00000000000E+00  0.00000000000E+00  0.66982149853E+03  0.66982149855E+03  0.50400000000E-02 0. -1.
         -2   -1    0    0    0  501 -0.00000000000E+00 -0.00000000000E+00 -0.21086984031E+01  0.21086999449E+01  0.25500000000E-02 0.  1.
        -24    2    1    2    0    0  0.00000000000E+00  0.00000000000E+00  0.66771280012E+03  0.67193019849E+03  0.75165206011E+02 0.  0.
         66    2    3    3    0    0 -0.13336973384E+02 -0.31158923154E+02  0.47870400995E+03  0.47990653516E+03  0.19999994605E+01 0.  0.
         13    1    3    3    0    0  0.13336973384E+02  0.31158923154E+02  0.18900879018E+03  0.19202366333E+03  0.10566000000E+00 0. -1.
         13    1    4    4    0    0 -0.27006038210E+00 -0.13938123244E+01  0.21813380288E+02  0.21859788860E+02  0.10566000000E+00 0. -1.
        -13    1    4    4    0    0 -0.14469531895E+01 -0.39331973568E+01  0.61941798815E+02  0.62083502796E+02  0.10566000000E+00 0.  1.
        -14    1    4    4    0    0 -0.11619959813E+02 -0.25831913473E+02  0.39494883084E+03  0.39596324350E+03  0.00000000000E+00 0.  1.
<mgrwt>
<rscale>  0 0.75165206E+02</rscale>
<asrwt>0</asrwt>
<pdfrwt beam="1">  1        1 0.10304964E+00 0.75165206E+02</pdfrwt>
<pdfrwt beam="2">  1       -2 0.32441469E-03 0.75165206E+02</pdfrwt>
<totfact> 0.23549143E+05</totfact>
</mgrwt>
</event>
<event>
 8    1  0.1319619E-024  0.7954311E+02  0.7818608E-02  0.1330353E+00
          1   -1    0    0  501    0  0.00000000000E+00  0.00000000000E+00  0.51445744563E+02  0.51445744810E+02  0.50400000000E-02 0. -1.
         -2   -1    0    0    0  501 -0.00000000000E+00 -0.00000000000E+00 -0.30746498173E+02  0.30746498279E+02  0.25500000000E-02 0.  1.
        -24    2    1    2    0    0  0.35527136788E-14 -0.88817841970E-15  0.20699246390E+02  0.82192243089E+02  0.79543107954E+02 0.  0.
         66    2    3    3    0    0 -0.24580331382E+02  0.54357263567E+01 -0.21425845274E+02  0.33118071434E+02  0.19999994775E+01 0.  0.
         13    1    3    3    0    0  0.24580331382E+02 -0.54357263567E+01  0.42125091664E+02  0.49074171655E+02  0.10566000000E+00 0. -1.
         13    1    4    4    0    0 -0.79249873321E+01  0.13168647321E+01 -0.74144055545E+01  0.10932709211E+02  0.10566000000E+00 0. -1.
        -13    1    4    4    0    0 -0.12139647543E+02  0.25166134135E+01 -0.10459760156E+02  0.16221039797E+02  0.10566000000E+00 0.  1.
         14    1    4    4    0    0 -0.45156965071E+01  0.16022482110E+01 -0.35516795642E+01  0.59643224259E+01  0.00000000000E+00 0. -1.
<mgrwt>
<rscale>  0 0.79543108E+02</rscale>
<asrwt>0</asrwt>
<pdfrwt beam="1">  1        1 0.79147298E-02 0.79543108E+02</pdfrwt>
<pdfrwt beam="2">  1       -2 0.47302306E-02 0.79543108E+02</pdfrwt>
<totfact> 0.13427992E+05</totfact>
</mgrwt>
</event>
<event>
 8    1  0.1319619E-024  0.8061311E+02  0.7818608E-02  0.1327320E+00
         -2   -1    0    0    0  501 -0.00000000000E+00  0.00000000000E+00  0.15126116647E+02  0.15126116862E+02  0.25500000000E-02 0.  1.
          1   -1    0    0  501    0  0.00000000000E+00 -0.00000000000E+00 -0.10740485467E+03  0.10740485479E+03  0.50400000000E-02 0. -1.
        -24    2    1    2    0    0  0.35527136788E-14  0.35527136788E-14 -0.92278738028E+02  0.12253097165E+03  0.80613110117E+02 0.  0.
         66    2    3    3    0    0  0.22133088730E+02  0.27521911120E+02 -0.75613285344E+02  0.83478728626E+02  0.20000010009E+01 0.  0.
         13    1    3    3    0    0 -0.22133088730E+02 -0.27521911120E+02 -0.16665452684E+02  0.39052243029E+02  0.10566000000E+00 0. -1.
         13    1    4    4    0    0  0.18709796438E+01  0.29225652490E+01 -0.65605182602E+01  0.74225006797E+01  0.10566000000E+00 0. -1.
        -13    1    4    4    0    0  0.14955374650E+02  0.18516205997E+02 -0.50997764997E+02  0.56278737674E+02  0.10566000000E+00 0.  1.
         14    1    4    4    0    0  0.53067344363E+01  0.60831398739E+01 -0.18055002087E+02  0.19777490272E+02  0.00000000000E+00 0. -1.
<mgrwt>
<rscale>  0 0.80613110E+02</rscale>
<asrwt>0</asrwt>
<pdfrwt beam="1">  1        1 0.16523823E-01 0.80613110E+02</pdfrwt>
<pdfrwt beam="2">  1       -2 0.23270950E-02 0.80613110E+02</pdfrwt>
<totfact> 0.14574864E+05</totfact>
</mgrwt>
</event>
<event>
 8    1  0.1319619E-024  0.8061429E+02  0.7818608E-02  0.1327317E+00
          1   -1    0    0  501    0  0.00000000000E+00  0.00000000000E+00  0.20926691164E+03  0.20926691171E+03  0.50400000000E-02 0. -1.
         -2   -1    0    0    0  501 -0.00000000000E+00 -0.00000000000E+00 -0.77636064410E+01  0.77636068598E+01  0.25500000000E-02 0.  1.
        -24    2    1    2    0    0  0.00000000000E+00  0.35527136788E-14  0.20150330520E+03  0.21703051856E+03  0.80614291417E+02 0.  0.
         66    2    3    3    0    0  0.24403239945E+02  0.26331651026E+02  0.51627265545E+02  0.62914612853E+02  0.19999993233E+01 0.  0.
         13    1    3    3    0    0 -0.24403239945E+02 -0.26331651026E+02  0.14987603966E+03  0.15411590571E+03  0.10566000000E+00 0. -1.
         13    1    4    4    0    0  0.24898743636E+01  0.29125773836E+01  0.56364741160E+01  0.68164203111E+01  0.10566000000E+00 0.  1.
        -13    1    4    4    0    0  0.14863558656E+02  0.15476413863E+02  0.32127996270E+02  0.38635010940E+02  0.10566000000E+00 0.  1.
        -14    1    4    4    0    0  0.70498069251E+01  0.79426597797E+01  0.13862795159E+02  0.17463181602E+02  0.00000000000E+00 0.  1.
<mgrwt>
<rscale>  0 0.80614291E+02</rscale>
<asrwt>0</asrwt>
<pdfrwt beam="1">  1        1 0.32194907E-01 0.80614291E+02</pdfrwt>
<pdfrwt beam="2">  1       -2 0.11944011E-02 0.80614291E+02</pdfrwt>
<totfact> 0.16483371E+05</totfact>
</mgrwt>
</event>
<event>
 8    1  0.1319619E-024  0.8053023E+02  0.7818608E-02  0.1327553E+00
          1   -1    0    0  501    0  0.00000000000E+00  0.00000000000E+00  0.17087121695E+03  0.17087121702E+03  0.50400000000E-02 0. -1.
         -2   -1    0    0    0  501 -0.00000000000E+00 -0.00000000000E+00 -0.94883122111E+01  0.94883125538E+01  0.25500000000E-02 0.  1.
        -24    2    1    2    0    0  0.00000000000E+00  0.00000000000E+00  0.16138290474E+03  0.18035952958E+03  0.80530230147E+02 0.  0.
         66    2    3    3    0    0 -0.30690770786E+02 -0.11853933840E+02  0.28849047506E+02  0.43803044430E+02  0.20000000965E+01 0.  0.
         13    1    3    3    0    0  0.30690770786E+02  0.11853933840E+02  0.13253385723E+03  0.13655648515E+03  0.10566000000E+00 0. -1.
         13    1    4    4    0    0 -0.78507166274E+01 -0.30956655570E+01  0.82291764305E+01  0.11787595411E+02  0.10566000000E+00 0. -1.
        -13    1    4    4    0    0 -0.16609870879E+02 -0.66701370942E+01  0.15659373610E+02  0.23782465923E+02  0.10566000000E+00 0.  1.
        -14    1    4    4    0    0 -0.62301832802E+01 -0.20881311885E+01  0.49604974654E+01  0.82329830966E+01  0.00000000000E+00 0.  1.
<mgrwt>
<rscale>  0 0.80530230E+02</rscale>
<asrwt>0</asrwt>
<pdfrwt beam="1">  1        1 0.26287878E-01 0.80530230E+02</pdfrwt>
<pdfrwt beam="2">  1       -2 0.14597405E-02 0.80530230E+02</pdfrwt>
<totfact> 0.15895136E+05</totfact>
</mgrwt>
</event>
<event>
 8    1  0.1319619E-024  0.7967879E+02  0.7818608E-02  0.1329965E+00
          1   -1    0    0  501    0  0.00000000000E+00  0.00000000000E+00  0.12573306338E+03  0.12573306348E+03  0.50400000000E-02 0. -1.
         -2   -1    0    0    0  501 -0.00000000000E+00 -0.00000000000E+00 -0.12623387952E+02  0.12623388210E+02  0.25500000000E-02 0.  1.
        -24    2    1    2    0    0  0.17763568394E-14  0.00000000000E+00  0.11310967543E+03  0.13835645169E+03  0.79678786694E+02 0.  0.
         66    2    3    3    0    0 -0.12129273215E+02  0.15596587133E+02 -0.34307669017E+01  0.20152988707E+02  0.19999983440E+01 0.  0.
         13    1    3    3    0    0  0.12129273215E+02 -0.15596587133E+02  0.11654044233E+03  0.11820346298E+03  0.10566000000E+00 0. -1.
         13    1    4    4    0    0 -0.16300763270E+01  0.27074197623E+01 -0.10709597216E+01  0.33384711114E+01  0.10566000000E+00 0. -1.
        -13    1    4    4    0    0 -0.58177068126E+01  0.64650559458E+01 -0.11301751430E+01  0.87710387543E+01  0.10566000000E+00 0.  1.
        -14    1    4    4    0    0 -0.46814900755E+01  0.64241114249E+01 -0.12296320370E+01  0.80434788415E+01  0.00000000000E+00 0.  1.
<mgrwt>
<rscale>  0 0.79678787E+02</rscale>
<asrwt>0</asrwt>
<pdfrwt beam="1">  1        1 0.19343547E-01 0.79678787E+02</pdfrwt>
<pdfrwt beam="2">  1       -2 0.19420598E-02 0.79678787E+02</pdfrwt>
<totfact> 0.15457831E+05</totfact>
</mgrwt>
</event>
<event>
 8    1  0.1319619E-024  0.7957115E+02  0.7818608E-02  0.1330273E+00
          1   -1    0    0  501    0  0.00000000000E+00  0.00000000000E+00  0.54638775648E+02  0.54638775880E+02  0.50400000000E-02 0. -1.
         -2   -1    0    0    0  501 -0.00000000000E+00 -0.00000000000E+00 -0.28970120319E+02  0.28970120431E+02  0.25500000000E-02 0.  1.
        -24    2    1    2    0    0 -0.35527136788E-14  0.35527136788E-14  0.25668655329E+02  0.83608896311E+02  0.79571148515E+02 0.  0.
         66    2    3    3    0    0 -0.30042415105E+02 -0.22998505292E+02  0.25685968535E+02  0.45773867373E+02  0.20000009245E+01 0.  0.
         13    1    3    3    0    0  0.30042415105E+02  0.22998505292E+02 -0.17313205808E-01  0.37835028938E+02  0.10566000000E+00 0. -1.
         13    1    4    4    0    0 -0.16907171545E+01 -0.12055712533E+01  0.15962609181E+01  0.26212858481E+01  0.10566000000E+00 0. -1.
        -13    1    4    4    0    0 -0.24620169827E+01 -0.13381932129E+01  0.17277787802E+01  0.32937322671E+01  0.10566000000E+00 0.  1.
        -14    1    4    4    0    0 -0.25889680967E+02 -0.20454740826E+02  0.22361928837E+02  0.39858849258E+02  0.00000000000E+00 0.  1.
<mgrwt>
<rscale>  0 0.79571149E+02</rscale>
<asrwt>0</asrwt>
<pdfrwt beam="1">  1        1 0.84059655E-02 0.79571149E+02</pdfrwt>
<pdfrwt beam="2">  1       -2 0.44569416E-02 0.79571149E+02</pdfrwt>
<totfact> 0.13541500E+05</totfact>
</mgrwt>
</event>
<event>
 8    1  0.1319619E-024  0.7801101E+02  0.7818608E-02  0.1334793E+00
         -2   -1    0    0    0  501 -0.00000000000E+00  0.00000000000E+00  0.69003491291E+02  0.69003491338E+02  0.25500000000E-02 0.  1.
          1   -1    0    0  501    0  0.00000000000E+00 -0.00000000000E+00 -0.22048587628E+02  0.22048588204E+02  0.50400000000E-02 0. -1.
        -24    2    1    2    0    0  0.00000000000E+00  0.00000000000E+00  0.46954903663E+02  0.91052079542E+02  0.78011013395E+02 0.  0.
         66    2    3    3    0    0 -0.11404385717E+02 -0.29616254392E+01  0.66860585346E+02  0.67920314237E+02  0.19999936051E+01 0.  0.
         13    1    3    3    0    0  0.11404385717E+02  0.29616254392E+01 -0.19905681683E+02  0.23131765305E+02  0.10566000000E+00 0. -1.
         13    1    4    4    0    0 -0.92528997973E+00  0.15750202053E-01  0.59222932125E+01  0.59950922050E+01  0.10566000000E+00 0. -1.
        -13    1    4    4    0    0 -0.33748461000E+01 -0.11079739137E+01  0.24217148965E+02  0.24476491995E+02  0.10566000000E+00 0.  1.
         14    1    4    4    0    0 -0.71042496369E+01 -0.18694017276E+01  0.36721143169E+02  0.37448730037E+02  0.00000000000E+00 0. -1.
<mgrwt>
<rscale>  0 0.78011013E+02</rscale>
<asrwt>0</asrwt>
<pdfrwt beam="1">  1        1 0.33920906E-02 0.78011013E+02</pdfrwt>
<pdfrwt beam="2">  1       -2 0.10615921E-01 0.78011013E+02</pdfrwt>
<totfact> 0.12284700E+05</totfact>
</mgrwt>
</event>
<event>
 8    1  0.1319619E-024  0.8027871E+02  0.7818608E-02  0.1328262E+00
          1   -1    0    0  501    0  0.00000000000E+00  0.00000000000E+00  0.28229168194E+02  0.28229168644E+02  0.50400000000E-02 0. -1.
         -2   -1    0    0    0  501 -0.00000000000E+00 -0.00000000000E+00 -0.57074572196E+02  0.57074572253E+02  0.25500000000E-02 0.  1.
        -24    2    1    2    0    0  0.35527136788E-14  0.35527136788E-14 -0.28845404002E+02  0.85303740897E+02  0.80278707507E+02 0.  0.
         66    2    3    3    0    0 -0.28708700782E+02 -0.14980659419E+02 -0.39589627111E+02  0.51185429810E+02  0.19999981957E+01 0.  0.
         13    1    3    3    0    0  0.28708700782E+02  0.14980659419E+02  0.10744223109E+02  0.34118311087E+02  0.10566000000E+00 0. -1.
         13    1    4    4    0    0 -0.82363737850E+00 -0.71355476412E+00 -0.17064923571E+01  0.20275155074E+01  0.10566000000E+00 0. -1.
        -13    1    4    4    0    0 -0.87690825776E+01 -0.45690278658E+01 -0.11649965856E+02  0.15280893081E+02  0.10566000000E+00 0.  1.
         14    1    4    4    0    0 -0.19115980826E+02 -0.96980767889E+01 -0.26233168899E+02  0.33877021221E+02  0.00000000000E+00 0. -1.
<mgrwt>
<rscale>  0 0.80278708E+02</rscale>
<asrwt>0</asrwt>
<pdfrwt beam="1">  1        1 0.43429490E-02 0.80278708E+02</pdfrwt>
<pdfrwt beam="2">  1       -2 0.87807034E-02 0.80278708E+02</pdfrwt>
<totfact> 0.11844040E+05</totfact>
</mgrwt>
</event>
<event>
 8    1  0.1319619E-024  0.8032109E+02  0.7818608E-02  0.1328143E+00
          1   -1    0    0  501    0  0.00000000000E+00  0.00000000000E+00  0.16309576971E+03  0.16309576979E+03  0.50400000000E-02 0. -1.
         -2   -1    0    0    0  501 -0.00000000000E+00 -0.00000000000E+00 -0.98890936963E+01  0.98890940250E+01  0.25500000000E-02 0.  1.
        -24    2    1    2    0    0  0.00000000000E+00  0.00000000000E+00  0.15320667602E+03  0.17298486382E+03  0.80321090215E+02 0.  0.
         66    2    3    3    0    0  0.16376781687E+02 -0.36465422589E+02  0.84397435693E+02  0.93406922520E+02  0.19999999982E+01 0.  0.
         13    1    3    3    0    0 -0.16376781687E+02  0.36465422589E+02  0.68809240325E+02  0.79577941298E+02  0.10566000000E+00 0. -1.
         13    1    4    4    0    0  0.50580318330E+01 -0.11745941447E+02  0.25636679446E+02  0.28649630426E+02  0.10566000000E+00 0.  1.
        -13    1    4    4    0    0  0.15158444921E+01 -0.40379804124E+01  0.10096150481E+02  0.10979366508E+02  0.10566000000E+00 0. -1.
        -14    1    4    4    0    0  0.98029053615E+01 -0.20681500730E+02  0.48664605767E+02  0.53777925587E+02  0.00000000000E+00 0.  1.
<mgrwt>
<rscale>  0 0.80321090E+02</rscale>
<asrwt>0</asrwt>
<pdfrwt beam="1">  1        1 0.25091654E-01 0.80321090E+02</pdfrwt>
<pdfrwt beam="2">  1       -2 0.15213992E-02 0.80321090E+02</pdfrwt>
<totfact> 0.15865788E+05</totfact>
</mgrwt>
</event>
<event>
 8    1  0.1319619E-024  0.7369709E+02  0.7818608E-02  0.1347954E+00
          1   -1    0    0  501    0  0.00000000000E+00  0.00000000000E+00  0.21981402183E+03  0.21981402189E+03  0.50400000000E-02 0. -1.
         -2   -1    0    0    0  501 -0.00000000000E+00 -0.00000000000E+00 -0.61771095725E+01  0.61771100988E+01  0.25500000000E-02 0.  1.
        -24    2    1    2    0    0  0.00000000000E+00  0.00000000000E+00  0.21363691226E+03  0.22599113199E+03  0.73697092600E+02 0.  0.
         66    2    3    3    0    0  0.32494352854E+02  0.16497649006E+02  0.90741694167E+02  0.97806494905E+02  0.19999987983E+01 0.  0.
         13    1    3    3    0    0 -0.32494352854E+02 -0.16497649006E+02  0.12289521809E+03  0.12818463708E+03  0.10566000000E+00 0. -1.
         13    1    4    4    0    0  0.47174807917E+01  0.28944466911E+01  0.13753969452E+02  0.14826168972E+02  0.10566000000E+00 0. -1.
        -13    1    4    4    0    0  0.27649775052E+02  0.13592161467E+02  0.76393037013E+02  0.82372108033E+02  0.10566000000E+00 0.  1.
        -14    1    4    4    0    0  0.12709701022E+00  0.11040848048E-01  0.59468770228E+00  0.60821789975E+00  0.00000000000E+00 0.  1.
<mgrwt>
<rscale>  0 0.73697093E+02</rscale>
<asrwt>0</asrwt>
<pdfrwt beam="1">  1        1 0.33817548E-01 0.73697093E+02</pdfrwt>
<pdfrwt beam="2">  1       -2 0.95032443E-03 0.73697093E+02</pdfrwt>
<totfact> 0.21087006E+05</totfact>
</mgrwt>
</event>
<event>
 8    1  0.1319619E-024  0.8596880E+02  0.7818608E-02  0.1312918E+00
          1   -1    0    0  501    0  0.00000000000E+00  0.00000000000E+00  0.35836228439E+02  0.35836228794E+02  0.50400000000E-02 0. -1.
         -2   -1    0    0    0  501 -0.00000000000E+00 -0.00000000000E+00 -0.51558396701E+02  0.51558396764E+02  0.25500000000E-02 0.  1.
        -24    2    1    2    0    0  0.00000000000E+00 -0.35527136788E-14 -0.15722168262E+02  0.87394625558E+02  0.85968796674E+02 0.  0.
         66    2    3    3    0    0  0.25222647269E+02 -0.24879691407E+02 -0.32567986119E+02  0.48164869976E+02  0.20000000480E+01 0.  0.
         13    1    3    3    0    0 -0.25222647269E+02  0.24879691407E+02  0.16845817857E+02  0.39229755582E+02  0.10566000000E+00 0. -1.
         13    1    4    4    0    0  0.16376919550E+02 -0.17015991724E+02 -0.21161476247E+02  0.31710671852E+02  0.10566000000E+00 0. -1.
        -13    1    4    4    0    0  0.41822409619E+01 -0.33599425308E+01 -0.48322605588E+01  0.72209597297E+01  0.10566000000E+00 0.  1.
        -14    1    4    4    0    0  0.46634867567E+01 -0.45037571521E+01 -0.65742493130E+01  0.92332383942E+01  0.00000000000E+00 0.  1.
<mgrwt>
<rscale>  0 0.85968797E+02</rscale>
<asrwt>0</asrwt>
<pdfrwt beam="1">  1        1 0.55132660E-02 0.85968797E+02</pdfrwt>
<pdfrwt beam="2">  1       -2 0.79320610E-02 0.85968797E+02</pdfrwt>
<totfact> 0.10151261E+05</totfact>
</mgrwt>
</event>
<event>
 8    1  0.1319619E-024  0.8069094E+02  0.7818608E-02  0.1327102E+00
         -2   -1    0    0    0  501 -0.00000000000E+00  0.00000000000E+00  0.15092805451E+02  0.15092805667E+02  0.25500000000E-02 0.  1.
          1   -1    0    0  501    0  0.00000000000E+00 -0.00000000000E+00 -0.10784985705E+03  0.10784985717E+03  0.50400000000E-02 0. -1.
        -24    2    1    2    0    0  0.00000000000E+00  0.00000000000E+00 -0.92757051596E+02  0.12294266283E+03  0.80690939537E+02 0.  0.
         66    2    3    3    0    0 -0.24696220666E+01 -0.20564534346E+02  0.63014908696E+01  0.21741847097E+02  0.20000054981E+01 0.  0.
         13    1    3    3    0    0  0.24696220666E+01  0.20564534346E+02 -0.99058542466E+02  0.10120081574E+03  0.10566000000E+00 0. -1.
         13    1    4    4    0    0 -0.12321728166E+00 -0.23673213902E+01  0.31688057545E+00  0.23939445269E+01  0.10566000000E+00 0.  1.
        -13    1    4    4    0    0 -0.33223963809E+00 -0.42172074210E+01  0.19452847743E+01  0.46573080742E+01  0.10566000000E+00 0.  1.
        -14    1    4    4    0    0 -0.20141651468E+01 -0.13980005534E+02  0.40393255198E+01  0.14690594496E+02  0.00000000000E+00 0.  1.
<mgrwt>
<rscale>  0 0.80690940E+02</rscale>
<asrwt>0</asrwt>
<pdfrwt beam="1">  1        1 0.16592285E-01 0.80690940E+02</pdfrwt>
<pdfrwt beam="2">  1       -2 0.23219702E-02 0.80690940E+02</pdfrwt>
<totfact> 0.14547266E+05</totfact>
</mgrwt>
</event>
<event>
 8    1  0.1319619E-024  0.8146429E+02  0.7818608E-02  0.1324947E+00
          1   -1    0    0  501    0  0.00000000000E+00  0.00000000000E+00  0.13544562357E+02  0.13544563294E+02  0.50400000000E-02 0. -1.
         -2   -1    0    0    0  501 -0.00000000000E+00 -0.00000000000E+00 -0.12249253226E+03  0.12249253228E+03  0.25500000000E-02 0.  1.
        -24    2    1    2    0    0  0.35527136788E-14  0.00000000000E+00 -0.10894796990E+03  0.13603709558E+03  0.81464294191E+02 0.  0.
         66    2    3    3    0    0  0.26484522634E+02  0.95110468118E+01 -0.10362595531E+03  0.10739752585E+03  0.19999989491E+01 0.  0.
         13    1    3    3    0    0 -0.26484522634E+02 -0.95110468118E+01 -0.53220145935E+01  0.28639569724E+02  0.10566000000E+00 0. -1.
         13    1    4    4    0    0  0.34297351225E+01  0.14563109280E+01 -0.16085324797E+02  0.16511594787E+02  0.10566000000E+00 0. -1.
        -13    1    4    4    0    0  0.17922231587E+02  0.65293689637E+01 -0.67861205713E+02  0.70491087727E+02  0.10566000000E+00 0.  1.
         14    1    4    4    0    0  0.51325559240E+01  0.15253669201E+01 -0.19679424797E+02  0.20394843341E+02  0.00000000000E+00 0. -1.
<mgrwt>
<rscale>  0 0.81464294E+02</rscale>
<asrwt>0</asrwt>
<pdfrwt beam="1">  1        1 0.20837790E-02 0.81464294E+02</pdfrwt>
<pdfrwt beam="2">  1       -2 0.18845004E-01 0.81464294E+02</pdfrwt>
<totfact> 0.95982095E+04</totfact>
</mgrwt>
</event>
<event>
 8    1  0.1319619E-024  0.8028142E+02  0.7818608E-02  0.1328255E+00
         -2   -1    0    0    0  501 -0.00000000000E+00  0.00000000000E+00  0.21059372574E+02  0.21059372728E+02  0.25500000000E-02 0.  1.
          1   -1    0    0  501    0  0.00000000000E+00 -0.00000000000E+00 -0.76511148431E+02  0.76511148597E+02  0.50400000000E-02 0. -1.
        -24    2    1    2    0    0  0.35527136788E-14  0.35527136788E-14 -0.55451775858E+02  0.97570521325E+02  0.80281424912E+02 0.  0.
         66    2    3    3    0    0 -0.25648236011E+02  0.22339580623E+02 -0.53592816611E+02  0.63506526163E+02  0.20000000516E+01 0.  0.
         13    1    3    3    0    0  0.25648236011E+02 -0.22339580623E+02 -0.18589592472E+01  0.34063995162E+02  0.10566000000E+00 0. -1.
         13    1    4    4    0    0 -0.22516438109E+01  0.16855589027E+01 -0.50825358950E+01  0.58098488642E+01  0.10566000000E+00 0. -1.
        -13    1    4    4    0    0 -0.66264324007E+01  0.61506685823E+01 -0.15052457263E+02  0.17559270032E+02  0.10566000000E+00 0.  1.
         14    1    4    4    0    0 -0.16770159799E+02  0.14503353138E+02 -0.33457823453E+02  0.40137407267E+02  0.00000000000E+00 0. -1.
<mgrwt>
<rscale>  0 0.80281425E+02</rscale>
<asrwt>0</asrwt>
<pdfrwt beam="1">  1        1 0.11770946E-01 0.80281425E+02</pdfrwt>
<pdfrwt beam="2">  1       -2 0.32399035E-02 0.80281425E+02</pdfrwt>
<totfact> 0.13934126E+05</totfact>
</mgrwt>
</event>
<event>
 8    1  0.1319619E-024  0.7745238E+02  0.7818608E-02  0.1336441E+00
          1   -1    0    0  501    0  0.00000000000E+00  0.00000000000E+00  0.21291531954E+03  0.21291531960E+03  0.50400000000E-02 0. -1.
         -2   -1    0    0    0  501 -0.00000000000E+00 -0.00000000000E+00 -0.70437282949E+01  0.70437287564E+01  0.25500000000E-02 0.  1.
        -24    2    1    2    0    0  0.35527136788E-14  0.00000000000E+00  0.20587159125E+03  0.21995904836E+03  0.77452378091E+02 0.  0.
         66    2    3    3    0    0 -0.31761253243E+02 -0.17847781557E+02  0.65933434313E+02  0.75356076589E+02  0.20000011470E+01 0.  0.
         13    1    3    3    0    0  0.31761253243E+02  0.17847781557E+02  0.13993815693E+03  0.14460297177E+03  0.10566000000E+00 0. -1.
         13    1    4    4    0    0 -0.69702509095E+01 -0.44375959767E+01  0.14623478621E+02  0.16796843358E+02  0.10566000000E+00 0. -1.
        -13    1    4    4    0    0 -0.10252004048E+02 -0.63381915179E+01  0.21728668905E+02  0.24847987345E+02  0.10566000000E+00 0.  1.
         14    1    4    4    0    0 -0.14538998285E+02 -0.70719940627E+01  0.29581286788E+02  0.33711245886E+02  0.00000000000E+00 0. -1.
<mgrwt>
<rscale>  0 0.77452378E+02</rscale>
<asrwt>0</asrwt>
<pdfrwt beam="1">  1        1 0.32756203E-01 0.77452378E+02</pdfrwt>
<pdfrwt beam="2">  1       -2 0.10836506E-02 0.77452378E+02</pdfrwt>
<totfact> 0.18387814E+05</totfact>
</mgrwt>
</event>
<event>
 8    1  0.1319619E-024  0.8058816E+02  0.7818608E-02  0.1327391E+00
          1   -1    0    0  501    0  0.00000000000E+00  0.00000000000E+00  0.36429335266E+03  0.36429335270E+03  0.50400000000E-02 0. -1.
         -2   -1    0    0    0  501 -0.00000000000E+00 -0.00000000000E+00 -0.44568829295E+01  0.44568836590E+01  0.25500000000E-02 0.  1.
        -24    2    1    2    0    0  0.00000000000E+00  0.00000000000E+00  0.35983646973E+03  0.36875023636E+03  0.80588162052E+02 0.  0.
         66    2    3    3    0    0  0.34143102266E+02  0.18248234769E+02  0.12931056141E+03  0.13499618810E+03  0.20000011465E+01 0.  0.
         13    1    3    3    0    0 -0.34143102266E+02 -0.18248234769E+02  0.23052590833E+03  0.23375404826E+03  0.10566000000E+00 0. -1.
         13    1    4    4    0    0  0.23708469789E+02  0.12709238101E+02  0.87915705922E+02  0.91939103675E+02  0.10566000000E+00 0. -1.
        -13    1    4    4    0    0  0.79131559893E+01  0.44270090398E+01  0.30532462112E+02  0.31850570692E+02  0.10566000000E+00 0.  1.
         14    1    4    4    0    0  0.25214764872E+01  0.11119876283E+01  0.10862393374E+02  0.11206513729E+02  0.00000000000E+00 0. -1.
<mgrwt>
<rscale>  0 0.80588162E+02</rscale>
<asrwt>0</asrwt>
<pdfrwt beam="1">  1        1 0.56045146E-01 0.80588162E+02</pdfrwt>
<pdfrwt beam="2">  1       -2 0.68567417E-03 0.80588162E+02</pdfrwt>
<totfact> 0.18337997E+05</totfact>
</mgrwt>
</event>
<event>
 8    1  0.1319619E-024  0.7924392E+02  0.7818608E-02  0.1331211E+00
          1   -1    0    0  501    0  0.00000000000E+00  0.00000000000E+00  0.40226577327E+01  0.40226608901E+01  0.50400000000E-02 0. -1.
         -2   -1    0    0    0  501 -0.00000000000E+00 -0.00000000000E+00 -0.39026415076E+03  0.39026415077E+03  0.25500000000E-02 0.  1.
        -24    2    1    2    0    0  0.00000000000E+00  0.00000000000E+00 -0.38624149303E+03  0.39428681166E+03  0.79243920346E+02 0.  0.
         66    2    3    3    0    0 -0.10813915662E+02  0.31258935827E+02 -0.30155101513E+03  0.30336624164E+03  0.20000008639E+01 0.  0.
         13    1    3    3    0    0  0.10813915662E+02 -0.31258935827E+02 -0.84690477901E+02  0.90920570016E+02  0.10566000000E+00 0. -1.
         13    1    4    4    0    0 -0.20888190693E+01  0.77589129544E+01 -0.76053920933E+02  0.76477277335E+02  0.10566000000E+00 0. -1.
        -13    1    4    4    0    0 -0.10368087926E+01  0.19241564924E+01 -0.19528269325E+02  0.19650491535E+02  0.10566000000E+00 0.  1.
        -14    1    4    4    0    0 -0.76882877996E+01  0.21575866380E+02 -0.20596882487E+03  0.20723847277E+03  0.00000000000E+00 0.  1.
<mgrwt>
<rscale>  0 0.79243920E+02</rscale>
<asrwt>0</asrwt>
<pdfrwt beam="1">  1        1 0.61887097E-03 0.79243920E+02</pdfrwt>
<pdfrwt beam="2">  1       -2 0.60040609E-01 0.79243920E+02</pdfrwt>
<totfact> 0.61549801E+04</totfact>
</mgrwt>
</event>
<event>
 8    1  0.1319619E-024  0.7756282E+02  0.7818608E-02  0.1336114E+00
          1   -1    0    0  501    0  0.00000000000E+00  0.00000000000E+00  0.34933079677E+03  0.34933079680E+03  0.50400000000E-02 0. -1.
         -2   -1    0    0    0  501 -0.00000000000E+00 -0.00000000000E+00 -0.43053675644E+01  0.43053683196E+01  0.25500000000E-02 0.  1.
        -24    2    1    2    0    0  0.17763568394E-14  0.00000000000E+00  0.34502542920E+03  0.35363616512E+03  0.77562816391E+02 0.  0.
         66    2    3    3    0    0  0.14337468398E+02  0.33451001183E+02  0.23336413520E+03  0.23619346325E+03  0.20000013791E+01 0.  0.
         13    1    3    3    0    0 -0.14337468398E+02 -0.33451001183E+02  0.11166129400E+03  0.11744270187E+03  0.10566000000E+00 0. -1.
         13    1    4    4    0    0  0.63458360557E+00  0.21676260670E+01  0.13812069579E+02  0.13995918305E+02  0.10566000000E+00 0. -1.
        -13    1    4    4    0    0  0.39425575124E+01  0.75598419926E+01  0.56546419384E+02  0.57185694714E+02  0.10566000000E+00 0.  1.
        -14    1    4    4    0    0  0.97603272801E+01  0.23723533123E+02  0.16300564624E+03  0.16501185023E+03  0.00000000000E+00 0.  1.
<mgrwt>
<rscale>  0 0.77562816E+02</rscale>
<asrwt>0</asrwt>
<pdfrwt beam="1">  1        1 0.53743187E-01 0.77562816E+02</pdfrwt>
<pdfrwt beam="2">  1       -2 0.66236446E-03 0.77562816E+02</pdfrwt>
<totfact> 0.20127954E+05</totfact>
</mgrwt>
</event>
<event>
 8    1  0.1319619E-024  0.8066107E+02  0.7818608E-02  0.1327186E+00
          1   -1    0    0  501    0  0.00000000000E+00  0.00000000000E+00  0.65964460191E+02  0.65964460384E+02  0.50400000000E-02 0. -1.
         -2   -1    0    0    0  501 -0.00000000000E+00 -0.00000000000E+00 -0.24658005828E+02  0.24658005960E+02  0.25500000000E-02 0.  1.
        -24    2    1    2    0    0 -0.11102230246E-15 -0.71054273576E-14  0.41306454363E+02  0.90622466344E+02  0.80661070128E+02 0.  0.
         66    2    3    3    0    0 -0.62496424488E+00 -0.38218475349E+02  0.62998535288E+01  0.38790857221E+02  0.20000027723E+01 0.  0.
         13    1    3    3    0    0  0.62496424488E+00  0.38218475349E+02  0.35006600834E+02  0.51831609124E+02  0.10566000000E+00 0. -1.
         13    1    4    4    0    0 -0.39802011960E+00 -0.25862298082E+02  0.36498281713E+01  0.26121816395E+02  0.10566000000E+00 0.  1.
        -13    1    4    4    0    0  0.29054251078E+00 -0.71898186272E+01  0.15129815306E+01  0.73537870509E+01  0.10566000000E+00 0. -1.
        -14    1    4    4    0    0 -0.51748663606E+00 -0.51663586405E+01  0.11370438269E+01  0.53152537743E+01  0.00000000000E+00 0.  1.
<mgrwt>
<rscale>  0 0.80661070E+02</rscale>
<asrwt>0</asrwt>
<pdfrwt beam="1">  1        1 0.10148378E-01 0.80661070E+02</pdfrwt>
<pdfrwt beam="2">  1       -2 0.37935394E-02 0.80661070E+02</pdfrwt>
<totfact> 0.13434165E+05</totfact>
</mgrwt>
</event>
<event>
 8    1  0.1319619E-024  0.7990179E+02  0.7818608E-02  0.1329330E+00
         -2   -1    0    0    0  501 -0.00000000000E+00  0.00000000000E+00  0.12349163778E+02  0.12349164041E+02  0.25500000000E-02 0.  1.
          1   -1    0    0  501    0  0.00000000000E+00 -0.00000000000E+00 -0.12924549524E+03  0.12924549534E+03  0.50400000000E-02 0. -1.
        -24    2    1    2    0    0  0.00000000000E+00  0.00000000000E+00 -0.11689633146E+03  0.14159465938E+03  0.79901785058E+02 0.  0.
         66    2    3    3    0    0 -0.26736470291E+02 -0.33516163575E+01 -0.62751964458E+01  0.27738966275E+02  0.19999959422E+01 0.  0.
         13    1    3    3    0    0  0.26736470291E+02  0.33516163575E+01 -0.11062113502E+03  0.11385569311E+03  0.10566000000E+00 0. -1.
         13    1    4    4    0    0 -0.88398053280E+01 -0.10667427654E+01 -0.14693153796E+01  0.90249736889E+01  0.10566000000E+00 0. -1.
        -13    1    4    4    0    0 -0.28076183813E+01 -0.29669571473E+00 -0.29767067888E+00  0.28408662747E+01  0.10566000000E+00 0.  1.
        -14    1    4    4    0    0 -0.15089046581E+02 -0.19881778774E+01 -0.45082103873E+01  0.15873126312E+02  0.00000000000E+00 0.  1.
<mgrwt>
<rscale>  0 0.79901785E+02</rscale>
<asrwt>0</asrwt>
<pdfrwt beam="1">  1        1 0.19883921E-01 0.79901785E+02</pdfrwt>
<pdfrwt beam="2">  1       -2 0.18998715E-02 0.79901785E+02</pdfrwt>
<totfact> 0.15417789E+05</totfact>
</mgrwt>
</event>
<event>
 8    1  0.1319619E-024  0.8074230E+02  0.7818608E-02  0.1326958E+00
         -2   -1    0    0    0  501 -0.00000000000E+00  0.00000000000E+00  0.97165248543E+01  0.97165251889E+01  0.25500000000E-02 0.  1.
          1   -1    0    0  501    0  0.00000000000E+00 -0.00000000000E+00 -0.16773794018E+03  0.16773794025E+03  0.50400000000E-02 0. -1.
        -24    2    1    2    0    0  0.00000000000E+00  0.00000000000E+00 -0.15802141532E+03  0.17745446544E+03  0.80742303686E+02 0.  0.
         66    2    3    3    0    0  0.34273407934E+02 -0.16030001678E+02 -0.48274521439E+02  0.61368207313E+02  0.20000008532E+01 0.  0.
         13    1    3    3    0    0 -0.34273407934E+02  0.16030001678E+02 -0.10974689388E+03  0.11608625813E+03  0.10566000000E+00 0. -1.
         13    1    4    4    0    0  0.17439666481E+02 -0.86981600393E+01 -0.23793804654E+02  0.30756401919E+02  0.10566000000E+00 0.  1.
        -13    1    4    4    0    0  0.16485556614E+02 -0.72119101838E+01 -0.24150646064E+02  0.30117272366E+02  0.10566000000E+00 0. -1.
         14    1    4    4    0    0  0.34818483797E+00 -0.11993145479E+00 -0.33007072123E+00  0.49453302847E+00  0.00000000000E+00 0. -1.
<mgrwt>
<rscale>  0 0.80742304E+02</rscale>
<asrwt>0</asrwt>
<pdfrwt beam="1">  1        1 0.25805835E-01 0.80742304E+02</pdfrwt>
<pdfrwt beam="2">  1       -2 0.14948501E-02 0.80742304E+02</pdfrwt>
<totfact> 0.15728856E+05</totfact>
</mgrwt>
</event>
<event>
 8    1  0.1319619E-024  0.7884369E+02  0.7818608E-02  0.1332365E+00
         -2   -1    0    0    0  501 -0.00000000000E+00  0.00000000000E+00  0.44791050487E+01  0.44791057746E+01  0.25500000000E-02 0.  1.
          1   -1    0    0  501    0  0.00000000000E+00 -0.00000000000E+00 -0.34696251245E+03  0.34696251249E+03  0.50400000000E-02 0. -1.
        -24    2    1    2    0    0  0.00000000000E+00  0.00000000000E+00 -0.34248340740E+03  0.35144161826E+03  0.78843685232E+02 0.  0.
         66    2    3    3    0    0  0.35414048297E+02  0.12466175165E+02 -0.11813846888E+03  0.12397684529E+03  0.19999994934E+01 0.  0.
         13    1    3    3    0    0 -0.35414048297E+02 -0.12466175165E+02 -0.22434493852E+03  0.22746477298E+03  0.10566000000E+00 0. -1.
         13    1    4    4    0    0  0.10774578431E+02  0.36648021911E+01 -0.34046722843E+02  0.35898646435E+02  0.10566000000E+00 0. -1.
        -13    1    4    4    0    0  0.14464894334E+02  0.55119042131E+01 -0.47818977129E+02  0.50262112907E+02  0.10566000000E+00 0.  1.
         14    1    4    4    0    0  0.10174575532E+02  0.32894687610E+01 -0.36272768906E+02  0.37816085944E+02  0.00000000000E+00 0. -1.
<mgrwt>
<rscale>  0 0.78843685E+02</rscale>
<asrwt>0</asrwt>
<pdfrwt beam="1">  1        1 0.53378827E-01 0.78843685E+02</pdfrwt>
<pdfrwt beam="2">  1       -2 0.68909342E-03 0.78843685E+02</pdfrwt>
<totfact> 0.19257636E+05</totfact>
</mgrwt>
</event>
<event>
 8    1  0.1319619E-024  0.7879410E+02  0.7818608E-02  0.1332509E+00
         -2   -1    0    0    0  501 -0.00000000000E+00  0.00000000000E+00  0.18983360306E+03  0.18983360308E+03  0.25500000000E-02 0.  1.
          1   -1    0    0  501    0  0.00000000000E+00 -0.00000000000E+00 -0.81762526584E+01  0.81762542118E+01  0.50400000000E-02 0. -1.
        -24    2    1    2    0    0  0.00000000000E+00  0.00000000000E+00  0.18165735040E+03  0.19800985729E+03  0.78794102753E+02 0.  0.
         66    2    3    3    0    0  0.14915391969E+02  0.15144060641E+02  0.17416992459E+03  0.17547357100E+03  0.19999996099E+01 0.  0.
         13    1    3    3    0    0 -0.14915391969E+02 -0.15144060641E+02  0.74874258115E+01  0.22536286286E+02  0.10566000000E+00 0. -1.
         13    1    4    4    0    0  0.82872954222E+01  0.73612619571E+01  0.92404640955E+02  0.93067160035E+02  0.10566000000E+00 0. -1.
        -13    1    4    4    0    0  0.61260640516E+01  0.68625061610E+01  0.74508014307E+02  0.75073817084E+02  0.10566000000E+00 0.  1.
         14    1    4    4    0    0  0.50203249485E+00  0.92029252247E+00  0.72572693294E+01  0.73325938843E+01  0.00000000000E+00 0. -1.
<mgrwt>
<rscale>  0 0.78794103E+02</rscale>
<asrwt>0</asrwt>
<pdfrwt beam="1">  1        1 0.12578852E-02 0.78794103E+02</pdfrwt>
<pdfrwt beam="2">  1       -2 0.29205168E-01 0.78794103E+02</pdfrwt>
<totfact> 0.90329124E+04</totfact>
</mgrwt>
</event>
<event>
 8    1  0.1319619E-024  0.7908360E+02  0.7818608E-02  0.1331672E+00
          1   -1    0    0  501    0  0.00000000000E+00  0.00000000000E+00  0.16320717866E+03  0.16320717874E+03  0.50400000000E-02 0. -1.
         -2   -1    0    0    0  501 -0.00000000000E+00 -0.00000000000E+00 -0.95801780389E+01  0.95801783782E+01  0.25500000000E-02 0.  1.
        -24    2    1    2    0    0  0.35527136788E-14 -0.35527136788E-14  0.15362700062E+03  0.17278735712E+03  0.79083597916E+02 0.  0.
         66    2    3    3    0    0  0.18396393209E+02 -0.19882365984E+02  0.13999983635E+02  0.30557083276E+02  0.20000090785E+01 0.  0.
         13    1    3    3    0    0 -0.18396393209E+02  0.19882365984E+02  0.13962701699E+03  0.14223027384E+03  0.10566000000E+00 0. -1.
         13    1    4    4    0    0  0.49017744983E+01 -0.49189434196E+01  0.37986347766E+01  0.79160714877E+01  0.10566000000E+00 0. -1.
        -13    1    4    4    0    0  0.96610038072E+01 -0.11685533777E+02  0.74093745531E+01  0.16875920405E+02  0.10566000000E+00 0.  1.
        -14    1    4    4    0    0  0.38336149037E+01 -0.32778887875E+01  0.27919743052E+01  0.57650913829E+01  0.00000000000E+00 0.  1.
<mgrwt>
<rscale>  0 0.79083598E+02</rscale>
<asrwt>0</asrwt>
<pdfrwt beam="1">  1        1 0.25108797E-01 0.79083598E+02</pdfrwt>
<pdfrwt beam="2">  1       -2 0.14738736E-02 0.79083598E+02</pdfrwt>
<totfact> 0.16538351E+05</totfact>
</mgrwt>
</event>
<event>
 8    1  0.1319619E-024  0.8204309E+02  0.7818608E-02  0.1323351E+00
          1   -1    0    0  501    0  0.00000000000E+00  0.00000000000E+00  0.14730157714E+03  0.14730157723E+03  0.50400000000E-02 0. -1.
         -2   -1    0    0    0  501 -0.00000000000E+00 -0.00000000000E+00 -0.11423958634E+02  0.11423958918E+02  0.25500000000E-02 0.  1.
        -24    2    1    2    0    0  0.00000000000E+00  0.00000000000E+00  0.13587761851E+03  0.15872553615E+03  0.82043089980E+02 0.  0.
         66    2    3    3    0    0 -0.35281858515E+02  0.10076333323E+02  0.10335851352E+03  0.10969651019E+03  0.19999989606E+01 0.  0.
         13    1    3    3    0    0  0.35281858515E+02 -0.10076333323E+02  0.32519104987E+02  0.49029025961E+02  0.10566000000E+00 0. -1.
         13    1    4    4    0    0 -0.68824821497E+01  0.24266092852E+01  0.19673905689E+02  0.20984058766E+02  0.10566000000E+00 0. -1.
        -13    1    4    4    0    0 -0.16171426784E+02  0.40241071868E+01  0.45690517432E+02  0.48634792383E+02  0.10566000000E+00 0.  1.
        -14    1    4    4    0    0 -0.12227949582E+02  0.36256168513E+01  0.37994090401E+02  0.40077659037E+02  0.00000000000E+00 0.  1.
<mgrwt>
<rscale>  0 0.82043090E+02</rscale>
<asrwt>0</asrwt>
<pdfrwt beam="1">  1        1 0.22661782E-01 0.82043090E+02</pdfrwt>
<pdfrwt beam="2">  1       -2 0.17575321E-02 0.82043090E+02</pdfrwt>
<totfact> 0.14708419E+05</totfact>
</mgrwt>
</event>
<event>
 8    1  0.1319619E-024  0.7983152E+02  0.7818608E-02  0.1329530E+00
         -2   -1    0    0    0  501 -0.00000000000E+00  0.00000000000E+00  0.84789179576E+03  0.84789179577E+03  0.25500000000E-02 0.  1.
          1   -1    0    0  501    0  0.00000000000E+00 -0.00000000000E+00 -0.18790902289E+01  0.18790969879E+01  0.50400000000E-02 0. -1.
        -24    2    1    2    0    0  0.00000000000E+00  0.00000000000E+00  0.84601270553E+03  0.84977089275E+03  0.79831524150E+02 0.  0.
         66    2    3    3    0    0  0.31104443034E+02 -0.61773244914E+01  0.68086431851E+03  0.68160535938E+03  0.20000004313E+01 0.  0.
         13    1    3    3    0    0 -0.31104443034E+02  0.61773244914E+01  0.16514838702E+03  0.16816553337E+03  0.10566000000E+00 0. -1.
         13    1    4    4    0    0  0.86424393486E+01 -0.99467101120E+00  0.17977891851E+03  0.17998931033E+03  0.10566000000E+00 0. -1.
        -13    1    4    4    0    0  0.34859482681E+01 -0.10901368155E+01  0.78057013286E+02  0.78142489855E+02  0.10566000000E+00 0.  1.
         14    1    4    4    0    0  0.18976055418E+02 -0.40925166647E+01  0.42302838672E+03  0.42347355920E+03  0.00000000000E+00 0. -1.
<mgrwt>
<rscale>  0 0.79831524E+02</rscale>
<asrwt>0</asrwt>
<pdfrwt beam="1">  1        1 0.28909116E-03 0.79831524E+02</pdfrwt>
<pdfrwt beam="2">  1       -2 0.13044497E+00 0.79831524E+02</pdfrwt>
<totfact> 0.31462066E+04</totfact>
</mgrwt>
</event>
<event>
 8    1  0.1319619E-024  0.7959535E+02  0.7818608E-02  0.1330204E+00
         -2   -1    0    0    0  501 -0.00000000000E+00  0.00000000000E+00  0.18513834571E+02  0.18513834747E+02  0.25500000000E-02 0.  1.
          1   -1    0    0  501    0  0.00000000000E+00 -0.00000000000E+00 -0.85549802612E+02  0.85549802761E+02  0.50400000000E-02 0. -1.
        -24    2    1    2    0    0  0.35527136788E-14  0.35527136788E-14 -0.67035968041E+02  0.10406363751E+03  0.79595349362E+02 0.  0.
         66    2    3    3    0    0 -0.26787315450E+02 -0.20860963291E+02 -0.64561617994E+01  0.34618233435E+02  0.20000006179E+01 0.  0.
         13    1    3    3    0    0  0.26787315450E+02  0.20860963291E+02 -0.60579806242E+02  0.69445404073E+02  0.10566000000E+00 0. -1.
         13    1    4    4    0    0 -0.65068871848E+01 -0.47464318656E+01 -0.16116820467E+01  0.82144311639E+01  0.10566000000E+00 0.  1.
        -13    1    4    4    0    0 -0.12195679541E+02 -0.86538880571E+01 -0.28062012516E+01  0.15215462775E+02  0.10566000000E+00 0.  1.
        -14    1    4    4    0    0 -0.80847487248E+01 -0.74606433687E+01 -0.20382785011E+01  0.11188339495E+02  0.00000000000E+00 0.  1.
<mgrwt>
<rscale>  0 0.79595349E+02</rscale>
<asrwt>0</asrwt>
<pdfrwt beam="1">  1        1 0.13161508E-01 0.79595349E+02</pdfrwt>
<pdfrwt beam="2">  1       -2 0.28482823E-02 0.79595349E+02</pdfrwt>
<totfact> 0.14522890E+05</totfact>
</mgrwt>
</event>
<event>
 8    1  0.1319619E-024  0.8068509E+02  0.7818608E-02  0.1327118E+00
         -2   -1    0    0    0  501 -0.00000000000E+00  0.00000000000E+00  0.37555819561E+02  0.37555819647E+02  0.25500000000E-02 0.  1.
          1   -1    0    0  501    0  0.00000000000E+00 -0.00000000000E+00 -0.43336047848E+02  0.43336048142E+02  0.50400000000E-02 0. -1.
        -24    2    1    2    0    0 -0.17763568394E-14  0.17763568394E-14 -0.57802282877E+01  0.80891867789E+02  0.80685086821E+02 0.  0.
         66    2    3    3    0    0 -0.12670214392E+02 -0.91851716206E+01  0.34359956752E+02  0.37808839466E+02  0.20000008319E+01 0.  0.
         13    1    3    3    0    0  0.12670214392E+02  0.91851716206E+01 -0.40140185039E+02  0.43083028323E+02  0.10566000000E+00 0. -1.
         13    1    4    4    0    0 -0.40087436383E+01 -0.21629262942E+01  0.91775076867E+01  0.10246271863E+02  0.10566000000E+00 0.  1.
        -13    1    4    4    0    0 -0.72485487756E+01 -0.53326993334E+01  0.19996547198E+02  0.21928342514E+02  0.10566000000E+00 0. -1.
         14    1    4    4    0    0 -0.14129219782E+01 -0.16895459931E+01  0.51859018675E+01  0.56342250894E+01  0.00000000000E+00 0. -1.
<mgrwt>
<rscale>  0 0.80685087E+02</rscale>
<asrwt>0</asrwt>
<pdfrwt beam="1">  1        1 0.66670843E-02 0.80685087E+02</pdfrwt>
<pdfrwt beam="2">  1       -2 0.57778185E-02 0.80685087E+02</pdfrwt>
<totfact> 0.12558303E+05</totfact>
</mgrwt>
</event>
<event>
 8    1  0.1319619E-024  0.8211921E+02  0.7818608E-02  0.1323143E+00
         -2   -1    0    0    0  501 -0.00000000000E+00  0.00000000000E+00  0.17399240951E+02  0.17399241138E+02  0.25500000000E-02 0.  1.
          1   -1    0    0  501    0  0.00000000000E+00 -0.00000000000E+00 -0.96894520714E+02  0.96894520845E+02  0.50400000000E-02 0. -1.
        -24    2    1    2    0    0  0.00000000000E+00 -0.17763568394E-14 -0.79495279763E+02  0.11429376198E+03  0.82119209224E+02 0.  0.
         66    2    3    3    0    0  0.23432941997E+02  0.13070460800E+02  0.34408345167E+01  0.27125247415E+02  0.19999972387E+01 0.  0.
         13    1    3    3    0    0 -0.23432941997E+02 -0.13070460800E+02 -0.82936114280E+02  0.87168514569E+02  0.10566000000E+00 0. -1.
         13    1    4    4    0    0  0.19355724786E+01  0.10913829509E+01  0.34377775113E+00  0.22509786191E+01  0.10566000000E+00 0. -1.
        -13    1    4    4    0    0  0.39828009341E+01  0.22259145484E+01 -0.14821678810E+00  0.45662381792E+01  0.10566000000E+00 0.  1.
        -14    1    4    4    0    0  0.17514568585E+02  0.97531633007E+01  0.32452735537E+01  0.20308030616E+02  0.00000000000E+00 0.  1.
<mgrwt>
<rscale>  0 0.82119209E+02</rscale>
<asrwt>0</asrwt>
<pdfrwt beam="1">  1        1 0.14906849E-01 0.82119209E+02</pdfrwt>
<pdfrwt beam="2">  1       -2 0.26768064E-02 0.82119209E+02</pdfrwt>
<totfact> 0.13621414E+05</totfact>
</mgrwt>
</event>
<event>
 8    1  0.1319619E-024  0.7821318E+02  0.7818608E-02  0.1334200E+00
          1   -1    0    0  501    0  0.00000000000E+00  0.00000000000E+00  0.40061928530E+02  0.40061928847E+02  0.50400000000E-02 0. -1.
         -2   -1    0    0    0  501 -0.00000000000E+00 -0.00000000000E+00 -0.38174036207E+02  0.38174036292E+02  0.25500000000E-02 0.  1.
        -24    2    1    2    0    0  0.35527136788E-14  0.35527136788E-14  0.18878923227E+01  0.78235965139E+02  0.78213183696E+02 0.  0.
         66    2    3    3    0    0 -0.24034608207E+02 -0.16826309422E+02 -0.24880268667E+02  0.38520317251E+02  0.19999979317E+01 0.  0.
         13    1    3    3    0    0  0.24034608207E+02  0.16826309422E+02  0.26768160990E+02  0.39715647889E+02  0.10566000000E+00 0. -1.
         13    1    4    4    0    0 -0.58872411663E+00 -0.12564267169E+00 -0.45985357656E+00  0.76486045389E+00  0.10566000000E+00 0. -1.
        -13    1    4    4    0    0 -0.93602944787E+01 -0.65286233738E+01 -0.92697686020E+01  0.14702986426E+02  0.10566000000E+00 0.  1.
         14    1    4    4    0    0 -0.14085589611E+02 -0.10172043376E+02 -0.15150646489E+02  0.23052470370E+02  0.00000000000E+00 0. -1.
<mgrwt>
<rscale>  0 0.78213184E+02</rscale>
<asrwt>0</asrwt>
<pdfrwt beam="1">  1        1 0.61633736E-02 0.78213184E+02</pdfrwt>
<pdfrwt beam="2">  1       -2 0.58729287E-02 0.78213184E+02</pdfrwt>
<totfact> 0.13533342E+05</totfact>
</mgrwt>
</event>
<event>
 8    1  0.1319619E-024  0.7973730E+02  0.7818608E-02  0.1329799E+00
          1   -1    0    0  501    0  0.00000000000E+00  0.00000000000E+00  0.76990386296E+02  0.76990386461E+02  0.50400000000E-02 0. -1.
         -2   -1    0    0    0  501 -0.00000000000E+00 -0.00000000000E+00 -0.20645555516E+02  0.20645555674E+02  0.25500000000E-02 0.  1.
        -24    2    1    2    0    0 -0.17763568394E-14  0.35527136788E-14  0.56344830780E+02  0.97635942135E+02  0.79737301440E+02 0.  0.
         66    2    3    3    0    0  0.15452881816E+02 -0.15705953405E+02 -0.12458551946E+02  0.25390629710E+02  0.20000079205E+01 0.  0.
         13    1    3    3    0    0 -0.15452881816E+02  0.15705953405E+02  0.68803382726E+02  0.72245312425E+02  0.10566000000E+00 0. -1.
         13    1    4    4    0    0  0.57178588598E+00 -0.38429024869E+00 -0.56241414087E+00  0.89559577717E+00  0.10566000000E+00 0. -1.
        -13    1    4    4    0    0  0.69721631652E+01 -0.61351236949E+01 -0.49723831984E+01  0.10535015931E+02  0.10566000000E+00 0.  1.
         14    1    4    4    0    0  0.79089327650E+01 -0.91865394613E+01 -0.69237546071E+01  0.13960018002E+02  0.00000000000E+00 0. -1.
<mgrwt>
<rscale>  0 0.79737301E+02</rscale>
<asrwt>0</asrwt>
<pdfrwt beam="1">  1        1 0.11844675E-01 0.79737301E+02</pdfrwt>
<pdfrwt beam="2">  1       -2 0.31762393E-02 0.79737301E+02</pdfrwt>
<totfact> 0.14209268E+05</totfact>
</mgrwt>
</event>
<event>
 8    1  0.1319619E-024  0.7896619E+02  0.7818608E-02  0.1332011E+00
          1   -1    0    0  501    0  0.00000000000E+00  0.00000000000E+00  0.25506748217E+03  0.25506748222E+03  0.50400000000E-02 0. -1.
         -2   -1    0    0    0  501 -0.00000000000E+00 -0.00000000000E+00 -0.61117736279E+01  0.61117741599E+01  0.25500000000E-02 0.  1.
        -24    2    1    2    0    0  0.00000000000E+00  0.00000000000E+00  0.24895570854E+03  0.26117925638E+03  0.78966189900E+02 0.  0.
         66    2    3    3    0    0  0.38618618140E+02  0.29604266917E+01  0.99641788356E+02  0.10692356048E+03  0.20000012264E+01 0.  0.
         13    1    3    3    0    0 -0.38618618140E+02 -0.29604266917E+01  0.14931392019E+03  0.15425569590E+03  0.10566000000E+00 0. -1.
         13    1    4    4    0    0  0.29945156602E+02  0.16883215297E+01  0.77434881769E+02  0.83040561848E+02  0.10566000000E+00 0. -1.
        -13    1    4    4    0    0  0.70161898573E+01  0.79415119541E+00  0.17610499390E+02  0.18973625089E+02  0.10566000000E+00 0.  1.
         14    1    4    4    0    0  0.16572716810E+01  0.47795396662E+00  0.45964071975E+01  0.49093735389E+01  0.00000000000E+00 0. -1.
<mgrwt>
<rscale>  0 0.78966190E+02</rscale>
<asrwt>0</asrwt>
<pdfrwt beam="1">  1        1 0.39241148E-01 0.78966190E+02</pdfrwt>
<pdfrwt beam="2">  1       -2 0.94027298E-03 0.78966190E+02</pdfrwt>
<totfact> 0.18094481E+05</totfact>
</mgrwt>
</event>
<event>
 8    1  0.1319619E-024  0.8149252E+02  0.7818608E-02  0.1324868E+00
         -2   -1    0    0    0  501 -0.00000000000E+00  0.00000000000E+00  0.28385203782E+02  0.28385203896E+02  0.25500000000E-02 0.  1.
          1   -1    0    0  501    0  0.00000000000E+00 -0.00000000000E+00 -0.58490254840E+02  0.58490255057E+02  0.50400000000E-02 0. -1.
        -24    2    1    2    0    0  0.00000000000E+00  0.00000000000E+00 -0.30105051058E+02  0.86875458953E+02  0.81492522781E+02 0.  0.
         66    2    3    3    0    0  0.34997186639E+02  0.63570667571E+01  0.60731440686E+01  0.36139984805E+02  0.20000130983E+01 0.  0.
         13    1    3    3    0    0 -0.34997186639E+02 -0.63570667571E+01 -0.36178195127E+02  0.50735474149E+02  0.10566000000E+00 0. -1.
         13    1    4    4    0    0  0.98622813620E+01  0.19440979185E+01  0.19031726727E+01  0.10231194487E+02  0.10566000000E+00 0. -1.
        -13    1    4    4    0    0  0.12911169979E+02  0.30747627078E+01  0.23084955978E+01  0.13471926065E+02  0.10566000000E+00 0.  1.
         14    1    4    4    0    0  0.12223735298E+02  0.13382061308E+01  0.18614757981E+01  0.12436864253E+02  0.00000000000E+00 0. -1.
<mgrwt>
<rscale>  0 0.81492523E+02</rscale>
<asrwt>0</asrwt>
<pdfrwt beam="1">  1        1 0.89985008E-02 0.81492523E+02</pdfrwt>
<pdfrwt beam="2">  1       -2 0.43669544E-02 0.81492523E+02</pdfrwt>
<totfact> 0.12812899E+05</totfact>
</mgrwt>
</event>
<event>
 8    1  0.1319619E-024  0.7042987E+02  0.7818608E-02  0.1358637E+00
          1   -1    0    0  501    0  0.00000000000E+00  0.00000000000E+00  0.14649911301E+03  0.14649911309E+03  0.50400000000E-02 0. -1.
         -2   -1    0    0    0  501 -0.00000000000E+00 -0.00000000000E+00 -0.84648412905E+01  0.84648416746E+01  0.25500000000E-02 0.  1.
        -24    2    1    2    0    0 -0.17763568394E-14  0.35527136788E-14  0.13803427172E+03  0.15496395477E+03  0.70429873698E+02 0.  0.
         66    2    3    3    0    0  0.83545711403E+01 -0.20353874887E+02  0.86552769368E+01  0.23727471517E+02  0.20000009746E+01 0.  0.
         13    1    3    3    0    0 -0.83545711403E+01  0.20353874887E+02  0.12937899478E+03  0.13123648325E+03  0.10566000000E+00 0. -1.
         13    1    4    4    0    0  0.53231641169E+01 -0.13570615310E+02  0.55725274920E+01  0.15606469902E+02  0.10566000000E+00 0. -1.
        -13    1    4    4    0    0  0.21037975115E+01 -0.41492852943E+01  0.13945348968E+01  0.48578209144E+01  0.10566000000E+00 0.  1.
         14    1    4    4    0    0  0.92760951187E+00 -0.26339742826E+01  0.16882145480E+01  0.32631807011E+01  0.00000000000E+00 0. -1.
<mgrwt>
<rscale>  0 0.70429874E+02</rscale>
<asrwt>0</asrwt>
<pdfrwt beam="1">  1        1 0.22538326E-01 0.70429874E+02</pdfrwt>
<pdfrwt beam="2">  1       -2 0.13022832E-02 0.70429874E+02</pdfrwt>
<totfact> 0.22036169E+05</totfact>
</mgrwt>
</event>
<event>
 8    1  0.1319619E-024  0.7994897E+02  0.7818608E-02  0.1329196E+00
         -2   -1    0    0    0  501 -0.00000000000E+00  0.00000000000E+00  0.15297053649E+02  0.15297053862E+02  0.25500000000E-02 0.  1.
          1   -1    0    0  501    0  0.00000000000E+00 -0.00000000000E+00 -0.10446191461E+03  0.10446191473E+03  0.50400000000E-02 0. -1.
        -24    2    1    2    0    0  0.00000000000E+00 -0.35527136788E-14 -0.89164860957E+02  0.11975896859E+03  0.79948972028E+02 0.  0.
         66    2    3    3    0    0 -0.91511077447E+01 -0.18157498269E+02  0.69006160018E+01  0.21565157463E+02  0.19999997140E+01 0.  0.
         13    1    3    3    0    0  0.91511077447E+01  0.18157498269E+02 -0.96065476959E+02  0.98193811127E+02  0.10566000000E+00 0. -1.
         13    1    4    4    0    0 -0.41364112037E+01 -0.91794277751E+01  0.38478350247E+01  0.10779090423E+02  0.10566000000E+00 0. -1.
        -13    1    4    4    0    0 -0.46455506227E+01 -0.77575666472E+01  0.29273008166E+01  0.95048006281E+01  0.10566000000E+00 0.  1.
         14    1    4    4    0    0 -0.36914591832E+00 -0.12205038464E+01  0.12548016049E+00  0.12812664121E+01  0.00000000000E+00 0. -1.
<mgrwt>
<rscale>  0 0.79948972E+02</rscale>
<asrwt>0</asrwt>
<pdfrwt beam="1">  1        1 0.16071063E-01 0.79948972E+02</pdfrwt>
<pdfrwt beam="2">  1       -2 0.23533930E-02 0.79948972E+02</pdfrwt>
<totfact> 0.14833475E+05</totfact>
</mgrwt>
</event>
<event>
 8    1  0.1319619E-024  0.7971326E+02  0.7818608E-02  0.1329867E+00
          1   -1    0    0  501    0  0.00000000000E+00  0.00000000000E+00  0.11348639583E+02  0.11348640702E+02  0.50400000000E-02 0. -1.
         -2   -1    0    0    0  501 -0.00000000000E+00 -0.00000000000E+00 -0.13997720551E+03  0.13997720553E+03  0.25500000000E-02 0.  1.
        -24    2    1    2    0    0  0.00000000000E+00  0.00000000000E+00 -0.12862856593E+03  0.15132584623E+03  0.79713259664E+02 0.  0.
         66    2    3    3    0    0 -0.33765112599E+02 -0.81024336752E+01 -0.10140044421E+03  0.10719973111E+03  0.20000005439E+01 0.  0.
         13    1    3    3    0    0  0.33765112599E+02  0.81024336752E+01 -0.27228121713E+02  0.44126115129E+02  0.10566000000E+00 0. -1.
         13    1    4    4    0    0 -0.15532341255E+02 -0.41107985615E+01 -0.44651707798E+02  0.47454593697E+02  0.10566000000E+00 0. -1.
        -13    1    4    4    0    0 -0.17266161908E+02 -0.39552753153E+01 -0.54007671087E+02  0.56838404711E+02  0.10566000000E+00 0.  1.
         14    1    4    4    0    0 -0.96660943657E+00 -0.36359798363E-01 -0.27410653282E+01  0.29067326969E+01  0.00000000000E+00 0. -1.
<mgrwt>
<rscale>  0 0.79713260E+02</rscale>
<asrwt>0</asrwt>
<pdfrwt beam="1">  1        1 0.17459447E-02 0.79713260E+02</pdfrwt>
<pdfrwt beam="2">  1       -2 0.21534953E-01 0.79713260E+02</pdfrwt>
<totfact> 0.97526012E+04</totfact>
</mgrwt>
</event>
<event>
 8    1  0.1319619E-024  0.8203530E+02  0.7818608E-02  0.1323373E+00
         -2   -1    0    0    0  501 -0.00000000000E+00  0.00000000000E+00  0.17699498222E+02  0.17699498405E+02  0.25500000000E-02 0.  1.
          1   -1    0    0  501    0  0.00000000000E+00 -0.00000000000E+00 -0.95056240003E+02  0.95056240136E+02  0.50400000000E-02 0. -1.
        -24    2    1    2    0    0  0.00000000000E+00  0.00000000000E+00 -0.77356741781E+02  0.11275573854E+03  0.82035303834E+02 0.  0.
         66    2    3    3    0    0 -0.34362232630E+02  0.17771519135E+02 -0.57338169247E+02  0.69197222336E+02  0.20000006774E+01 0.  0.
         13    1    3    3    0    0  0.34362232630E+02 -0.17771519135E+02 -0.20018572534E+02  0.43558516206E+02  0.10566000000E+00 0. -1.
         13    1    4    4    0    0 -0.61648837005E+01  0.38776609633E+01 -0.11004588327E+02  0.13196748610E+02  0.10566000000E+00 0. -1.
        -13    1    4    4    0    0 -0.23775305724E+02  0.11599359559E+02 -0.39634082934E+02  0.47651673617E+02  0.10566000000E+00 0.  1.
         14    1    4    4    0    0 -0.44220432060E+01  0.22944986129E+01 -0.66994979851E+01  0.83488001086E+01  0.00000000000E+00 0. -1.
<mgrwt>
<rscale>  0 0.82035304E+02</rscale>
<asrwt>0</asrwt>
<pdfrwt beam="1">  1        1 0.14624037E-01 0.82035304E+02</pdfrwt>
<pdfrwt beam="2">  1       -2 0.27229998E-02 0.82035304E+02</pdfrwt>
<totfact> 0.13615125E+05</totfact>
</mgrwt>
</event>
<event>
 8    1  0.1319619E-024  0.7970239E+02  0.7818608E-02  0.1329898E+00
         -2   -1    0    0    0  501 -0.00000000000E+00  0.00000000000E+00  0.17113325056E+02  0.17113325246E+02  0.25500000000E-02 0.  1.
          1   -1    0    0  501    0  0.00000000000E+00 -0.00000000000E+00 -0.92800060868E+02  0.92800061005E+02  0.50400000000E-02 0. -1.
        -24    2    1    2    0    0  0.00000000000E+00  0.00000000000E+00 -0.75686735812E+02  0.10991338625E+03  0.79702387037E+02 0.  0.
         66    2    3    3    0    0 -0.27718572180E+02  0.27704610153E+02 -0.47642622727E+02  0.61722639108E+02  0.20000026682E+01 0.  0.
         13    1    3    3    0    0  0.27718572180E+02 -0.27704610153E+02 -0.28044113084E+02  0.48190747143E+02  0.10566000000E+00 0. -1.
         13    1    4    4    0    0 -0.11233125576E+02  0.10648018078E+02 -0.19532465424E+02  0.24921712798E+02  0.10566000000E+00 0. -1.
        -13    1    4    4    0    0 -0.10960194144E+02  0.11886959657E+02 -0.19766737771E+02  0.25537438237E+02  0.10566000000E+00 0.  1.
         14    1    4    4    0    0 -0.55252524595E+01  0.51696324185E+01 -0.83434195327E+01  0.11263488074E+02  0.00000000000E+00 0. -1.
<mgrwt>
<rscale>  0 0.79702387E+02</rscale>
<asrwt>0</asrwt>
<pdfrwt beam="1">  1        1 0.14276932E-01 0.79702387E+02</pdfrwt>
<pdfrwt beam="2">  1       -2 0.26328193E-02 0.79702387E+02</pdfrwt>
<totfact> 0.14664259E+05</totfact>
</mgrwt>
</event>
<event>
 8    1  0.1319619E-024  0.8075608E+02  0.7818608E-02  0.1326919E+00
          1   -1    0    0  501    0  0.00000000000E+00  0.00000000000E+00  0.41231492934E+02  0.41231493242E+02  0.50400000000E-02 0. -1.
         -2   -1    0    0    0  501 -0.00000000000E+00 -0.00000000000E+00 -0.39542253969E+02  0.39542254051E+02  0.25500000000E-02 0.  1.
        -24    2    1    2    0    0  0.88817841970E-15 -0.35527136788E-14  0.16892389651E+01  0.80773747293E+02  0.80756081651E+02 0.  0.
         66    2    3    3    0    0 -0.52206248423E+01  0.27540295318E+02 -0.28189793333E+02  0.39804362076E+02  0.20000005333E+01 0.  0.
         13    1    3    3    0    0  0.52206248423E+01 -0.27540295318E+02  0.29879032298E+02  0.40969385217E+02  0.10566000000E+00 0. -1.
         13    1    4    4    0    0 -0.12209075702E+01  0.79093941198E+01 -0.78531654732E+01  0.11213050549E+02  0.10566000000E+00 0. -1.
        -13    1    4    4    0    0 -0.41303805616E+01  0.18827925830E+02 -0.19352951514E+02  0.27314807907E+02  0.10566000000E+00 0.  1.
        -14    1    4    4    0    0  0.13066328949E+00  0.80297536893E+00 -0.98367634584E+00  0.12765036199E+01  0.00000000000E+00 0.  1.
<mgrwt>
<rscale>  0 0.80756082E+02</rscale>
<asrwt>0</asrwt>
<pdfrwt beam="1">  1        1 0.63433067E-02 0.80756082E+02</pdfrwt>
<pdfrwt beam="2">  1       -2 0.60834237E-02 0.80756082E+02</pdfrwt>
<totfact> 0.12426634E+05</totfact>
</mgrwt>
</event>
<event>
 8    1  0.1319619E-024  0.8006940E+02  0.7818608E-02  0.1328855E+00
         -2   -1    0    0    0  501 -0.00000000000E+00  0.00000000000E+00  0.10341035838E+03  0.10341035841E+03  0.25500000000E-02 0.  1.
          1   -1    0    0  501    0  0.00000000000E+00 -0.00000000000E+00 -0.15499194001E+02  0.15499194821E+02  0.50400000000E-02 0. -1.
        -24    2    1    2    0    0 -0.11102230246E-15  0.00000000000E+00  0.87911164382E+02  0.11890955324E+03  0.80069401320E+02 0.  0.
         66    2    3    3    0    0 -0.51390924990E+00 -0.22674629620E+02  0.92931377714E+02  0.95679903280E+02  0.19999991990E+01 0.  0.
         13    1    3    3    0    0  0.51390924990E+00  0.22674629620E+02 -0.50202133323E+01  0.23229649955E+02  0.10566000000E+00 0. -1.
         13    1    4    4    0    0 -0.93644187508E-01 -0.66402047427E+01  0.24269042612E+02  0.25161452295E+02  0.10566000000E+00 0. -1.
        -13    1    4    4    0    0  0.16316901433E+00 -0.10578538054E+02  0.46081985588E+02  0.47280996724E+02  0.10566000000E+00 0.  1.
        -14    1    4    4    0    0 -0.58343407672E+00 -0.54558868233E+01  0.22580349515E+02  0.23237454261E+02  0.00000000000E+00 0.  1.
<mgrwt>
<rscale>  0 0.80069401E+02</rscale>
<asrwt>0</asrwt>
<pdfrwt beam="1">  1        1 0.23844915E-02 0.80069401E+02</pdfrwt>
<pdfrwt beam="2">  1       -2 0.15909286E-01 0.80069401E+02</pdfrwt>
<totfact> 0.10500476E+05</totfact>
</mgrwt>
</event>
<event>
 8    1  0.1319619E-024  0.8109584E+02  0.7818608E-02  0.1325970E+00
          1   -1    0    0  501    0  0.00000000000E+00  0.00000000000E+00  0.10057925007E+03  0.10057925020E+03  0.50400000000E-02 0. -1.
         -2   -1    0    0    0  501 -0.00000000000E+00 -0.00000000000E+00 -0.16346650849E+02  0.16346651047E+02  0.25500000000E-02 0.  1.
        -24    2    1    2    0    0  0.00000000000E+00  0.00000000000E+00  0.84232599221E+02  0.11692590124E+03  0.81095842125E+02 0.  0.
         66    2    3    3    0    0 -0.50662376131E+01  0.34440285260E+02  0.12232120353E+02  0.36951654554E+02  0.19999983928E+01 0.  0.
         13    1    3    3    0    0  0.50662376131E+01 -0.34440285260E+02  0.72000478868E+02  0.79974246690E+02  0.10566000000E+00 0. -1.
         13    1    4    4    0    0 -0.24843605917E+00  0.31064807862E+01  0.14628581128E+01  0.34442794957E+01  0.10566000000E+00 0. -1.
        -13    1    4    4    0    0 -0.95353239824E+00  0.99977517414E+01  0.36147991902E+01  0.10674371229E+02  0.10566000000E+00 0.  1.
        -14    1    4    4    0    0 -0.38642691557E+01  0.21336052732E+02  0.71544630500E+01  0.22833003829E+02  0.00000000000E+00 0.  1.
<mgrwt>
<rscale>  0 0.81095842E+02</rscale>
<asrwt>0</asrwt>
<pdfrwt beam="1">  1        1 0.15473731E-01 0.81095842E+02</pdfrwt>
<pdfrwt beam="2">  1       -2 0.25148694E-02 0.81095842E+02</pdfrwt>
<totfact> 0.14181865E+05</totfact>
</mgrwt>
</event>
<event>
 8    1  0.1319619E-024  0.7214765E+02  0.7818608E-02  0.1352938E+00
         -2   -1    0    0    0  501 -0.00000000000E+00  0.00000000000E+00  0.76730222496E+02  0.76730222539E+02  0.25500000000E-02 0.  1.
          1   -1    0    0  501    0  0.00000000000E+00 -0.00000000000E+00 -0.16959692137E+02  0.16959692886E+02  0.50400000000E-02 0. -1.
        -24    2    1    2    0    0  0.00000000000E+00  0.17763568394E-14  0.59770530359E+02  0.93689915424E+02  0.72147653827E+02 0.  0.
         66    2    3    3    0    0  0.28977446898E+01 -0.14567253589E+02  0.72558640833E+02  0.74090202800E+02  0.19999975190E+01 0.  0.
         13    1    3    3    0    0 -0.28977446898E+01  0.14567253589E+02 -0.12788110473E+02  0.19599712624E+02  0.10566000000E+00 0. -1.
         13    1    4    4    0    0 -0.39606824961E-01 -0.35345779855E+00  0.14349641123E+01  0.14821562519E+01  0.10566000000E+00 0.  1.
        -13    1    4    4    0    0  0.24363717934E+01 -0.12816788877E+02  0.65822286786E+02  0.67102835904E+02  0.10566000000E+00 0.  1.
        -14    1    4    4    0    0  0.50097972136E+00 -0.13970069138E+01  0.53013899348E+01  0.55052106444E+01  0.00000000000E+00 0.  1.
<mgrwt>
<rscale>  0 0.72147654E+02</rscale>
<asrwt>0</asrwt>
<pdfrwt beam="1">  1        1 0.26091835E-02 0.72147654E+02</pdfrwt>
<pdfrwt beam="2">  1       -2 0.11804650E-01 0.72147654E+02</pdfrwt>
<totfact> 0.14658064E+05</totfact>
</mgrwt>
</event>
<event>
 8    1  0.1319619E-024  0.8057212E+02  0.7818608E-02  0.1327436E+00
         -2   -1    0    0    0  501 -0.00000000000E+00  0.00000000000E+00  0.24257904358E+03  0.24257904359E+03  0.25500000000E-02 0.  1.
          1   -1    0    0  501    0  0.00000000000E+00 -0.00000000000E+00 -0.66904639448E+01  0.66904658431E+01  0.50400000000E-02 0. -1.
        -24    2    1    2    0    0  0.35527136788E-14  0.00000000000E+00  0.23588857963E+03  0.24926950943E+03  0.80572118827E+02 0.  0.
         66    2    3    3    0    0 -0.20239909135E+02  0.33148877344E+02  0.15082498012E+03  0.15575839182E+03  0.20000009171E+01 0.  0.
         13    1    3    3    0    0  0.20239909135E+02 -0.33148877344E+02  0.85063599511E+02  0.93511117611E+02  0.10566000000E+00 0. -1.
         13    1    4    4    0    0 -0.15925130574E+01  0.30081682475E+01  0.12000809466E+02  0.12474604840E+02  0.10566000000E+00 0. -1.
        -13    1    4    4    0    0 -0.11045611093E+02  0.19117291279E+02  0.86570558162E+02  0.89341754263E+02  0.10566000000E+00 0.  1.
         14    1    4    4    0    0 -0.76017849850E+01  0.11023417818E+02  0.52253612493E+02  0.53942032719E+02  0.00000000000E+00 0. -1.
<mgrwt>
<rscale>  0 0.80572119E+02</rscale>
<asrwt>0</asrwt>
<pdfrwt beam="1">  1        1 0.10293022E-02 0.80572119E+02</pdfrwt>
<pdfrwt beam="2">  1       -2 0.37319856E-01 0.80572119E+02</pdfrwt>
<totfact> 0.76792424E+04</totfact>
</mgrwt>
</event>
<event>
 8    1  0.1319619E-024  0.7994893E+02  0.7818608E-02  0.1329196E+00
         -2   -1    0    0    0  501 -0.00000000000E+00  0.00000000000E+00  0.25238388713E+02  0.25238388842E+02  0.25500000000E-02 0.  1.
          1   -1    0    0  501    0  0.00000000000E+00 -0.00000000000E+00 -0.63314570425E+02  0.63314570625E+02  0.50400000000E-02 0. -1.
        -24    2    1    2    0    0  0.35527136788E-14  0.00000000000E+00 -0.38076181712E+02  0.88552959467E+02  0.79948927551E+02 0.  0.
         66    2    3    3    0    0  0.22524960850E+02  0.44845117173E+01  0.17155250352E+02  0.28736515587E+02  0.20000017086E+01 0.  0.
         13    1    3    3    0    0 -0.22524960850E+02 -0.44845117173E+01 -0.55231432063E+02  0.59816443880E+02  0.10566000000E+00 0. -1.
         13    1    4    4    0    0  0.15843429658E+02  0.30973574521E+01  0.12987871335E+02  0.20719648944E+02  0.10566000000E+00 0. -1.
        -13    1    4    4    0    0  0.30784249478E+01  0.53073386578E+00  0.22093229554E+01  0.38276168241E+01  0.10566000000E+00 0.  1.
         14    1    4    4    0    0  0.36031062445E+01  0.85642039939E+00  0.19580560611E+01  0.41892498192E+01  0.00000000000E+00 0. -1.
<mgrwt>
<rscale>  0 0.79948928E+02</rscale>
<asrwt>0</asrwt>
<pdfrwt beam="1">  1        1 0.97407032E-02 0.79948928E+02</pdfrwt>
<pdfrwt beam="2">  1       -2 0.38828291E-02 0.79948928E+02</pdfrwt>
<totfact> 0.13677021E+05</totfact>
</mgrwt>
</event>
<event>
 8    1  0.1319619E-024  0.7882470E+02  0.7818608E-02  0.1332420E+00
          1   -1    0    0  501    0  0.00000000000E+00  0.00000000000E+00  0.12475087630E+03  0.12475087640E+03  0.50400000000E-02 0. -1.
         -2   -1    0    0    0  501 -0.00000000000E+00 -0.00000000000E+00 -0.12451481842E+02  0.12451482103E+02  0.25500000000E-02 0.  1.
        -24    2    1    2    0    0  0.00000000000E+00  0.00000000000E+00  0.11229939445E+03  0.13720235850E+03  0.78824699069E+02 0.  0.
         66    2    3    3    0    0 -0.20747149680E+01  0.25604661158E+02  0.42170603084E+01  0.26109130833E+02  0.19999999976E+01 0.  0.
         13    1    3    3    0    0  0.20747149680E+01 -0.25604661158E+02  0.10808233415E+03  0.11109322767E+03  0.10566000000E+00 0. -1.
         13    1    4    4    0    0 -0.10600240773E+01  0.56613499171E+01  0.12712918571E+01  0.58993119047E+01  0.10566000000E+00 0. -1.
        -13    1    4    4    0    0  0.57310088300E-01  0.64509182508E+01  0.12018505749E+01  0.65630206128E+01  0.10566000000E+00 0.  1.
         14    1    4    4    0    0 -0.10720009790E+01  0.13492392990E+02  0.17439178764E+01  0.13646798315E+02  0.00000000000E+00 0. -1.
<mgrwt>
<rscale>  0 0.78824699E+02</rscale>
<asrwt>0</asrwt>
<pdfrwt beam="1">  1        1 0.19192443E-01 0.78824699E+02</pdfrwt>
<pdfrwt beam="2">  1       -2 0.19156126E-02 0.78824699E+02</pdfrwt>
<totfact> 0.15888988E+05</totfact>
</mgrwt>
</event>
<event>
 8    1  0.1319619E-024  0.7957657E+02  0.7818608E-02  0.1330257E+00
         -2   -1    0    0    0  501 -0.00000000000E+00  0.00000000000E+00  0.94502708224E+01  0.94502711665E+01  0.25500000000E-02 0.  1.
          1   -1    0    0  501    0  0.00000000000E+00 -0.00000000000E+00 -0.16751979735E+03  0.16751979742E+03  0.50400000000E-02 0. -1.
        -24    2    1    2    0    0  0.00000000000E+00  0.00000000000E+00 -0.15806952652E+03  0.17697006859E+03  0.79576566656E+02 0.  0.
         66    2    3    3    0    0 -0.34806492141E+02 -0.11764590847E+02 -0.11289985001E+03  0.11874457303E+03  0.19999995333E+01 0.  0.
         13    1    3    3    0    0  0.34806492141E+02  0.11764590847E+02 -0.45169676511E+02  0.58225495559E+02  0.10566000000E+00 0. -1.
         13    1    4    4    0    0 -0.47192163610E+00 -0.22642573320E+00 -0.21783660461E+01  0.22428600736E+01  0.10566000000E+00 0. -1.
        -13    1    4    4    0    0 -0.98497905633E+01 -0.31652882981E+01 -0.30006178642E+02  0.31739869957E+02  0.10566000000E+00 0.  1.
         14    1    4    4    0    0 -0.24484779941E+02 -0.83728768154E+01 -0.80715305326E+02  0.84761843000E+02  0.00000000000E+00 0. -1.
<mgrwt>
<rscale>  0 0.79576567E+02</rscale>
<asrwt>0</asrwt>
<pdfrwt beam="1">  1        1 0.25772274E-01 0.79576567E+02</pdfrwt>
<pdfrwt beam="2">  1       -2 0.14538880E-02 0.79576567E+02</pdfrwt>
<totfact> 0.16346605E+05</totfact>
</mgrwt>
</event>
<event>
 8    1  0.1319619E-024  0.7936452E+02  0.7818608E-02  0.1330865E+00
         -2   -1    0    0    0  501 -0.00000000000E+00  0.00000000000E+00  0.17331493132E+03  0.17331493134E+03  0.25500000000E-02 0.  1.
          1   -1    0    0  501    0  0.00000000000E+00 -0.00000000000E+00 -0.90856654822E+01  0.90856668801E+01  0.50400000000E-02 0. -1.
        -24    2    1    2    0    0  0.00000000000E+00  0.00000000000E+00  0.16422926584E+03  0.18240059822E+03  0.79364516461E+02 0.  0.
         66    2    3    3    0    0  0.10365994039E+02 -0.21196494575E+01  0.17000512115E+03  0.17034578944E+03  0.20000042205E+01 0.  0.
         13    1    3    3    0    0 -0.10365994039E+02  0.21196494575E+01 -0.57758553069E+01  0.12054808783E+02  0.10566000000E+00 0. -1.
         13    1    4    4    0    0  0.99673511981E+00 -0.52462649387E-01  0.23578547388E+02  0.23599900301E+02  0.10566000000E+00 0. -1.
        -13    1    4    4    0    0  0.23522048189E+01 -0.34728660071E+00  0.44482804731E+02  0.44546431465E+02  0.10566000000E+00 0.  1.
        -14    1    4    4    0    0  0.70170540999E+01 -0.17199002074E+01  0.10194376903E+03  0.10219945767E+03  0.00000000000E+00 0.  1.
<mgrwt>
<rscale>  0 0.79364516E+02</rscale>
<asrwt>0</asrwt>
<pdfrwt beam="1">  1        1 0.13977948E-02 0.79364516E+02</pdfrwt>
<pdfrwt beam="2">  1       -2 0.26663837E-01 0.79364516E+02</pdfrwt>
<totfact> 0.91766197E+04</totfact>
</mgrwt>
</event>
<event>
 8    1  0.1319619E-024  0.7938186E+02  0.7818608E-02  0.1330815E+00
         -2   -1    0    0    0  501 -0.00000000000E+00  0.00000000000E+00  0.89514584915E+02  0.89514584952E+02  0.25500000000E-02 0.  1.
          1   -1    0    0  501    0  0.00000000000E+00 -0.00000000000E+00 -0.17599031251E+02  0.17599031973E+02  0.50400000000E-02 0. -1.
        -24    2    1    2    0    0  0.17763568394E-14  0.00000000000E+00  0.71915553664E+02  0.10711361692E+03  0.79381862360E+02 0.  0.
         66    2    3    3    0    0  0.15109089249E+02  0.33544914341E+02  0.55986351065E+02  0.67022514226E+02  0.20000128988E+01 0.  0.
         13    1    3    3    0    0 -0.15109089249E+02 -0.33544914341E+02  0.15929202600E+02  0.40091102698E+02  0.10566000000E+00 0. -1.
         13    1    4    4    0    0  0.23870068926E+01  0.53438571878E+01  0.10052061110E+02  0.11632270120E+02  0.10566000000E+00 0. -1.
        -13    1    4    4    0    0  0.23719757494E+01  0.55676166102E+01  0.83591053856E+01  0.10320389070E+02  0.10566000000E+00 0.  1.
         14    1    4    4    0    0  0.10350106607E+02  0.22633440543E+02  0.37575184568E+02  0.45069855036E+02  0.00000000000E+00 0. -1.
<mgrwt>
<rscale>  0 0.79381862E+02</rscale>
<asrwt>0</asrwt>
<pdfrwt beam="1">  1        1 0.27075434E-02 0.79381862E+02</pdfrwt>
<pdfrwt beam="2">  1       -2 0.13771474E-01 0.79381862E+02</pdfrwt>
<totfact> 0.11116562E+05</totfact>
</mgrwt>
</event>
<event>
 8    1  0.1319619E-024  0.8006730E+02  0.7818608E-02  0.1328861E+00
          1   -1    0    0  501    0  0.00000000000E+00  0.00000000000E+00  0.92624996878E+01  0.92625010590E+01  0.50400000000E-02 0. -1.
         -2   -1    0    0    0  501 -0.00000000000E+00 -0.00000000000E+00 -0.17303029716E+03  0.17303029718E+03  0.25500000000E-02 0.  1.
        -24    2    1    2    0    0 -0.17763568394E-14  0.00000000000E+00 -0.16376779747E+03  0.18229279824E+03  0.80067301694E+02 0.  0.
         66    2    3    3    0    0 -0.12194551571E+02  0.70271484772E+01 -0.16720190741E+03  0.16780514215E+03  0.19999967719E+01 0.  0.
         13    1    3    3    0    0  0.12194551571E+02 -0.70271484772E+01  0.34341099392E+01  0.14487656085E+02  0.10566000000E+00 0. -1.
         13    1    4    4    0    0 -0.17424669880E+01  0.16125304385E+01 -0.28335708174E+02  0.28435188893E+02  0.10566000000E+00 0.  1.
        -13    1    4    4    0    0 -0.89471232492E+01  0.41257962845E+01 -0.11414946450E+03  0.11457392643E+03  0.10566000000E+00 0. -1.
         14    1    4    4    0    0 -0.15049613337E+01  0.12888217541E+01 -0.24716734742E+02  0.24796026828E+02  0.00000000000E+00 0. -1.
<mgrwt>
<rscale>  0 0.80067302E+02</rscale>
<asrwt>0</asrwt>
<pdfrwt beam="1">  1        1 0.14250002E-02 0.80067302E+02</pdfrwt>
<pdfrwt beam="2">  1       -2 0.26620043E-01 0.80067302E+02</pdfrwt>
<totfact> 0.89758930E+04</totfact>
</mgrwt>
</event>
<event>
 8    1  0.1319619E-024  0.8110521E+02  0.7818608E-02  0.1325944E+00
          1   -1    0    0  501    0  0.00000000000E+00  0.00000000000E+00  0.26728177609E+03  0.26728177614E+03  0.50400000000E-02 0. -1.
         -2   -1    0    0    0  501 -0.00000000000E+00 -0.00000000000E+00 -0.61527337594E+01  0.61527342878E+01  0.25500000000E-02 0.  1.
        -24    2    1    2    0    0 -0.88817841970E-15  0.71054273576E-14  0.26112904233E+03  0.27343451043E+03  0.81105207866E+02 0.  0.
         66    2    3    3    0    0 -0.29966921640E+01  0.37948641880E+02  0.83755282048E+02  0.92021882460E+02  0.19999990238E+01 0.  0.
         13    1    3    3    0    0  0.29966921640E+01 -0.37948641880E+02  0.17737376028E+03  0.18141262797E+03  0.10566000000E+00 0. -1.
         13    1    4    4    0    0 -0.15938614316E+01  0.23311426018E+02  0.50652910508E+02  0.55782537448E+02  0.10566000000E+00 0.  1.
        -13    1    4    4    0    0  0.42659152320E-01  0.40345500177E+01  0.84326596832E+01  0.93488142037E+01  0.10566000000E+00 0. -1.
        -14    1    4    4    0    0 -0.14454898848E+01  0.10602665844E+02  0.24669711857E+02  0.26890530808E+02  0.00000000000E+00 0.  1.
<mgrwt>
<rscale>  0 0.81105208E+02</rscale>
<asrwt>0</asrwt>
<pdfrwt beam="1">  1        1 0.41120287E-01 0.81105208E+02</pdfrwt>
<pdfrwt beam="2">  1       -2 0.94657416E-03 0.81105208E+02</pdfrwt>
<totfact> 0.17015599E+05</totfact>
</mgrwt>
</event>
<event>
 8    1  0.1319619E-024  0.7894857E+02  0.7818608E-02  0.1332062E+00
          1   -1    0    0  501    0  0.00000000000E+00  0.00000000000E+00  0.36815611187E+01  0.36815645686E+01  0.50400000000E-02 0. -1.
         -2   -1    0    0    0  501 -0.00000000000E+00 -0.00000000000E+00 -0.42324939994E+03  0.42324939995E+03  0.25500000000E-02 0.  1.
        -24    2    1    2    0    0  0.00000000000E+00 -0.17763568394E-14 -0.41956783882E+03  0.42693096451E+03  0.78948572435E+02 0.  0.
         66    2    3    3    0    0  0.19054319052E+02 -0.12743435187E+02 -0.38353447179E+03  0.38422409249E+03  0.19999951031E+01 0.  0.
         13    1    3    3    0    0 -0.19054319052E+02  0.12743435187E+02 -0.36033367025E+02  0.42706872024E+02  0.10566000000E+00 0. -1.
         13    1    4    4    0    0  0.44943901541E+00 -0.32733190354E+00 -0.71652485577E+01  0.71875651324E+01  0.10566000000E+00 0. -1.
        -13    1    4    4    0    0  0.13006340236E+02 -0.95207707176E+01 -0.26979637892E+03  0.27027746337E+03  0.10566000000E+00 0.  1.
        -14    1    4    4    0    0  0.55985398005E+01 -0.28953325659E+01 -0.10657284431E+03  0.10675906399E+03  0.00000000000E+00 0.  1.
<mgrwt>
<rscale>  0 0.78948572E+02</rscale>
<asrwt>0</asrwt>
<pdfrwt beam="1">  1        1 0.56639462E-03 0.78948572E+02</pdfrwt>
<pdfrwt beam="2">  1       -2 0.65115254E-01 0.78948572E+02</pdfrwt>
<totfact> 0.58857884E+04</totfact>
</mgrwt>
</event>
<event>
 8    1  0.1319619E-024  0.7895830E+02  0.7818608E-02  0.1332034E+00
          1   -1    0    0  501    0  0.00000000000E+00  0.00000000000E+00  0.22066784535E+02  0.22066785111E+02  0.50400000000E-02 0. -1.
         -2   -1    0    0    0  501 -0.00000000000E+00 -0.00000000000E+00 -0.70631198400E+02  0.70631198446E+02  0.25500000000E-02 0.  1.
        -24    2    1    2    0    0  0.00000000000E+00  0.00000000000E+00 -0.48564413865E+02  0.92697983557E+02  0.78958304575E+02 0.  0.
         66    2    3    3    0    0  0.32910937547E+02  0.17501060771E+02 -0.39477565182E+02  0.54331345427E+02  0.20000012255E+01 0.  0.
         13    1    3    3    0    0 -0.32910937547E+02 -0.17501060771E+02 -0.90868486824E+01  0.38366638129E+02  0.10566000000E+00 0. -1.
         13    1    4    4    0    0  0.14337460731E+02  0.80739040130E+01 -0.16249086680E+02  0.23125628385E+02  0.10566000000E+00 0. -1.
        -13    1    4    4    0    0  0.17687552324E+02  0.88327978812E+01 -0.22098949151E+02  0.29652024269E+02  0.10566000000E+00 0.  1.
        -14    1    4    4    0    0  0.88592449202E+00  0.59435887651E+00 -0.11295293512E+01  0.15536927736E+01  0.00000000000E+00 0.  1.
<mgrwt>
<rscale>  0 0.78958305E+02</rscale>
<asrwt>0</asrwt>
<pdfrwt beam="1">  1        1 0.33948900E-02 0.78958305E+02</pdfrwt>
<pdfrwt beam="2">  1       -2 0.10866338E-01 0.78958305E+02</pdfrwt>
<totfact> 0.11858715E+05</totfact>
</mgrwt>
</event>
<event>
 8    1  0.1319619E-024  0.8116505E+02  0.7818608E-02  0.1325777E+00
         -2   -1    0    0    0  501 -0.00000000000E+00  0.00000000000E+00  0.94447450428E+01  0.94447453871E+01  0.25500000000E-02 0.  1.
          1   -1    0    0  501    0  0.00000000000E+00 -0.00000000000E+00 -0.17437646051E+03  0.17437646058E+03  0.50400000000E-02 0. -1.
        -24    2    1    2    0    0  0.17763568394E-14  0.00000000000E+00 -0.16493171547E+03  0.18382120597E+03  0.81165047879E+02 0.  0.
         66    2    3    3    0    0 -0.14969279465E+02  0.24343725308E+02 -0.17337245732E+02  0.33485465209E+02  0.20000002846E+01 0.  0.
         13    1    3    3    0    0  0.14969279465E+02 -0.24343725308E+02 -0.14759446973E+03  0.15033574076E+03  0.10566000000E+00 0. -1.
         13    1    4    4    0    0 -0.15118043442E+00  0.76723325507E+00 -0.35625133434E+00  0.86578371448E+00  0.10566000000E+00 0. -1.
        -13    1    4    4    0    0 -0.12116233307E+01  0.19131203166E+01 -0.12704652600E+01  0.25987124608E+01  0.10566000000E+00 0.  1.
        -14    1    4    4    0    0 -0.13606475700E+02  0.21663371736E+02 -0.15710529138E+02  0.30020969034E+02  0.00000000000E+00 0.  1.
<mgrwt>
<rscale>  0 0.81165048E+02</rscale>
<asrwt>0</asrwt>
<pdfrwt beam="1">  1        1 0.26827146E-01 0.81165048E+02</pdfrwt>
<pdfrwt beam="2">  1       -2 0.14530379E-02 0.81165048E+02</pdfrwt>
<totfact> 0.15625935E+05</totfact>
</mgrwt>
</event>
<event>
 8    1  0.1319619E-024  0.7880861E+02  0.7818608E-02  0.1332467E+00
         -2   -1    0    0    0  501 -0.00000000000E+00  0.00000000000E+00  0.67081688837E+01  0.67081693684E+01  0.25500000000E-02 0.  1.
          1   -1    0    0  501    0  0.00000000000E+00 -0.00000000000E+00 -0.23146396246E+03  0.23146396252E+03  0.50400000000E-02 0. -1.
        -24    2    1    2    0    0  0.00000000000E+00  0.00000000000E+00 -0.22475579358E+03  0.23817213188E+03  0.78808614122E+02 0.  0.
         66    2    3    3    0    0  0.33941028933E+02  0.13475824770E+01 -0.52242702660E+02  0.62346686839E+02  0.19999887589E+01 0.  0.
         13    1    3    3    0    0 -0.33941028933E+02 -0.13475824770E+01 -0.17251309092E+03  0.17582544505E+03  0.10566000000E+00 0. -1.
         13    1    4    4    0    0  0.11118028027E+02  0.58887336310E+00 -0.15633203154E+02  0.19192850855E+02  0.10566000000E+00 0. -1.
        -13    1    4    4    0    0  0.12563463015E+02  0.44910502867E+00 -0.20822957826E+02  0.24323836764E+02  0.10566000000E+00 0.  1.
         14    1    4    4    0    0  0.10259537890E+02  0.30960408521E+00 -0.15786541680E+02  0.18829999220E+02  0.00000000000E+00 0. -1.
<mgrwt>
<rscale>  0 0.78808614E+02</rscale>
<asrwt>0</asrwt>
<pdfrwt beam="1">  1        1 0.35609834E-01 0.78808614E+02</pdfrwt>
<pdfrwt beam="2">  1       -2 0.10320262E-02 0.78808614E+02</pdfrwt>
<totfact> 0.17850234E+05</totfact>
</mgrwt>
</event>
<event>
 8    1  0.1319619E-024  0.7912669E+02  0.7818608E-02  0.1331548E+00
          1   -1    0    0  501    0  0.00000000000E+00  0.00000000000E+00  0.94497335685E+01  0.94497349126E+01  0.50400000000E-02 0. -1.
         -2   -1    0    0    0  501 -0.00000000000E+00 -0.00000000000E+00 -0.16564045094E+03  0.16564045095E+03  0.25500000000E-02 0.  1.
        -24    2    1    2    0    0  0.00000000000E+00 -0.17763568394E-14 -0.15619071737E+03  0.17509018587E+03  0.79126689527E+02 0.  0.
         66    2    3    3    0    0  0.42340289044E+01  0.14984315092E+02 -0.15856376255E+03  0.15933902061E+03  0.19999982492E+01 0.  0.
         13    1    3    3    0    0 -0.42340289044E+01 -0.14984315092E+02  0.23730451881E+01  0.15751165260E+02  0.10566000000E+00 0. -1.
         13    1    4    4    0    0  0.66827612292E+00  0.15044212486E+01 -0.18535722350E+02  0.18608977493E+02  0.10566000000E+00 0. -1.
        -13    1    4    4    0    0  0.20317727985E+01  0.10198551473E+02 -0.10682813751E+03  0.10733312947E+03  0.10566000000E+00 0.  1.
        -14    1    4    4    0    0  0.15339799830E+01  0.32813423705E+01 -0.33199902691E+02  0.33396913646E+02  0.00000000000E+00 0.  1.
<mgrwt>
<rscale>  0 0.79126690E+02</rscale>
<asrwt>0</asrwt>
<pdfrwt beam="1">  1        1 0.14538054E-02 0.79126690E+02</pdfrwt>
<pdfrwt beam="2">  1       -2 0.25483144E-01 0.79126690E+02</pdfrwt>
<totfact> 0.93991389E+04</totfact>
</mgrwt>
</event>
<event>
 8    1  0.1319619E-024  0.8238311E+02  0.7818608E-02  0.1322421E+00
         -2   -1    0    0    0  501 -0.00000000000E+00  0.00000000000E+00  0.44378946040E+02  0.44378946114E+02  0.25500000000E-02 0.  1.
          1   -1    0    0  501    0  0.00000000000E+00 -0.00000000000E+00 -0.38233093456E+02  0.38233093789E+02  0.50400000000E-02 0. -1.
        -24    2    1    2    0    0  0.00000000000E+00  0.00000000000E+00  0.61458525841E+01  0.82612039902E+02  0.82383114974E+02 0.  0.
         66    2    3    3    0    0 -0.20441856450E+01 -0.33215928381E+02  0.27375578099E+02  0.43138137098E+02  0.20000007118E+01 0.  0.
         13    1    3    3    0    0  0.20441856450E+01  0.33215928381E+02 -0.21229725515E+02  0.39473902805E+02  0.10566000000E+00 0. -1.
         13    1    4    4    0    0 -0.12757540920E+01 -0.10285284457E+02  0.85337733419E+01  0.13425761667E+02  0.10566000000E+00 0. -1.
        -13    1    4    4    0    0 -0.60519398461E+00 -0.11714219675E+02  0.89214930203E+01  0.14737482963E+02  0.10566000000E+00 0.  1.
        -14    1    4    4    0    0 -0.16323756836E+00 -0.11216424250E+02  0.99203117366E+01  0.14974892467E+02  0.00000000000E+00 0.  1.
<mgrwt>
<rscale>  0 0.82383115E+02</rscale>
<asrwt>0</asrwt>
<pdfrwt beam="1">  1        1 0.58820144E-02 0.82383115E+02</pdfrwt>
<pdfrwt beam="2">  1       -2 0.68275302E-02 0.82383115E+02</pdfrwt>
<totfact> 0.11598098E+05</totfact>
</mgrwt>
</event>
<event>
 8    1  0.1319619E-024  0.8024220E+02  0.7818608E-02  0.1328366E+00
         -2   -1    0    0    0  501 -0.00000000000E+00  0.00000000000E+00  0.79044746213E+01  0.79044750327E+01  0.25500000000E-02 0.  1.
          1   -1    0    0  501    0  0.00000000000E+00 -0.00000000000E+00 -0.20364445558E+03  0.20364445564E+03  0.50400000000E-02 0. -1.
        -24    2    1    2    0    0  0.35527136788E-14 -0.35527136788E-14 -0.19573998096E+03  0.21154893067E+03  0.80242195409E+02 0.  0.
         66    2    3    3    0    0  0.22692918332E+02 -0.18089073159E+02 -0.24987436775E+02  0.38347817458E+02  0.19999992573E+01 0.  0.
         13    1    3    3    0    0 -0.22692918332E+02  0.18089073159E+02 -0.17075254418E+03  0.17320111322E+03  0.10566000000E+00 0. -1.
         13    1    4    4    0    0  0.13417172606E+01 -0.11958689707E+01 -0.19843145798E+01  0.26793611533E+01  0.10566000000E+00 0.  1.
        -13    1    4    4    0    0  0.79320004657E+01 -0.61365199413E+01 -0.76430878590E+01  0.12609578281E+02  0.10566000000E+00 0. -1.
        -14    1    4    4    0    0  0.13419200606E+02 -0.10756684247E+02 -0.15360034336E+02  0.23058878023E+02  0.00000000000E+00 0.  1.
<mgrwt>
<rscale>  0 0.80242195E+02</rscale>
<asrwt>0</asrwt>
<pdfrwt beam="1">  1        1 0.31329912E-01 0.80242195E+02</pdfrwt>
<pdfrwt beam="2">  1       -2 0.12160732E-02 0.80242195E+02</pdfrwt>
<totfact> 0.16598775E+05</totfact>
</mgrwt>
</event>
<event>
 8    1  0.1319619E-024  0.8179844E+02  0.7818608E-02  0.1324024E+00
          1   -1    0    0  501    0  0.00000000000E+00  0.00000000000E+00  0.20217220785E+03  0.20217220791E+03  0.50400000000E-02 0. -1.
         -2   -1    0    0    0  501 -0.00000000000E+00 -0.00000000000E+00 -0.82738676306E+01  0.82738680236E+01  0.25500000000E-02 0.  1.
        -24    2    1    2    0    0 -0.71054273576E-14  0.00000000000E+00  0.19389834022E+03  0.21044607593E+03  0.81798438476E+02 0.  0.
         66    2    3    3    0    0 -0.35134114667E+02  0.10535135290E+02  0.14341237421E+03  0.14804223778E+03  0.20000001019E+01 0.  0.
         13    1    3    3    0    0  0.35134114667E+02 -0.10535135290E+02  0.50485966006E+02  0.62403838156E+02  0.10566000000E+00 0. -1.
         13    1    4    4    0    0 -0.10806996604E+01  0.32688775863E+00  0.55881557699E+01  0.57020536921E+01  0.10566000000E+00 0. -1.
        -13    1    4    4    0    0 -0.84794515727E+01  0.28204935327E+01  0.32977686813E+02  0.34167166612E+02  0.10566000000E+00 0.  1.
        -14    1    4    4    0    0 -0.25573963434E+02  0.73877539985E+01  0.10484653163E+03  0.10817301747E+03  0.00000000000E+00 0.  1.
<mgrwt>
<rscale>  0 0.81798438E+02</rscale>
<asrwt>0</asrwt>
<pdfrwt beam="1">  1        1 0.31103420E-01 0.81798438E+02</pdfrwt>
<pdfrwt beam="2">  1       -2 0.12729026E-02 0.81798438E+02</pdfrwt>
<totfact> 0.15750279E+05</totfact>
</mgrwt>
</event>
<event>
 8    1  0.1319619E-024  0.8035612E+02  0.7818608E-02  0.1328044E+00
         -2   -1    0    0    0  501 -0.00000000000E+00  0.00000000000E+00  0.21377645743E+02  0.21377645895E+02  0.25500000000E-02 0.  1.
          1   -1    0    0  501    0  0.00000000000E+00 -0.00000000000E+00 -0.75512358910E+02  0.75512359079E+02  0.50400000000E-02 0. -1.
        -24    2    1    2    0    0  0.00000000000E+00  0.22204460493E-15 -0.54134713168E+02  0.96890004973E+02  0.80356119207E+02 0.  0.
         66    2    3    3    0    0 -0.20313720689E+02 -0.13630258689E+01  0.14645702172E+02  0.25159524798E+02  0.20000020417E+01 0.  0.
         13    1    3    3    0    0  0.20313720689E+02  0.13630258689E+01 -0.68780415340E+02  0.71730480175E+02  0.10566000000E+00 0. -1.
         13    1    4    4    0    0 -0.77599105552E+01 -0.12224328702E+01  0.51960497127E+01  0.94191640074E+01  0.10566000000E+00 0. -1.
        -13    1    4    4    0    0 -0.88668558036E+01 -0.47027192900E+00  0.64351727979E+01  0.10966535483E+02  0.10566000000E+00 0.  1.
        -14    1    4    4    0    0 -0.36869543306E+01  0.32967893030E+00  0.30144796618E+01  0.47738253073E+01  0.00000000000E+00 0.  1.
<mgrwt>
<rscale>  0 0.80356119E+02</rscale>
<asrwt>0</asrwt>
<pdfrwt beam="1">  1        1 0.11617286E-01 0.80356119E+02</pdfrwt>
<pdfrwt beam="2">  1       -2 0.32888686E-02 0.80356119E+02</pdfrwt>
<totfact> 0.13869539E+05</totfact>
</mgrwt>
</event>
<event>
 8    1  0.1319619E-024  0.7933111E+02  0.7818608E-02  0.1330960E+00
         -2   -1    0    0    0  501 -0.00000000000E+00  0.00000000000E+00  0.23583090157E+03  0.23583090159E+03  0.25500000000E-02 0.  1.
          1   -1    0    0  501    0  0.00000000000E+00 -0.00000000000E+00 -0.66715428891E+01  0.66715447928E+01  0.50400000000E-02 0. -1.
        -24    2    1    2    0    0  0.00000000000E+00  0.00000000000E+00  0.22915935869E+03  0.24250244638E+03  0.79331108827E+02 0.  0.
         66    2    3    3    0    0 -0.94128972931E+00 -0.37154626515E+02  0.15678780689E+03  0.16114517891E+03  0.19999993089E+01 0.  0.
         13    1    3    3    0    0  0.94128972931E+00  0.37154626515E+02  0.72371551794E+02  0.81357267474E+02  0.10566000000E+00 0. -1.
         13    1    4    4    0    0 -0.40664667547E+00 -0.20014327747E+02  0.83917364481E+02  0.86272092256E+02  0.10566000000E+00 0. -1.
        -13    1    4    4    0    0 -0.33134906943E+00 -0.13144842641E+02  0.53316553051E+02  0.54914139104E+02  0.10566000000E+00 0.  1.
         14    1    4    4    0    0 -0.20329398442E+00 -0.39954561266E+01  0.19553889360E+02  0.19958947547E+02  0.00000000000E+00 0. -1.
<mgrwt>
<rscale>  0 0.79331109E+02</rscale>
<asrwt>0</asrwt>
<pdfrwt beam="1">  1        1 0.10263913E-02 0.79331109E+02</pdfrwt>
<pdfrwt beam="2">  1       -2 0.36281679E-01 0.79331109E+02</pdfrwt>
<totfact> 0.80980727E+04</totfact>
</mgrwt>
</event>
<event>
 8    1  0.1319619E-024  0.7919755E+02  0.7818608E-02  0.1331344E+00
          1   -1    0    0  501    0  0.00000000000E+00  0.00000000000E+00  0.13436460367E+03  0.13436460376E+03  0.50400000000E-02 0. -1.
         -2   -1    0    0    0  501 -0.00000000000E+00 -0.00000000000E+00 -0.11670208630E+02  0.11670208909E+02  0.25500000000E-02 0.  1.
        -24    2    1    2    0    0  0.00000000000E+00 -0.71054273576E-14  0.12269439504E+03  0.14603481267E+03  0.79197550076E+02 0.  0.
         66    2    3    3    0    0 -0.16153430676E+02 -0.33956322305E+02  0.38645758487E+02  0.53957944690E+02  0.19999997713E+01 0.  0.
         13    1    3    3    0    0  0.16153430676E+02  0.33956322305E+02  0.84048636550E+02  0.92076867980E+02  0.10566000000E+00 0. -1.
         13    1    4    4    0    0 -0.78550945744E+01 -0.16275427465E+02  0.18745221835E+02  0.26038174967E+02  0.10566000000E+00 0.  1.
        -13    1    4    4    0    0 -0.81283648355E+01 -0.17551984879E+02  0.19812037015E+02  0.27688814760E+02  0.10566000000E+00 0. -1.
         14    1    4    4    0    0 -0.16997126580E+00 -0.12890996065E+00  0.88499637019E-01  0.23095496293E+00  0.00000000000E+00 0. -1.
<mgrwt>
<rscale>  0 0.79197550E+02</rscale>
<asrwt>0</asrwt>
<pdfrwt beam="1">  1        1 0.20671477E-01 0.79197550E+02</pdfrwt>
<pdfrwt beam="2">  1       -2 0.17954167E-02 0.79197550E+02</pdfrwt>
<totfact> 0.15898012E+05</totfact>
</mgrwt>
</event>
<event>
 8    1  0.1319619E-024  0.7961292E+02  0.7818608E-02  0.1330154E+00
         -2   -1    0    0    0  501 -0.00000000000E+00  0.00000000000E+00  0.11222580094E+03  0.11222580097E+03  0.25500000000E-02 0.  1.
          1   -1    0    0  501    0  0.00000000000E+00 -0.00000000000E+00 -0.14119338481E+02  0.14119339381E+02  0.50400000000E-02 0. -1.
        -24    2    1    2    0    0  0.00000000000E+00  0.00000000000E+00  0.98106462460E+02  0.12634514035E+03  0.79612916752E+02 0.  0.
         66    2    3    3    0    0  0.12010079061E+02 -0.33440573419E+02  0.77474657913E+02  0.85257472218E+02  0.20000001583E+01 0.  0.
         13    1    3    3    0    0 -0.12010079061E+02  0.33440573419E+02  0.20631804548E+02  0.41087668133E+02  0.10566000000E+00 0. -1.
         13    1    4    4    0    0  0.47506388566E+01 -0.12326822637E+02  0.30098215208E+02  0.32869938372E+02  0.10566000000E+00 0. -1.
        -13    1    4    4    0    0  0.51626925861E+01 -0.14972374151E+02  0.32310240815E+02  0.35983165620E+02  0.10566000000E+00 0.  1.
         14    1    4    4    0    0  0.20967476185E+01 -0.61413766308E+01  0.15066201890E+02  0.16404368226E+02  0.00000000000E+00 0. -1.
<mgrwt>
<rscale>  0 0.79612917E+02</rscale>
<asrwt>0</asrwt>
<pdfrwt beam="1">  1        1 0.21722060E-02 0.79612917E+02</pdfrwt>
<pdfrwt beam="2">  1       -2 0.17265508E-01 0.79612917E+02</pdfrwt>
<totfact> 0.10430719E+05</totfact>
</mgrwt>
</event>
<event>
 8    1  0.1319619E-024  0.7456291E+02  0.7818608E-02  0.1345230E+00
          1   -1    0    0  501    0  0.00000000000E+00  0.00000000000E+00  0.16340255908E+03  0.16340255915E+03  0.50400000000E-02 0. -1.
         -2   -1    0    0    0  501 -0.00000000000E+00 -0.00000000000E+00 -0.85060290920E+01  0.85060294742E+01  0.25500000000E-02 0.  1.
        -24    2    1    2    0    0 -0.35527136788E-14  0.00000000000E+00  0.15489652999E+03  0.17190858863E+03  0.74562911980E+02 0.  0.
         66    2    3    3    0    0 -0.25749444844E+02 -0.26081837214E+02  0.92902071640E+02  0.99890395290E+02  0.20000034890E+01 0.  0.
         13    1    3    3    0    0  0.25749444844E+02  0.26081837214E+02  0.61994458345E+02  0.72018193339E+02  0.10566000000E+00 0. -1.
         13    1    4    4    0    0 -0.23713937265E+01 -0.23750004650E+01  0.99163178266E+01  0.10469415394E+02  0.10566000000E+00 0.  1.
        -13    1    4    4    0    0 -0.16064217272E+02 -0.16382737984E+02  0.56000940902E+02  0.60519168256E+02  0.10566000000E+00 0.  1.
         14    1    4    4    0    0 -0.73138338458E+01 -0.73240987653E+01  0.26984812911E+02  0.28901811641E+02  0.00000000000E+00 0. -1.
<mgrwt>
<rscale>  0 0.74562912E+02</rscale>
<asrwt>0</asrwt>
<pdfrwt beam="1">  1        1 0.25138855E-01 0.74562912E+02</pdfrwt>
<pdfrwt beam="2">  1       -2 0.13086199E-02 0.74562912E+02</pdfrwt>
<totfact> 0.19337996E+05</totfact>
</mgrwt>
</event>
<event>
 8    1  0.1319619E-024  0.7990688E+02  0.7818608E-02  0.1329316E+00
         -2   -1    0    0    0  501 -0.00000000000E+00  0.00000000000E+00  0.22917158729E+02  0.22917158870E+02  0.25500000000E-02 0.  1.
          1   -1    0    0  501    0  0.00000000000E+00 -0.00000000000E+00 -0.69654247683E+02  0.69654247866E+02  0.50400000000E-02 0. -1.
        -24    2    1    2    0    0  0.00000000000E+00  0.00000000000E+00 -0.46737088955E+02  0.92571406736E+02  0.79906882439E+02 0.  0.
         66    2    3    3    0    0  0.11746428999E+02 -0.37850969582E+02 -0.17755450089E+02  0.43473330930E+02  0.20000004202E+01 0.  0.
         13    1    3    3    0    0 -0.11746428999E+02  0.37850969582E+02 -0.28981638866E+02  0.49098075807E+02  0.10566000000E+00 0. -1.
         13    1    4    4    0    0  0.30533998861E+01 -0.98690623746E+01 -0.51407116160E+01  0.11539485386E+02  0.10566000000E+00 0. -1.
        -13    1    4    4    0    0  0.23453961127E+01 -0.76236729180E+01 -0.27488202137E+01  0.84373247116E+01  0.10566000000E+00 0.  1.
        -14    1    4    4    0    0  0.63476329999E+01 -0.20358234290E+02 -0.98659182596E+01  0.23496520832E+02  0.00000000000E+00 0.  1.
<mgrwt>
<rscale>  0 0.79906882E+02</rscale>
<asrwt>0</asrwt>
<pdfrwt beam="1">  1        1 0.10716038E-01 0.79906882E+02</pdfrwt>
<pdfrwt beam="2">  1       -2 0.35257168E-02 0.79906882E+02</pdfrwt>
<totfact> 0.13904043E+05</totfact>
</mgrwt>
</event>
<event>
 8    1  0.1319619E-024  0.8029772E+02  0.7818608E-02  0.1328209E+00
          1   -1    0    0  501    0  0.00000000000E+00  0.00000000000E+00  0.13529541034E+03  0.13529541043E+03  0.50400000000E-02 0. -1.
         -2   -1    0    0    0  501 -0.00000000000E+00 -0.00000000000E+00 -0.11914159395E+02  0.11914159668E+02  0.25500000000E-02 0.  1.
        -24    2    1    2    0    0  0.44408920985E-15 -0.35527136788E-14  0.12338125094E+03  0.14720957010E+03  0.80297723782E+02 0.  0.
         66    2    3    3    0    0 -0.35074578351E+01  0.31609507150E+02  0.16879926592E+02  0.36060991812E+02  0.20000014897E+01 0.  0.
         13    1    3    3    0    0  0.35074578351E+01 -0.31609507150E+02  0.10650132435E+03  0.11114857829E+03  0.10566000000E+00 0. -1.
         13    1    4    4    0    0 -0.32243864299E+00  0.50800888439E+01  0.25731686822E+01  0.57047024851E+01  0.10566000000E+00 0. -1.
        -13    1    4    4    0    0 -0.20429223145E+01  0.21235394988E+02  0.11919131891E+02  0.24437520351E+02  0.10566000000E+00 0.  1.
         14    1    4    4    0    0 -0.11420968776E+01  0.52940233186E+01  0.23876260192E+01  0.59187689753E+01  0.00000000000E+00 0. -1.
<mgrwt>
<rscale>  0 0.80297724E+02</rscale>
<asrwt>0</asrwt>
<pdfrwt beam="1">  1        1 0.20814679E-01 0.80297724E+02</pdfrwt>
<pdfrwt beam="2">  1       -2 0.18329476E-02 0.80297724E+02</pdfrwt>
<totfact> 0.15340410E+05</totfact>
</mgrwt>
</event>
<event>
 8    1  0.1319619E-024  0.8369706E+02  0.7818608E-02  0.1318875E+00
          1   -1    0    0  501    0  0.00000000000E+00  0.00000000000E+00  0.86053405286E+02  0.86053405433E+02  0.50400000000E-02 0. -1.
         -2   -1    0    0    0  501 -0.00000000000E+00 -0.00000000000E+00 -0.20351309558E+02  0.20351309717E+02  0.25500000000E-02 0.  1.
        -24    2    1    2    0    0  0.00000000000E+00  0.00000000000E+00  0.65702095728E+02  0.10640471515E+03  0.83697061019E+02 0.  0.
         66    2    3    3    0    0 -0.19251322995E+02  0.34972230854E+02  0.48729239693E+02  0.63025464651E+02  0.20000063598E+01 0.  0.
         13    1    3    3    0    0  0.19251322995E+02 -0.34972230854E+02  0.16972856035E+02  0.43379250500E+02  0.10566000000E+00 0. -1.
         13    1    4    4    0    0 -0.47634635847E+01  0.95669147830E+01  0.14039163833E+02  0.17644424869E+02  0.10566000000E+00 0. -1.
        -13    1    4    4    0    0 -0.34696625625E+01  0.55082452126E+01  0.74425137996E+01  0.98884528271E+01  0.10566000000E+00 0.  1.
        -14    1    4    4    0    0 -0.11018196848E+02  0.19897070858E+02  0.27247562060E+02  0.35492586955E+02  0.00000000000E+00 0.  1.
<mgrwt>
<rscale>  0 0.83697061E+02</rscale>
<asrwt>0</asrwt>
<pdfrwt beam="1">  1        1 0.13238985E-01 0.83697061E+02</pdfrwt>
<pdfrwt beam="2">  1       -2 0.31309707E-02 0.83697061E+02</pdfrwt>
<totfact> 0.12677085E+05</totfact>
</mgrwt>
</event>
<event>
 8    1  0.1319619E-024  0.7906444E+02  0.7818608E-02  0.1331728E+00
         -2   -1    0    0    0  501 -0.00000000000E+00  0.00000000000E+00  0.88263604969E+01  0.88263608652E+01  0.25500000000E-02 0.  1.
          1   -1    0    0  501    0  0.00000000000E+00 -0.00000000000E+00 -0.17706009264E+03  0.17706009271E+03  0.50400000000E-02 0. -1.
        -24    2    1    2    0    0  0.35527136788E-14  0.35527136788E-14 -0.16823373214E+03  0.18588645357E+03  0.79064435700E+02 0.  0.
         66    2    3    3    0    0  0.24931567366E+02  0.30637638425E+02 -0.82437488805E+02  0.91434060942E+02  0.20000000338E+01 0.  0.
         13    1    3    3    0    0 -0.24931567366E+02 -0.30637638425E+02 -0.85796243335E+02  0.94452392633E+02  0.10566000000E+00 0. -1.
         13    1    4    4    0    0  0.71249790772E+00  0.66737149058E+00 -0.16936373575E+01  0.19577051640E+01  0.10566000000E+00 0. -1.
        -13    1    4    4    0    0  0.72879238684E+00  0.72327293351E+00 -0.18538290750E+01  0.21218172293E+01  0.10566000000E+00 0. -1.
        -14    1    4    4    0    0  0.23490277072E+02  0.29246994001E+02 -0.78890022373E+02  0.87354538548E+02  0.00000000000E+00 0.  1.
<mgrwt>
<rscale>  0 0.79064436E+02</rscale>
<asrwt>0</asrwt>
<pdfrwt beam="1">  1        1 0.27240012E-01 0.79064436E+02</pdfrwt>
<pdfrwt beam="2">  1       -2 0.13579018E-02 0.79064436E+02</pdfrwt>
<totfact> 0.16804668E+05</totfact>
</mgrwt>
</event>
<event>
 8    1  0.1319619E-024  0.7745965E+02  0.7818608E-02  0.1336419E+00
         -2   -1    0    0    0  501 -0.00000000000E+00  0.00000000000E+00  0.50063284922E+02  0.50063284987E+02  0.25500000000E-02 0.  1.
          1   -1    0    0  501    0  0.00000000000E+00 -0.00000000000E+00 -0.29962065020E+02  0.29962065444E+02  0.50400000000E-02 0. -1.
        -24    2    1    2    0    0  0.00000000000E+00  0.88817841970E-15  0.20101219902E+02  0.80025350431E+02  0.77459651885E+02 0.  0.
         66    2    3    3    0    0 -0.36090407372E+02  0.67717026587E+01  0.22694419387E+02  0.43213541066E+02  0.19999997536E+01 0.  0.
         13    1    3    3    0    0  0.36090407372E+02 -0.67717026587E+01 -0.25931994847E+01  0.36811809365E+02  0.10566000000E+00 0. -1.
         13    1    4    4    0    0 -0.11399292103E+02  0.22093653426E+01  0.79324014670E+01  0.14062692229E+02  0.10566000000E+00 0. -1.
        -13    1    4    4    0    0 -0.12488100968E+02  0.22900141171E+01  0.67867866794E+01  0.14396821452E+02  0.10566000000E+00 0.  1.
        -14    1    4    4    0    0 -0.12203014301E+02  0.22723231990E+01  0.79752312402E+01  0.14754027385E+02  0.00000000000E+00 0.  1.
<mgrwt>
<rscale>  0 0.77459652E+02</rscale>
<asrwt>0</asrwt>
<pdfrwt beam="1">  1        1 0.46095486E-02 0.77459652E+02</pdfrwt>
<pdfrwt beam="2">  1       -2 0.77020438E-02 0.77459652E+02</pdfrwt>
<totfact> 0.13263094E+05</totfact>
</mgrwt>
</event>
<event>
 8    1  0.1319619E-024  0.8059426E+02  0.7818608E-02  0.1327373E+00
          1   -1    0    0  501    0  0.00000000000E+00  0.00000000000E+00  0.40050352933E+01  0.40050384645E+01  0.50400000000E-02 0. -1.
         -2   -1    0    0    0  501 -0.00000000000E+00 -0.00000000000E+00 -0.40545416369E+03  0.40545416370E+03  0.25500000000E-02 0.  1.
        -24    2    1    2    0    0  0.00000000000E+00  0.00000000000E+00 -0.40144912839E+03  0.40945920216E+03  0.80594264964E+02 0.  0.
         66    2    3    3    0    0  0.17986858247E+02 -0.27757364531E+02 -0.31757287415E+03  0.31929692876E+03  0.19999904388E+01 0.  0.
         13    1    3    3    0    0 -0.17986858247E+02  0.27757364531E+02 -0.83876254245E+02  0.90162273405E+02  0.10566000000E+00 0. -1.
         13    1    4    4    0    0  0.33009418645E+01 -0.60300288189E+01 -0.71269645297E+02  0.71600495596E+02  0.10566000000E+00 0. -1.
        -13    1    4    4    0    0  0.78164285499E+01 -0.11359374007E+02 -0.13253441683E+03  0.13324982079E+03  0.10566000000E+00 0.  1.
        -14    1    4    4    0    0  0.68694878331E+01 -0.10367961706E+02 -0.11376881202E+03  0.11444661237E+03  0.00000000000E+00 0.  1.
<mgrwt>
<rscale>  0 0.80594265E+02</rscale>
<asrwt>0</asrwt>
<pdfrwt beam="1">  1        1 0.61615984E-03 0.80594265E+02</pdfrwt>
<pdfrwt beam="2">  1       -2 0.62377531E-01 0.80594265E+02</pdfrwt>
<totfact> 0.57453410E+04</totfact>
</mgrwt>
</event>
<event>
 8    1  0.1319619E-024  0.8001701E+02  0.7818608E-02  0.1329003E+00
         -2   -1    0    0    0  501 -0.00000000000E+00  0.00000000000E+00  0.31726774388E+02  0.31726774491E+02  0.25500000000E-02 0.  1.
          1   -1    0    0  501    0  0.00000000000E+00 -0.00000000000E+00 -0.50452038247E+02  0.50452038498E+02  0.50400000000E-02 0. -1.
        -24    2    1    2    0    0  0.00000000000E+00  0.35527136788E-14 -0.18725263858E+02  0.82178812989E+02  0.80017009427E+02 0.  0.
         66    2    3    3    0    0  0.18263200722E+02  0.27704590169E+02  0.13540839935E+02  0.35894890995E+02  0.20000090931E+01 0.  0.
         13    1    3    3    0    0 -0.18263200722E+02 -0.27704590169E+02 -0.32266103794E+02  0.46283921994E+02  0.10566000000E+00 0. -1.
         13    1    4    4    0    0  0.46781501860E+01  0.67639494281E+01  0.30341208294E+01  0.87665930823E+01  0.10566000000E+00 0. -1.
        -13    1    4    4    0    0  0.91039395955E+01  0.12634688468E+02  0.65792222880E+01  0.16906046220E+02  0.10566000000E+00 0.  1.
         14    1    4    4    0    0  0.44811109402E+01  0.83059522728E+01  0.39274968181E+01  0.10222251693E+02  0.00000000000E+00 0. -1.
<mgrwt>
<rscale>  0 0.80017009E+02</rscale>
<asrwt>0</asrwt>
<pdfrwt beam="1">  1        1 0.77618521E-02 0.80017009E+02</pdfrwt>
<pdfrwt beam="2">  1       -2 0.48810422E-02 0.80017009E+02</pdfrwt>
<totfact> 0.13167956E+05</totfact>
</mgrwt>
</event>
<event>
 8    1  0.1319619E-024  0.8052058E+02  0.7818608E-02  0.1327581E+00
          1   -1    0    0  501    0  0.00000000000E+00  0.00000000000E+00  0.50428296230E+01  0.50428321416E+01  0.50400000000E-02 0. -1.
         -2   -1    0    0    0  501 -0.00000000000E+00 -0.00000000000E+00 -0.32142478275E+03  0.32142478276E+03  0.25500000000E-02 0.  1.
        -24    2    1    2    0    0  0.00000000000E+00  0.00000000000E+00 -0.31638195312E+03  0.32646761490E+03  0.80520576967E+02 0.  0.
         66    2    3    3    0    0 -0.76954709144E+01  0.39378218507E+02 -0.17046620012E+03  0.17513591794E+03  0.20000010560E+01 0.  0.
         13    1    3    3    0    0  0.76954709144E+01 -0.39378218507E+02 -0.14591575300E+03  0.15133169696E+03  0.10566000000E+00 0. -1.
         13    1    4    4    0    0 -0.45769610915E+01  0.20772726019E+02 -0.91263103869E+02  0.93709231194E+02  0.10566000000E+00 0. -1.
        -13    1    4    4    0    0 -0.26177177303E+01  0.15588684832E+02 -0.68062385476E+02  0.69873879394E+02  0.10566000000E+00 0.  1.
         14    1    4    4    0    0 -0.50079209261E+00  0.30168076560E+01 -0.11140710777E+02  0.11552807355E+02  0.00000000000E+00 0. -1.
<mgrwt>
<rscale>  0 0.80520577E+02</rscale>
<asrwt>0</asrwt>
<pdfrwt beam="1">  1        1 0.77582039E-03 0.80520577E+02</pdfrwt>
<pdfrwt beam="2">  1       -2 0.49449950E-01 0.80520577E+02</pdfrwt>
<totfact> 0.66495296E+04</totfact>
</mgrwt>
</event>
<event>
 8    1  0.1319619E-024  0.8157163E+02  0.7818608E-02  0.1324650E+00
          1   -1    0    0  501    0  0.00000000000E+00  0.00000000000E+00  0.22727246112E+02  0.22727246671E+02  0.50400000000E-02 0. -1.
         -2   -1    0    0    0  501 -0.00000000000E+00 -0.00000000000E+00 -0.73193322083E+02  0.73193322127E+02  0.25500000000E-02 0.  1.
        -24    2    1    2    0    0 -0.17763568394E-14 -0.17763568394E-14 -0.50466075971E+02  0.95920568798E+02  0.81571629226E+02 0.  0.
         66    2    3    3    0    0  0.12814242591E+02  0.10476490394E+02 -0.69049929732E+02  0.71034177963E+02  0.19999947094E+01 0.  0.
         13    1    3    3    0    0 -0.12814242591E+02 -0.10476490394E+02  0.18583853761E+02  0.24886390835E+02  0.10566000000E+00 0. -1.
         13    1    4    4    0    0  0.13830889920E+01  0.10736634648E+01 -0.81003031560E+01  0.82880494479E+01  0.10566000000E+00 0. -1.
        -13    1    4    4    0    0  0.85145305672E+01  0.62777102896E+01 -0.40917362808E+02  0.42262851542E+02  0.10566000000E+00 0.  1.
         14    1    4    4    0    0  0.29166230315E+01  0.31251166397E+01 -0.20032263768E+02  0.20483276974E+02  0.00000000000E+00 0. -1.
<mgrwt>
<rscale>  0 0.81571629E+02</rscale>
<asrwt>0</asrwt>
<pdfrwt beam="1">  1        1 0.34964995E-02 0.81571629E+02</pdfrwt>
<pdfrwt beam="2">  1       -2 0.11260511E-01 0.81571629E+02</pdfrwt>
<totfact> 0.10837620E+05</totfact>
</mgrwt>
</event>
<event>
 8    1  0.1319619E-024  0.8212785E+02  0.7818608E-02  0.1323119E+00
         -2   -1    0    0    0  501 -0.00000000000E+00  0.00000000000E+00  0.31211674480E+02  0.31211674584E+02  0.25500000000E-02 0.  1.
          1   -1    0    0  501    0  0.00000000000E+00 -0.00000000000E+00 -0.54026121889E+02  0.54026122124E+02  0.50400000000E-02 0. -1.
        -24    2    1    2    0    0 -0.35527136788E-14  0.00000000000E+00 -0.22814447409E+02  0.85237796708E+02  0.82127845321E+02 0.  0.
         66    2    3    3    0    0  0.25120088768E+02 -0.30681940671E+02 -0.43804392873E+00  0.39706324738E+02  0.19999996603E+01 0.  0.
         13    1    3    3    0    0 -0.25120088768E+02  0.30681940671E+02 -0.22376403480E+02  0.45531471970E+02  0.10566000000E+00 0. -1.
         13    1    4    4    0    0  0.22022873292E+01 -0.23827079482E+01 -0.13857625880E+00  0.32492666960E+01  0.10566000000E+00 0. -1.
        -13    1    4    4    0    0  0.17856861447E+01 -0.29701229148E+01  0.78149314131E-01  0.34680796541E+01  0.10566000000E+00 0.  1.
         14    1    4    4    0    0  0.21132115294E+02 -0.25329109808E+02 -0.37761698406E+00  0.32988978387E+02  0.00000000000E+00 0. -1.
<mgrwt>
<rscale>  0 0.82127845E+02</rscale>
<asrwt>0</asrwt>
<pdfrwt beam="1">  1        1 0.83117111E-02 0.82127845E+02</pdfrwt>
<pdfrwt beam="2">  1       -2 0.48017961E-02 0.82127845E+02</pdfrwt>
<totfact> 0.12381749E+05</totfact>
</mgrwt>
</event>
<event>
 8    1  0.1319619E-024  0.8078425E+02  0.7818608E-02  0.1326840E+00
          1   -1    0    0  501    0  0.00000000000E+00  0.00000000000E+00  0.37314617925E+02  0.37314618265E+02  0.50400000000E-02 0. -1.
         -2   -1    0    0    0  501 -0.00000000000E+00 -0.00000000000E+00 -0.43723448514E+02  0.43723448589E+02  0.25500000000E-02 0.  1.
        -24    2    1    2    0    0 -0.35527136788E-14  0.00000000000E+00 -0.64088305892E+01  0.81038066854E+02  0.80784250754E+02 0.  0.
         66    2    3    3    0    0  0.11784685028E+02 -0.38091952361E+02  0.31096913798E+01  0.40044298299E+02  0.20000024759E+01 0.  0.
         13    1    3    3    0    0 -0.11784685028E+02  0.38091952361E+02 -0.95185219690E+01  0.40993768555E+02  0.10566000000E+00 0. -1.
         13    1    4    4    0    0  0.91946018618E+00 -0.20887709571E+01 -0.62905589906E-01  0.22854960718E+01  0.10566000000E+00 0.  1.
        -13    1    4    4    0    0  0.23681011746E+01 -0.89755898708E+01  0.40562176206E+00  0.92921907940E+01  0.10566000000E+00 0.  1.
         14    1    4    4    0    0  0.84971236668E+01 -0.27027591533E+02  0.27669752076E+01  0.28466611433E+02  0.00000000000E+00 0. -1.
<mgrwt>
<rscale>  0 0.80784251E+02</rscale>
<asrwt>0</asrwt>
<pdfrwt beam="1">  1        1 0.57407105E-02 0.80784251E+02</pdfrwt>
<pdfrwt beam="2">  1       -2 0.67266844E-02 0.80784251E+02</pdfrwt>
<totfact> 0.12211586E+05</totfact>
</mgrwt>
</event>
<event>
 8    1  0.1319619E-024  0.8005237E+02  0.7818608E-02  0.1328903E+00
          1   -1    0    0  501    0  0.00000000000E+00  0.00000000000E+00  0.42620777700E+02  0.42620777998E+02  0.50400000000E-02 0. -1.
         -2   -1    0    0    0  501 -0.00000000000E+00 -0.00000000000E+00 -0.37589543193E+02  0.37589543279E+02  0.25500000000E-02 0.  1.
        -24    2    1    2    0    0  0.00000000000E+00 -0.17763568394E-14  0.50312345078E+01  0.80210321277E+02  0.80052372349E+02 0.  0.
         66    2    3    3    0    0  0.35935604199E+02  0.11180471558E+02 -0.11063896564E+02  0.39278243372E+02  0.20000004430E+01 0.  0.
         13    1    3    3    0    0 -0.35935604199E+02 -0.11180471558E+02  0.16095131071E+02  0.40932077906E+02  0.10566000000E+00 0. -1.
         13    1    4    4    0    0  0.16047425833E+02  0.47688008334E+01 -0.40605995362E+01  0.17226751576E+02  0.10566000000E+00 0.  1.
        -13    1    4    4    0    0  0.45143297296E+01  0.15913099104E+01 -0.18966776079E+01  0.51497563168E+01  0.10566000000E+00 0. -1.
        -14    1    4    4    0    0  0.15373848637E+02  0.48203608139E+01 -0.51066194196E+01  0.16901735479E+02  0.00000000000E+00 0.  1.
<mgrwt>
<rscale>  0 0.80052372E+02</rscale>
<asrwt>0</asrwt>
<pdfrwt beam="1">  1        1 0.65570428E-02 0.80052372E+02</pdfrwt>
<pdfrwt beam="2">  1       -2 0.57830066E-02 0.80052372E+02</pdfrwt>
<totfact> 0.12804633E+05</totfact>
</mgrwt>
</event>
<event>
 8    1  0.1319619E-024  0.7909444E+02  0.7818608E-02  0.1331641E+00
         -2   -1    0    0    0  501 -0.00000000000E+00  0.00000000000E+00  0.88605463818E+01  0.88605467487E+01  0.25500000000E-02 0.  1.
          1   -1    0    0  501    0  0.00000000000E+00 -0.00000000000E+00 -0.17651083076E+03  0.17651083083E+03  0.50400000000E-02 0. -1.
        -24    2    1    2    0    0  0.71054273576E-14 -0.17763568394E-14 -0.16765028438E+03  0.18537137758E+03  0.79094435797E+02 0.  0.
         66    2    3    3    0    0  0.35722640670E+02 -0.15301692902E+02 -0.67022290122E+02  0.77499911223E+02  0.20000010570E+01 0.  0.
         13    1    3    3    0    0 -0.35722640670E+02  0.15301692902E+02 -0.10062799426E+03  0.10787146636E+03  0.10566000000E+00 0. -1.
         13    1    4    4    0    0  0.62303454550E+01 -0.25426714139E+01 -0.10478691551E+02  0.12453775454E+02  0.10566000000E+00 0. -1.
        -13    1    4    4    0    0  0.15203334433E+01 -0.90806908412E+00 -0.30683116546E+01  0.35442493825E+01  0.10566000000E+00 0.  1.
        -14    1    4    4    0    0  0.27971961772E+02 -0.11850952404E+02 -0.53475286917E+02  0.61501886387E+02  0.00000000000E+00 0.  1.
<mgrwt>
<rscale>  0 0.79094436E+02</rscale>
<asrwt>0</asrwt>
<pdfrwt beam="1">  1        1 0.27155510E-01 0.79094436E+02</pdfrwt>
<pdfrwt beam="2">  1       -2 0.13631611E-02 0.79094436E+02</pdfrwt>
<totfact> 0.16777822E+05</totfact>
</mgrwt>
</event>
<event>
 8    1  0.1319619E-024  0.7922041E+02  0.7818608E-02  0.1331278E+00
         -2   -1    0    0    0  501 -0.00000000000E+00  0.00000000000E+00  0.14447216265E+03  0.14447216267E+03  0.25500000000E-02 0.  1.
          1   -1    0    0  501    0  0.00000000000E+00 -0.00000000000E+00 -0.10860003246E+02  0.10860004415E+02  0.50400000000E-02 0. -1.
        -24    2    1    2    0    0  0.00000000000E+00  0.00000000000E+00  0.13361215940E+03  0.15533216709E+03  0.79220407670E+02 0.  0.
         66    2    3    3    0    0  0.86155869428E+01 -0.13086665953E+02  0.13812623797E+03  0.13902642474E+03  0.19999988511E+01 0.  0.
         13    1    3    3    0    0 -0.86155869428E+01  0.13086665953E+02 -0.45140785688E+01  0.16305742347E+02  0.10566000000E+00 0. -1.
         13    1    4    4    0    0  0.30975353132E+01 -0.43857929544E+01  0.41516638309E+02  0.41862540838E+02  0.10566000000E+00 0. -1.
        -13    1    4    4    0    0  0.37853129108E+01 -0.66770174009E+01  0.74462140163E+02  0.74856747437E+02  0.10566000000E+00 0.  1.
        -14    1    4    4    0    0  0.17327387188E+01 -0.20238555975E+01  0.22147459499E+02  0.22307136464E+02  0.00000000000E+00 0.  1.
<mgrwt>
<rscale>  0 0.79220408E+02</rscale>
<asrwt>0</asrwt>
<pdfrwt beam="1">  1        1 0.16707699E-02 0.79220408E+02</pdfrwt>
<pdfrwt beam="2">  1       -2 0.22226485E-01 0.79220408E+02</pdfrwt>
<totfact> 0.98108107E+04</totfact>
</mgrwt>
</event>
<event>
 8    1  0.1319619E-024  0.7719373E+02  0.7818608E-02  0.1337209E+00
         -2   -1    0    0    0  501 -0.00000000000E+00  0.00000000000E+00  0.17116542323E+02  0.17116542513E+02  0.25500000000E-02 0.  1.
          1   -1    0    0  501    0  0.00000000000E+00 -0.00000000000E+00 -0.87033819818E+02  0.87033819964E+02  0.50400000000E-02 0. -1.
        -24    2    1    2    0    0  0.00000000000E+00  0.00000000000E+00 -0.69917277495E+02  0.10415036248E+03  0.77193732334E+02 0.  0.
         66    2    3    3    0    0  0.20826851986E+02  0.30871666727E+02 -0.21429682381E+02  0.43012194249E+02  0.19999992568E+01 0.  0.
         13    1    3    3    0    0 -0.20826851986E+02 -0.30871666727E+02 -0.48487595114E+02  0.61138168227E+02  0.10566000000E+00 0. -1.
         13    1    4    4    0    0  0.13147079050E+02  0.19508280571E+02 -0.13297924107E+02  0.27023409259E+02  0.10566000000E+00 0. -1.
        -13    1    4    4    0    0  0.65923313164E+01  0.91629575843E+01 -0.70287938672E+01  0.13297884461E+02  0.10566000000E+00 0.  1.
         14    1    4    4    0    0  0.10874416195E+01  0.22004285717E+01 -0.11029644069E+01  0.26909005292E+01  0.00000000000E+00 0. -1.
<mgrwt>
<rscale>  0 0.77193732E+02</rscale>
<asrwt>0</asrwt>
<pdfrwt beam="1">  1        1 0.13389818E-01 0.77193732E+02</pdfrwt>
<pdfrwt beam="2">  1       -2 0.26333143E-02 0.77193732E+02</pdfrwt>
<totfact> 0.15823218E+05</totfact>
</mgrwt>
</event>
<event>
 8    1  0.1319619E-024  0.8055257E+02  0.7818608E-02  0.1327491E+00
         -2   -1    0    0    0  501 -0.00000000000E+00  0.00000000000E+00  0.50030455404E+02  0.50030455469E+02  0.25500000000E-02 0.  1.
          1   -1    0    0  501    0  0.00000000000E+00 -0.00000000000E+00 -0.32423834782E+02  0.32423835174E+02  0.50400000000E-02 0. -1.
        -24    2    1    2    0    0  0.00000000000E+00 -0.71054273576E-14  0.17606620621E+02  0.82454290643E+02  0.80552572620E+02 0.  0.
         66    2    3    3    0    0  0.54238220002E+01 -0.39192850993E+02  0.12397724428E+01  0.39636276941E+02  0.19999999956E+01 0.  0.
         13    1    3    3    0    0 -0.54238220002E+01  0.39192850993E+02  0.16366848179E+02  0.42818013702E+02  0.10566000000E+00 0. -1.
         13    1    4    4    0    0  0.42916568440E+00 -0.23391368868E+01  0.12947655701E+00  0.23840454640E+01  0.10566000000E+00 0.  1.
        -13    1    4    4    0    0  0.35105492160E+01 -0.28287891267E+02  0.15545907973E+01  0.28547445853E+02  0.10566000000E+00 0.  1.
         14    1    4    4    0    0  0.14841070998E+01 -0.85658228391E+01 -0.44429491154E+00  0.87047856242E+01  0.00000000000E+00 0. -1.
<mgrwt>
<rscale>  0 0.80552573E+02</rscale>
<asrwt>0</asrwt>
<pdfrwt beam="1">  1        1 0.49882824E-02 0.80552573E+02</pdfrwt>
<pdfrwt beam="2">  1       -2 0.76969931E-02 0.80552573E+02</pdfrwt>
<totfact> 0.12021025E+05</totfact>
</mgrwt>
</event>
<event>
 8    1  0.1319619E-024  0.8048183E+02  0.7818608E-02  0.1327690E+00
         -2   -1    0    0    0  501 -0.00000000000E+00  0.00000000000E+00  0.10463076356E+04  0.10463076356E+04  0.25500000000E-02 0.  1.
          1   -1    0    0  501    0  0.00000000000E+00 -0.00000000000E+00 -0.15476585380E+01  0.15476667444E+01  0.50400000000E-02 0. -1.
        -24    2    1    2    0    0  0.17763568394E-14 -0.71054273576E-14  0.10447599771E+04  0.10478553024E+04  0.80481830169E+02 0.  0.
         66    2    3    3    0    0  0.14699740664E+02 -0.25084775080E+02  0.88445418427E+03  0.88493419664E+03  0.20000012112E+01 0.  0.
         13    1    3    3    0    0 -0.14699740664E+02  0.25084775080E+02  0.16030579283E+03  0.16292110574E+03  0.10566000000E+00 0. -1.
         13    1    4    4    0    0  0.32241402799E+01 -0.48399995482E+01  0.18037487554E+03  0.18046863319E+03  0.10566000000E+00 0.  1.
        -13    1    4    4    0    0  0.96205706843E+01 -0.17910766475E+02  0.62141206658E+03  0.62174457664E+03  0.10566000000E+00 0. -1.
         14    1    4    4    0    0  0.18550296995E+01 -0.23340090563E+01  0.82667242155E+02  0.82720986811E+02  0.00000000000E+00 0. -1.
<mgrwt>
<rscale>  0 0.80481830E+02</rscale>
<asrwt>0</asrwt>
<pdfrwt beam="1">  1        1 0.23810186E-03 0.80481830E+02</pdfrwt>
<pdfrwt beam="2">  1       -2 0.16097047E+00 0.80481830E+02</pdfrwt>
<totfact> 0.24333684E+04</totfact>
</mgrwt>
</event>
<event>
 8    1  0.1319619E-024  0.8089666E+02  0.7818608E-02  0.1326526E+00
         -2   -1    0    0    0  501 -0.00000000000E+00  0.00000000000E+00  0.95144819990E+01  0.95144823407E+01  0.25500000000E-02 0.  1.
          1   -1    0    0  501    0  0.00000000000E+00 -0.00000000000E+00 -0.17195547019E+03  0.17195547026E+03  0.50400000000E-02 0. -1.
        -24    2    1    2    0    0  0.00000000000E+00  0.17763568394E-14 -0.16244098819E+03  0.18146995260E+03  0.80896656629E+02 0.  0.
         66    2    3    3    0    0  0.38001465237E+02 -0.86271559593E+01 -0.57159368226E+02  0.69207893802E+02  0.20000020845E+01 0.  0.
         13    1    3    3    0    0 -0.38001465237E+02  0.86271559593E+01 -0.10528161996E+03  0.11226205880E+03  0.10566000000E+00 0. -1.
         13    1    4    4    0    0  0.31039897519E+02 -0.69935599316E+01 -0.47447842828E+02  0.57128749956E+02  0.10566000000E+00 0.  1.
        -13    1    4    4    0    0  0.48017647508E+01 -0.88347525240E+00 -0.62711361769E+01  0.79483197110E+01  0.10566000000E+00 0. -1.
         14    1    4    4    0    0  0.21598029673E+01 -0.75012077525E+00 -0.34403892214E+01  0.41308241345E+01  0.00000000000E+00 0. -1.
<mgrwt>
<rscale>  0 0.80896657E+02</rscale>
<asrwt>0</asrwt>
<pdfrwt beam="1">  1        1 0.26454686E-01 0.80896657E+02</pdfrwt>
<pdfrwt beam="2">  1       -2 0.14637666E-02 0.80896657E+02</pdfrwt>
<totfact> 0.15722722E+05</totfact>
</mgrwt>
</event>
<event>
 8    1  0.1319619E-024  0.7991037E+02  0.7818608E-02  0.1329306E+00
         -2   -1    0    0    0  501 -0.00000000000E+00  0.00000000000E+00  0.12039884741E+02  0.12039885011E+02  0.25500000000E-02 0.  1.
          1   -1    0    0  501    0  0.00000000000E+00 -0.00000000000E+00 -0.13259404084E+03  0.13259404094E+03  0.50400000000E-02 0. -1.
        -24    2    1    2    0    0  0.11102230246E-15  0.00000000000E+00 -0.12055415610E+03  0.14463392595E+03  0.79910374684E+02 0.  0.
         66    2    3    3    0    0 -0.68064895408E+00 -0.27439093720E+02 -0.78247275522E+01  0.28611073148E+02  0.19999995513E+01 0.  0.
         13    1    3    3    0    0  0.68064895408E+00  0.27439093720E+02 -0.11272942855E+03  0.11602285280E+03  0.10566000000E+00 0. -1.
         13    1    4    4    0    0  0.16658726030E+00 -0.14013641310E+02 -0.46751889881E+01  0.14774249564E+02  0.10566000000E+00 0. -1.
        -13    1    4    4    0    0 -0.47015650615E-02 -0.56891607354E+01 -0.14298095033E+01  0.58670342788E+01  0.10566000000E+00 0.  1.
         14    1    4    4    0    0 -0.84253464931E+00 -0.77362916751E+01 -0.17197290608E+01  0.79697893047E+01  0.00000000000E+00 0. -1.
<mgrwt>
<rscale>  0 0.79910375E+02</rscale>
<asrwt>0</asrwt>
<pdfrwt beam="1">  1        1 0.20399082E-01 0.79910375E+02</pdfrwt>
<pdfrwt beam="2">  1       -2 0.18522901E-02 0.79910375E+02</pdfrwt>
<totfact> 0.15484127E+05</totfact>
</mgrwt>
</event>
<event>
 8    1  0.1319619E-024  0.8003961E+02  0.7818608E-02  0.1328939E+00
         -2   -1    0    0    0  501 -0.00000000000E+00  0.00000000000E+00  0.26738579103E+03  0.26738579104E+03  0.25500000000E-02 0.  1.
          1   -1    0    0  501    0  0.00000000000E+00 -0.00000000000E+00 -0.59897895485E+01  0.59897916689E+01  0.50400000000E-02 0. -1.
        -24    2    1    2    0    0 -0.35527136788E-14  0.35527136788E-14  0.26139600148E+03  0.27337558271E+03  0.80039612893E+02 0.  0.
         66    2    3    3    0    0 -0.29207531234E+02  0.22738919201E+02  0.18251513948E+03  0.18624154871E+03  0.19999997634E+01 0.  0.
         13    1    3    3    0    0  0.29207531234E+02 -0.22738919201E+02  0.78880861998E+02  0.87134033999E+02  0.10566000000E+00 0. -1.
         13    1    4    4    0    0 -0.16944350723E+02  0.13613670706E+02  0.11041703639E+03  0.11253611039E+03  0.10566000000E+00 0. -1.
        -13    1    4    4    0    0 -0.14395476144E+01  0.10667939890E+01  0.73283646163E+01  0.75449611486E+01  0.10566000000E+00 0.  1.
        -14    1    4    4    0    0 -0.10823632897E+02  0.80584545059E+01  0.64769738474E+02  0.66160477175E+02  0.00000000000E+00 0.  1.
<mgrwt>
<rscale>  0 0.80039613E+02</rscale>
<asrwt>0</asrwt>
<pdfrwt beam="1">  1        1 0.92150639E-03 0.80039613E+02</pdfrwt>
<pdfrwt beam="2">  1       -2 0.41136269E-01 0.80039613E+02</pdfrwt>
<totfact> 0.74526690E+04</totfact>
</mgrwt>
</event>
<event>
 8    1  0.1319619E-024  0.7817742E+02  0.7818608E-02  0.1334305E+00
          1   -1    0    0  501    0  0.00000000000E+00  0.00000000000E+00  0.34747920780E+02  0.34747921146E+02  0.50400000000E-02 0. -1.
         -2   -1    0    0    0  501 -0.00000000000E+00 -0.00000000000E+00 -0.43971759970E+02  0.43971760044E+02  0.25500000000E-02 0.  1.
        -24    2    1    2    0    0  0.00000000000E+00  0.00000000000E+00 -0.92238391898E+01  0.78719681190E+02  0.78177419996E+02 0.  0.
         66    2    3    3    0    0 -0.35758476089E+02  0.65976321773E+01 -0.18987157838E+02  0.41069569402E+02  0.20000013850E+01 0.  0.
         13    1    3    3    0    0  0.35758476089E+02 -0.65976321773E+01  0.97633186486E+01  0.37650111788E+02  0.10566000000E+00 0. -1.
         13    1    4    4    0    0 -0.47603790940E+01  0.68179556686E+00 -0.29331958150E+01  0.56339023810E+01  0.10566000000E+00 0. -1.
        -13    1    4    4    0    0 -0.12575963141E+02  0.28421886043E+01 -0.71797246713E+01  0.14757794394E+02  0.10566000000E+00 0.  1.
        -14    1    4    4    0    0 -0.18422133854E+02  0.30736480061E+01 -0.88742373519E+01  0.20677872627E+02  0.00000000000E+00 0.  1.
<mgrwt>
<rscale>  0 0.78177420E+02</rscale>
<asrwt>0</asrwt>
<pdfrwt beam="1">  1        1 0.53458340E-02 0.78177420E+02</pdfrwt>
<pdfrwt beam="2">  1       -2 0.67648862E-02 0.78177420E+02</pdfrwt>
<totfact> 0.13243634E+05</totfact>
</mgrwt>
</event>
<event>
 8    1  0.1319619E-024  0.8016998E+02  0.7818608E-02  0.1328570E+00
         -2   -1    0    0    0  501 -0.00000000000E+00  0.00000000000E+00  0.41007898423E+03  0.41007898423E+03  0.25500000000E-02 0.  1.
          1   -1    0    0  501    0  0.00000000000E+00 -0.00000000000E+00 -0.39182836333E+01  0.39182868748E+01  0.50400000000E-02 0. -1.
        -24    2    1    2    0    0 -0.17763568394E-14  0.11102230246E-15  0.40616070059E+03  0.41399727111E+03  0.80169980538E+02 0.  0.
         66    2    3    3    0    0 -0.10690016481E+02 -0.38055473769E+00  0.40256464648E+03  0.40271170318E+03  0.20000015739E+01 0.  0.
         13    1    3    3    0    0  0.10690016481E+02  0.38055473769E+00  0.35960541098E+01  0.11285567928E+02  0.10566000000E+00 0. -1.
         13    1    4    4    0    0 -0.34217665073E+01 -0.10212860684E+01  0.13491815979E+03  0.13496544934E+03  0.10566000000E+00 0. -1.
        -13    1    4    4    0    0 -0.39574396284E+01  0.30653616893E+00  0.13854038938E+03  0.13859727972E+03  0.10566000000E+00 0.  1.
         14    1    4    4    0    0 -0.33108103451E+01  0.33419516177E+00  0.12910609732E+03  0.12914897412E+03  0.00000000000E+00 0. -1.
<mgrwt>
<rscale>  0 0.80169981E+02</rscale>
<asrwt>0</asrwt>
<pdfrwt beam="1">  1        1 0.60281311E-03 0.80169981E+02</pdfrwt>
<pdfrwt beam="2">  1       -2 0.63089075E-01 0.80169981E+02</pdfrwt>
<totfact> 0.57800861E+04</totfact>
</mgrwt>
</event>
<event>
 8    1  0.1319619E-024  0.8936678E+02  0.7818608E-02  0.1304392E+00
          1   -1    0    0  501    0  0.00000000000E+00  0.00000000000E+00  0.26452774595E+03  0.26452774600E+03  0.50400000000E-02 0. -1.
         -2   -1    0    0    0  501 -0.00000000000E+00 -0.00000000000E+00 -0.75478096884E+01  0.75478101191E+01  0.25500000000E-02 0.  1.
        -24    2    1    2    0    0  0.00000000000E+00 -0.35527136788E-14  0.25697993626E+03  0.27207555611E+03  0.89366775679E+02 0.  0.
         66    2    3    3    0    0  0.20591911317E+02 -0.31680292192E+02  0.56063984172E+02  0.67637549149E+02  0.20000021504E+01 0.  0.
         13    1    3    3    0    0 -0.20591911317E+02  0.31680292192E+02  0.20091595209E+03  0.20443800697E+03  0.10566000000E+00 0. -1.
         13    1    4    4    0    0  0.75533711359E+01 -0.10379524380E+02  0.19594417148E+02  0.23425206281E+02  0.10566000000E+00 0. -1.
        -13    1    4    4    0    0  0.51685890357E+01 -0.76373625939E+01  0.13826499747E+02  0.16620074587E+02  0.10566000000E+00 0.  1.
         14    1    4    4    0    0  0.78699511452E+01 -0.13663405217E+02  0.22643067277E+02  0.27592268281E+02  0.00000000000E+00 0. -1.
<mgrwt>
<rscale>  0 0.89366776E+02</rscale>
<asrwt>0</asrwt>
<pdfrwt beam="1">  1        1 0.40696573E-01 0.89366776E+02</pdfrwt>
<pdfrwt beam="2">  1       -2 0.11612016E-02 0.89366776E+02</pdfrwt>
<totfact> 0.13120122E+05</totfact>
</mgrwt>
</event>
<event>
 8    1  0.1319619E-024  0.7918439E+02  0.7818608E-02  0.1331382E+00
         -2   -1    0    0    0  501 -0.00000000000E+00  0.00000000000E+00  0.98044114002E+02  0.98044114035E+02  0.25500000000E-02 0.  1.
          1   -1    0    0  501    0  0.00000000000E+00 -0.00000000000E+00 -0.15988129567E+02  0.15988130362E+02  0.50400000000E-02 0. -1.
        -24    2    1    2    0    0  0.35527136788E-14  0.00000000000E+00  0.82055984434E+02  0.11403224440E+03  0.79184393542E+02 0.  0.
         66    2    3    3    0    0 -0.27206378786E+02 -0.17608717953E+02  0.73743799624E+02  0.80575442771E+02  0.20000000442E+01 0.  0.
         13    1    3    3    0    0  0.27206378786E+02  0.17608717953E+02  0.83121848104E+01  0.33456801625E+02  0.10566000000E+00 0. -1.
         13    1    4    4    0    0 -0.28555165895E+01 -0.24055141533E+01  0.85342282828E+01  0.93158300625E+01  0.10566000000E+00 0. -1.
        -13    1    4    4    0    0 -0.44188884826E+01 -0.33247218341E+01  0.12531891386E+02  0.13698168361E+02  0.10566000000E+00 0.  1.
         14    1    4    4    0    0 -0.19931973714E+02 -0.11878481966E+02  0.52677679956E+02  0.57561444348E+02  0.00000000000E+00 0. -1.
<mgrwt>
<rscale>  0 0.79184394E+02</rscale>
<asrwt>0</asrwt>
<pdfrwt beam="1">  1        1 0.24597122E-02 0.79184394E+02</pdfrwt>
<pdfrwt beam="2">  1       -2 0.15083710E-01 0.79184394E+02</pdfrwt>
<totfact> 0.10947890E+05</totfact>
</mgrwt>
</event>
<event>
 8    1  0.1319619E-024  0.8055002E+02  0.7818608E-02  0.1327498E+00
         -2   -1    0    0    0  501 -0.00000000000E+00  0.00000000000E+00  0.40083257230E+02  0.40083257311E+02  0.25500000000E-02 0.  1.
          1   -1    0    0  501    0  0.00000000000E+00 -0.00000000000E+00 -0.40467681058E+02  0.40467681372E+02  0.50400000000E-02 0. -1.
        -24    2    1    2    0    0  0.00000000000E+00  0.00000000000E+00 -0.38442382750E+00  0.80550938683E+02  0.80550021360E+02 0.  0.
         66    2    3    3    0    0  0.88765920917E+01 -0.22840307333E+02  0.31739177889E+02  0.40147838833E+02  0.20000059303E+01 0.  0.
         13    1    3    3    0    0 -0.88765920917E+01  0.22840307333E+02 -0.32123601716E+02  0.40403099850E+02  0.10566000000E+00 0. -1.
         13    1    4    4    0    0  0.36378924675E+01 -0.73726032487E+01  0.11231646558E+02  0.13919432054E+02  0.10566000000E+00 0. -1.
        -13    1    4    4    0    0  0.21497726090E+01 -0.75828359789E+01  0.10011546898E+02  0.12742180311E+02  0.10566000000E+00 0.  1.
         14    1    4    4    0    0  0.30889270152E+01 -0.78848681052E+01  0.10495984433E+02  0.13486226468E+02  0.00000000000E+00 0. -1.
<mgrwt>
<rscale>  0 0.80550021E+02</rscale>
<asrwt>0</asrwt>
<pdfrwt beam="1">  1        1 0.62257972E-02 0.80550021E+02</pdfrwt>
<pdfrwt beam="2">  1       -2 0.61666549E-02 0.80550021E+02</pdfrwt>
<totfact> 0.12478322E+05</totfact>
</mgrwt>
</event>
<event>
 8    1  0.1319619E-024  0.7932169E+02  0.7818608E-02  0.1330987E+00
         -2   -1    0    0    0  501 -0.00000000000E+00  0.00000000000E+00  0.18956500555E+02  0.18956500727E+02  0.25500000000E-02 0.  1.
          1   -1    0    0  501    0  0.00000000000E+00 -0.00000000000E+00 -0.82978529480E+02  0.82978529633E+02  0.50400000000E-02 0. -1.
        -24    2    1    2    0    0  0.35527136788E-14  0.35527136788E-14 -0.64022028925E+02  0.10193503036E+03  0.79321688250E+02 0.  0.
         66    2    3    3    0    0  0.18753116074E+02  0.19295211902E+02  0.53686768648E+01  0.27510130099E+02  0.20000004919E+01 0.  0.
         13    1    3    3    0    0 -0.18753116074E+02 -0.19295211902E+02 -0.69390705790E+02  0.74424900261E+02  0.10566000000E+00 0. -1.
         13    1    4    4    0    0  0.12136228412E+01  0.14161959145E+01 -0.54983960906E-01  0.18688709267E+01  0.10566000000E+00 0.  1.
        -13    1    4    4    0    0  0.10988803402E+02  0.10654503032E+02  0.34922400319E+01  0.15699654121E+02  0.10566000000E+00 0.  1.
         14    1    4    4    0    0  0.65506898310E+01  0.72245129550E+01  0.19314207938E+01  0.99416050506E+01  0.00000000000E+00 0. -1.
<mgrwt>
<rscale>  0 0.79321688E+02</rscale>
<asrwt>0</asrwt>
<pdfrwt beam="1">  1        1 0.12765927E-01 0.79321688E+02</pdfrwt>
<pdfrwt beam="2">  1       -2 0.29163848E-02 0.79321688E+02</pdfrwt>
<totfact> 0.14587144E+05</totfact>
</mgrwt>
</event>
<event>
 8    1  0.1319619E-024  0.8080751E+02  0.7818608E-02  0.1326775E+00
         -2   -1    0    0    0  501 -0.00000000000E+00  0.00000000000E+00  0.16361284903E+03  0.16361284905E+03  0.25500000000E-02 0.  1.
          1   -1    0    0  501    0  0.00000000000E+00 -0.00000000000E+00 -0.99775996028E+01  0.99776008758E+01  0.50400000000E-02 0. -1.
        -24    2    1    2    0    0  0.00000000000E+00  0.00000000000E+00  0.15363524943E+03  0.17359044993E+03  0.80807514742E+02 0.  0.
         66    2    3    3    0    0  0.34183291754E+02  0.88264896102E+01  0.11896341444E+03  0.12410760785E+03  0.19999996325E+01 0.  0.
         13    1    3    3    0    0 -0.34183291754E+02 -0.88264896102E+01  0.34671834992E+02  0.49482842074E+02  0.10566000000E+00 0. -1.
         13    1    4    4    0    0  0.13092729503E+01  0.45891822830E+00  0.39504588336E+01  0.41883279039E+01  0.10566000000E+00 0. -1.
        -13    1    4    4    0    0  0.23795356129E+02  0.61321000772E+01  0.85443240793E+02  0.88906581229E+02  0.10566000000E+00 0.  1.
        -14    1    4    4    0    0  0.90786626751E+01  0.22354713047E+01  0.29569714810E+02  0.31012698719E+02  0.00000000000E+00 0.  1.
<mgrwt>
<rscale>  0 0.80807515E+02</rscale>
<asrwt>0</asrwt>
<pdfrwt beam="1">  1        1 0.15350154E-02 0.80807515E+02</pdfrwt>
<pdfrwt beam="2">  1       -2 0.25171209E-01 0.80807515E+02</pdfrwt>
<totfact> 0.89423580E+04</totfact>
</mgrwt>
</event>
<event>
 8    1  0.1319619E-024  0.7889659E+02  0.7818608E-02  0.1332212E+00
         -2   -1    0    0    0  501 -0.00000000000E+00  0.00000000000E+00  0.12123492759E+03  0.12123492762E+03  0.25500000000E-02 0.  1.
          1   -1    0    0  501    0  0.00000000000E+00 -0.00000000000E+00 -0.12835968793E+02  0.12835969782E+02  0.50400000000E-02 0. -1.
        -24    2    1    2    0    0  0.88817841970E-15  0.00000000000E+00  0.10839895880E+03  0.13407089740E+03  0.78896585865E+02 0.  0.
         66    2    3    3    0    0 -0.66868109050E+01  0.93410291373E+01  0.11831912712E+03  0.11889232142E+03  0.19999959747E+01 0.  0.
         13    1    3    3    0    0  0.66868109050E+01 -0.93410291373E+01 -0.99201683196E+01  0.15178575985E+02  0.10566000000E+00 0. -1.
         13    1    4    4    0    0 -0.12872458763E+01  0.19582406086E+01  0.23351349013E+02  0.23468880949E+02  0.10566000000E+00 0. -1.
        -13    1    4    4    0    0 -0.26629919125E+01  0.50841304725E+01  0.58517663037E+02  0.58798537056E+02  0.10566000000E+00 0.  1.
         14    1    4    4    0    0 -0.27365731162E+01  0.22986580561E+01  0.36450115072E+02  0.36624903413E+02  0.00000000000E+00 0. -1.
<mgrwt>
<rscale>  0 0.78896586E+02</rscale>
<asrwt>0</asrwt>
<pdfrwt beam="1">  1        1 0.19747646E-02 0.78896586E+02</pdfrwt>
<pdfrwt beam="2">  1       -2 0.18651526E-01 0.78896586E+02</pdfrwt>
<totfact> 0.10451405E+05</totfact>
</mgrwt>
</event>
<event>
 8    1  0.1319619E-024  0.7930535E+02  0.7818608E-02  0.1331034E+00
          1   -1    0    0  501    0  0.00000000000E+00  0.00000000000E+00  0.16954694181E+02  0.16954694931E+02  0.50400000000E-02 0. -1.
         -2   -1    0    0    0  501 -0.00000000000E+00 -0.00000000000E+00 -0.92737418474E+02  0.92737418509E+02  0.25500000000E-02 0.  1.
        -24    2    1    2    0    0  0.71054273576E-14  0.00000000000E+00 -0.75782724292E+02  0.10969211344E+03  0.79305349439E+02 0.  0.
         66    2    3    3    0    0 -0.37355663618E+02  0.44792972826E+01 -0.55125612227E+02  0.66770823252E+02  0.20000014620E+01 0.  0.
         13    1    3    3    0    0  0.37355663618E+02 -0.44792972826E+01 -0.20657112065E+02  0.42921290187E+02  0.10566000000E+00 0. -1.
         13    1    4    4    0    0 -0.21934425113E+02  0.24252339776E+01 -0.31467446318E+02  0.38434517126E+02  0.10566000000E+00 0. -1.
        -13    1    4    4    0    0 -0.14332284071E+02  0.21795707030E+01 -0.22120550304E+02  0.26447964098E+02  0.10566000000E+00 0.  1.
         14    1    4    4    0    0 -0.10889544340E+01 -0.12550739797E+00 -0.15376156048E+01  0.18883420279E+01  0.00000000000E+00 0. -1.
<mgrwt>
<rscale>  0 0.79305349E+02</rscale>
<asrwt>0</asrwt>
<pdfrwt beam="1">  1        1 0.26084146E-02 0.79305349E+02</pdfrwt>
<pdfrwt beam="2">  1       -2 0.14267295E-01 0.79305349E+02</pdfrwt>
<totfact> 0.11052190E+05</totfact>
</mgrwt>
</event>
<event>
 8    1  0.1319619E-024  0.7534225E+02  0.7818608E-02  0.1342814E+00
         -2   -1    0    0    0  501 -0.00000000000E+00  0.00000000000E+00  0.19427323601E+02  0.19427323768E+02  0.25500000000E-02 0.  1.
          1   -1    0    0  501    0  0.00000000000E+00 -0.00000000000E+00 -0.73047311029E+02  0.73047311203E+02  0.50400000000E-02 0. -1.
        -24    2    1    2    0    0 -0.22204460493E-15  0.00000000000E+00 -0.53619987429E+02  0.92474634971E+02  0.75342252828E+02 0.  0.
         66    2    3    3    0    0 -0.14614499330E+01  0.17262351147E+02  0.14192290425E+02  0.22484344253E+02  0.20000064905E+01 0.  0.
         13    1    3    3    0    0  0.14614499330E+01 -0.17262351147E+02 -0.67812277854E+02  0.69990290718E+02  0.10566000000E+00 0. -1.
         13    1    4    4    0    0 -0.18832533600E+00  0.67307503420E+01  0.59668153502E+01  0.89973616165E+01  0.10566000000E+00 0. -1.
        -13    1    4    4    0    0 -0.56465552346E+00  0.83534442956E+01  0.60713483280E+01  0.10342693170E+02  0.10566000000E+00 0.  1.
        -14    1    4    4    0    0 -0.70846907357E+00  0.21781565094E+01  0.21541267467E+01  0.31442894664E+01  0.00000000000E+00 0.  1.
<mgrwt>
<rscale>  0 0.75342253E+02</rscale>
<asrwt>0</asrwt>
<pdfrwt beam="1">  1        1 0.11238048E-01 0.75342253E+02</pdfrwt>
<pdfrwt beam="2">  1       -2 0.29888191E-02 0.75342253E+02</pdfrwt>
<totfact> 0.16440964E+05</totfact>
</mgrwt>
</event>
<event>
 8    1  0.1319619E-024  0.8080665E+02  0.7818608E-02  0.1326778E+00
         -2   -1    0    0    0  501 -0.00000000000E+00  0.00000000000E+00  0.63012353090E+02  0.63012353142E+02  0.25500000000E-02 0.  1.
          1   -1    0    0  501    0  0.00000000000E+00 -0.00000000000E+00 -0.25906486737E+02  0.25906487227E+02  0.50400000000E-02 0. -1.
        -24    2    1    2    0    0 -0.22204460493E-15  0.00000000000E+00  0.37105866353E+02  0.88918840369E+02  0.80806651055E+02 0.  0.
         66    2    3    3    0    0  0.18120576713E+01  0.10716025974E+02  0.61356667999E+02  0.62343865107E+02  0.20000107220E+01 0.  0.
         13    1    3    3    0    0 -0.18120576713E+01 -0.10716025974E+02 -0.24250801646E+02  0.26574975262E+02  0.10566000000E+00 0. -1.
         13    1    4    4    0    0  0.22258437325E+00  0.22761732713E+01  0.96336282529E+01  0.99019425324E+01  0.10566000000E+00 0. -1.
        -13    1    4    4    0    0  0.14856919400E+01  0.53519292872E+01  0.34335133386E+02  0.34781647119E+02  0.10566000000E+00 0.  1.
        -14    1    4    4    0    0  0.10378135795E+00  0.30879234158E+01  0.17387906360E+02  0.17660275455E+02  0.00000000000E+00 0.  1.
<mgrwt>
<rscale>  0 0.80806651E+02</rscale>
<asrwt>0</asrwt>
<pdfrwt beam="1">  1        1 0.39856134E-02 0.80806651E+02</pdfrwt>
<pdfrwt beam="2">  1       -2 0.96942081E-02 0.80806651E+02</pdfrwt>
<totfact> 0.11435724E+05</totfact>
</mgrwt>
</event>
<event>
 8    1  0.1319619E-024  0.8164846E+02  0.7818608E-02  0.1324437E+00
         -2   -1    0    0    0  501 -0.00000000000E+00  0.00000000000E+00  0.25956653077E+02  0.25956653202E+02  0.25500000000E-02 0.  1.
          1   -1    0    0  501    0  0.00000000000E+00 -0.00000000000E+00 -0.64207734955E+02  0.64207735153E+02  0.50400000000E-02 0. -1.
        -24    2    1    2    0    0  0.35527136788E-14  0.00000000000E+00 -0.38251081878E+02  0.90164388355E+02  0.81648463933E+02 0.  0.
         66    2    3    3    0    0  0.27386950079E+02  0.14861798219E+02  0.99481620451E+01  0.32770169485E+02  0.19999997712E+01 0.  0.
         13    1    3    3    0    0 -0.27386950079E+02 -0.14861798219E+02 -0.48199243923E+02  0.57394218870E+02  0.10566000000E+00 0. -1.
         13    1    4    4    0    0  0.12484245655E+02  0.65436433838E+01  0.53128878359E+01  0.15063651599E+02  0.10566000000E+00 0. -1.
        -13    1    4    4    0    0  0.57171982046E+01  0.29832381304E+01  0.21358624425E+01  0.67940516235E+01  0.10566000000E+00 0.  1.
         14    1    4    4    0    0  0.91855062194E+01  0.53349167043E+01  0.24994117667E+01  0.10912466262E+02  0.00000000000E+00 0. -1.
<mgrwt>
<rscale>  0 0.81648464E+02</rscale>
<asrwt>0</asrwt>
<pdfrwt beam="1">  1        1 0.98781131E-02 0.81648464E+02</pdfrwt>
<pdfrwt beam="2">  1       -2 0.39933313E-02 0.81648464E+02</pdfrwt>
<totfact> 0.12936090E+05</totfact>
</mgrwt>
</event>
<event>
 8    1  0.1319619E-024  0.7895662E+02  0.7818608E-02  0.1332039E+00
          1   -1    0    0  501    0  0.00000000000E+00  0.00000000000E+00  0.69875212806E+01  0.69875230982E+01  0.50400000000E-02 0. -1.
         -2   -1    0    0    0  501 -0.00000000000E+00 -0.00000000000E+00 -0.22304571429E+03  0.22304571431E+03  0.25500000000E-02 0.  1.
        -24    2    1    2    0    0  0.22204460493E-15  0.00000000000E+00 -0.21605819301E+03  0.23003323741E+03  0.78956618112E+02 0.  0.
         66    2    3    3    0    0  0.17024930451E+01  0.38182378364E+02 -0.79591479856E+02  0.88315322293E+02  0.19999964972E+01 0.  0.
         13    1    3    3    0    0 -0.17024930451E+01 -0.38182378364E+02 -0.13646671316E+03  0.14171791511E+03  0.10566000000E+00 0. -1.
         13    1    4    4    0    0 -0.50681101841E-01  0.88533072843E+01 -0.17197609991E+02  0.19343023855E+02  0.10566000000E+00 0. -1.
        -13    1    4    4    0    0  0.15321933296E+01  0.28369278853E+02 -0.60185695151E+02  0.66554433841E+02  0.10566000000E+00 0.  1.
        -14    1    4    4    0    0  0.22098081736E+00  0.95979222695E+00 -0.22081747135E+01  0.24178645963E+01  0.00000000000E+00 0.  1.
<mgrwt>
<rscale>  0 0.78956618E+02</rscale>
<asrwt>0</asrwt>
<pdfrwt beam="1">  1        1 0.10750036E-02 0.78956618E+02</pdfrwt>
<pdfrwt beam="2">  1       -2 0.34314720E-01 0.78956618E+02</pdfrwt>
<totfact> 0.84047413E+04</totfact>
</mgrwt>
</event>
<event>
 8    1  0.1319619E-024  0.7945462E+02  0.7818608E-02  0.1330606E+00
         -2   -1    0    0    0  501 -0.00000000000E+00  0.00000000000E+00  0.10519315630E+03  0.10519315633E+03  0.25500000000E-02 0.  1.
          1   -1    0    0  501    0  0.00000000000E+00 -0.00000000000E+00 -0.15003437921E+02  0.15003438768E+02  0.50400000000E-02 0. -1.
        -24    2    1    2    0    0  0.35527136788E-14  0.35527136788E-14  0.90189718379E+02  0.12019659510E+03  0.79454617060E+02 0.  0.
         66    2    3    3    0    0  0.86125799756E+01  0.11800861995E+02  0.10096932108E+03  0.10204038745E+03  0.19999985271E+01 0.  0.
         13    1    3    3    0    0 -0.86125799756E+01 -0.11800861995E+02 -0.10779602702E+02  0.18156207647E+02  0.10566000000E+00 0. -1.
         13    1    4    4    0    0  0.47534505830E+00  0.79493471327E+00  0.81623425917E+01  0.82154047218E+01  0.10566000000E+00 0.  1.
        -13    1    4    4    0    0  0.16041921597E+00  0.33948463435E+00  0.47998033170E+01  0.48156266528E+01  0.10566000000E+00 0.  1.
        -14    1    4    4    0    0  0.79768157014E+01  0.10666442647E+02  0.88007175173E+02  0.89009356078E+02  0.00000000000E+00 0.  1.
<mgrwt>
<rscale>  0 0.79454617E+02</rscale>
<asrwt>0</asrwt>
<pdfrwt beam="1">  1        1 0.23082213E-02 0.79454617E+02</pdfrwt>
<pdfrwt beam="2">  1       -2 0.16183562E-01 0.79454617E+02</pdfrwt>
<totfact> 0.10663232E+05</totfact>
</mgrwt>
</event>
<event>
 8    1  0.1319619E-024  0.8110346E+02  0.7818608E-02  0.1325949E+00
         -2   -1    0    0    0  501 -0.00000000000E+00  0.00000000000E+00  0.32310243802E+02  0.32310243902E+02  0.25500000000E-02 0.  1.
          1   -1    0    0  501    0  0.00000000000E+00 -0.00000000000E+00 -0.50895401131E+02  0.50895401381E+02  0.50400000000E-02 0. -1.
        -24    2    1    2    0    0 -0.17763568394E-14  0.35527136788E-14 -0.18585157329E+02  0.83205645283E+02  0.81103460678E+02 0.  0.
         66    2    3    3    0    0 -0.15666764482E+02 -0.18070537155E+02  0.24267492979E+02  0.34130675849E+02  0.19999989984E+01 0.  0.
         13    1    3    3    0    0  0.15666764482E+02  0.18070537155E+02 -0.42852650309E+02  0.49074969434E+02  0.10566000000E+00 0. -1.
         13    1    4    4    0    0 -0.84338623989E+00 -0.88746231814E+00  0.10525424369E+01  0.16179923773E+01  0.10566000000E+00 0. -1.
        -13    1    4    4    0    0 -0.14770221214E+02 -0.17084869973E+02  0.23231155594E+02  0.32399845230E+02  0.10566000000E+00 0.  1.
         14    1    4    4    0    0 -0.53157028779E-01 -0.98204863970E-01 -0.16205051486E-01  0.11283824134E+00  0.00000000000E+00 0. -1.
<mgrwt>
<rscale>  0 0.81103461E+02</rscale>
<asrwt>0</asrwt>
<pdfrwt beam="1">  1        1 0.78300617E-02 0.81103461E+02</pdfrwt>
<pdfrwt beam="2">  1       -2 0.49708068E-02 0.81103461E+02</pdfrwt>
<totfact> 0.12700448E+05</totfact>
</mgrwt>
</event>
<event>
 8    1  0.1319619E-024  0.7958826E+02  0.7818608E-02  0.1330224E+00
          1   -1    0    0  501    0  0.00000000000E+00  0.00000000000E+00  0.22100748188E+03  0.22100748194E+03  0.50400000000E-02 0. -1.
         -2   -1    0    0    0  501 -0.00000000000E+00 -0.00000000000E+00 -0.71652441595E+01  0.71652446132E+01  0.25500000000E-02 0.  1.
        -24    2    1    2    0    0 -0.17763568394E-14  0.71054273576E-14  0.21384223772E+03  0.22817272655E+03  0.79588256095E+02 0.  0.
         66    2    3    3    0    0 -0.14629495084E+02  0.32403499429E+02  0.55899520054E+02  0.66277939329E+02  0.19999994362E+01 0.  0.
         13    1    3    3    0    0  0.14629495084E+02 -0.32403499429E+02  0.15794271767E+03  0.16189478722E+03  0.10566000000E+00 0. -1.
         13    1    4    4    0    0 -0.54260890213E+01  0.10311317652E+02  0.17538921394E+02  0.21056843104E+02  0.10566000000E+00 0. -1.
        -13    1    4    4    0    0 -0.20442492906E+01  0.53798207780E+01  0.87101413581E+01  0.10440265958E+02  0.10566000000E+00 0.  1.
         14    1    4    4    0    0 -0.71591567725E+01  0.16712360999E+02  0.29650457302E+02  0.34780830267E+02  0.00000000000E+00 0. -1.
<mgrwt>
<rscale>  0 0.79588256E+02</rscale>
<asrwt>0</asrwt>
<pdfrwt beam="1">  1        1 0.34001150E-01 0.79588256E+02</pdfrwt>
<pdfrwt beam="2">  1       -2 0.11023453E-02 0.79588256E+02</pdfrwt>
<totfact> 0.17235406E+05</totfact>
</mgrwt>
</event>
<event>
 8    1  0.1319619E-024  0.7675264E+02  0.7818608E-02  0.1338528E+00
         -2   -1    0    0    0  501 -0.00000000000E+00  0.00000000000E+00  0.12768620200E+03  0.12768620203E+03  0.25500000000E-02 0.  1.
          1   -1    0    0  501    0  0.00000000000E+00 -0.00000000000E+00 -0.11534071098E+02  0.11534072199E+02  0.50400000000E-02 0. -1.
        -24    2    1    2    0    0  0.00000000000E+00  0.00000000000E+00  0.11615213091E+03  0.13922027423E+03  0.76752636711E+02 0.  0.
         66    2    3    3    0    0  0.38010115606E+02  0.48791178567E+01  0.60782611992E+02  0.71882547297E+02  0.20000014555E+01 0.  0.
         13    1    3    3    0    0 -0.38010115606E+02 -0.48791178567E+01  0.55369518914E+02  0.67337726931E+02  0.10566000000E+00 0. -1.
         13    1    4    4    0    0  0.14952268429E+01  0.27136074790E+00  0.27506120752E+01  0.31442599751E+01  0.10566000000E+00 0.  1.
        -13    1    4    4    0    0  0.24846766452E+02  0.31011319736E+01  0.40877451294E+02  0.47937000438E+02  0.10566000000E+00 0.  1.
        -14    1    4    4    0    0  0.11668122311E+02  0.15066251353E+01  0.17154548623E+02  0.20801286884E+02  0.00000000000E+00 0.  1.
<mgrwt>
<rscale>  0 0.76752637E+02</rscale>
<asrwt>0</asrwt>
<pdfrwt beam="1">  1        1 0.17744727E-02 0.76752637E+02</pdfrwt>
<pdfrwt beam="2">  1       -2 0.19644030E-01 0.76752637E+02</pdfrwt>
<totfact> 0.11050674E+05</totfact>
</mgrwt>
</event>
<event>
 8    1  0.1319619E-024  0.8076434E+02  0.7818608E-02  0.1326896E+00
          1   -1    0    0  501    0  0.00000000000E+00  0.00000000000E+00  0.31560071498E+03  0.31560071502E+03  0.50400000000E-02 0. -1.
         -2   -1    0    0    0  501 -0.00000000000E+00 -0.00000000000E+00 -0.51670337422E+01  0.51670343714E+01  0.25500000000E-02 0.  1.
        -24    2    1    2    0    0  0.00000000000E+00  0.00000000000E+00  0.31043368124E+03  0.32076774940E+03  0.80764339922E+02 0.  0.
         66    2    3    3    0    0 -0.10143496208E+02  0.39020850902E+02  0.14820999103E+03  0.15360898011E+03  0.20000019325E+01 0.  0.
         13    1    3    3    0    0  0.10143496208E+02 -0.39020850902E+02  0.16222369021E+03  0.16715876929E+03  0.10566000000E+00 0. -1.
         13    1    4    4    0    0 -0.24349484427E+01  0.11718893589E+02  0.41564961370E+02  0.43254116782E+02  0.10566000000E+00 0. -1.
        -13    1    4    4    0    0 -0.29416618720E+01  0.96757709626E+01  0.37870269127E+02  0.39197479078E+02  0.10566000000E+00 0.  1.
         14    1    4    4    0    0 -0.47668858936E+01  0.17626186350E+02  0.68774760533E+02  0.71157384247E+02  0.00000000000E+00 0. -1.
<mgrwt>
<rscale>  0 0.80764340E+02</rscale>
<asrwt>0</asrwt>
<pdfrwt beam="1">  1        1 0.48553954E-01 0.80764340E+02</pdfrwt>
<pdfrwt beam="2">  1       -2 0.79492835E-03 0.80764340E+02</pdfrwt>
<totfact> 0.17764292E+05</totfact>
</mgrwt>
</event>
<event>
 8    1  0.1319619E-024  0.8017477E+02  0.7818608E-02  0.1328556E+00
          1   -1    0    0  501    0  0.00000000000E+00  0.00000000000E+00  0.27534938664E+02  0.27534939125E+02  0.50400000000E-02 0. -1.
         -2   -1    0    0    0  501 -0.00000000000E+00 -0.00000000000E+00 -0.58362153022E+02  0.58362153078E+02  0.25500000000E-02 0.  1.
        -24    2    1    2    0    0 -0.22204460493E-15  0.00000000000E+00 -0.30827214359E+02  0.85897092203E+02  0.80174767252E+02 0.  0.
         66    2    3    3    0    0 -0.11291269715E+01 -0.39926144368E+02 -0.18746403199E+02  0.44167856719E+02  0.20000006021E+01 0.  0.
         13    1    3    3    0    0  0.11291269715E+01  0.39926144368E+02 -0.12080811160E+02  0.41729235484E+02  0.10566000000E+00 0. -1.
         13    1    4    4    0    0 -0.16600877315E+00 -0.14681828550E+02 -0.63201851434E+01  0.15985604548E+02  0.10566000000E+00 0. -1.
        -13    1    4    4    0    0 -0.83807046058E+00 -0.14430957893E+02 -0.77276267445E+01  0.16391530952E+02  0.10566000000E+00 0.  1.
        -14    1    4    4    0    0 -0.12504773775E+00 -0.10813357925E+02 -0.46985913111E+01  0.11790721219E+02  0.00000000000E+00 0.  1.
<mgrwt>
<rscale>  0 0.80174767E+02</rscale>
<asrwt>0</asrwt>
<pdfrwt beam="1">  1        1 0.42361445E-02 0.80174767E+02</pdfrwt>
<pdfrwt beam="2">  1       -2 0.89787927E-02 0.80174767E+02</pdfrwt>
<totfact> 0.11834399E+05</totfact>
</mgrwt>
</event>
<event>
 8    1  0.1319619E-024  0.7818741E+02  0.7818608E-02  0.1334275E+00
          1   -1    0    0  501    0  0.00000000000E+00  0.00000000000E+00  0.65330157810E+02  0.65330158004E+02  0.50400000000E-02 0. -1.
         -2   -1    0    0    0  501 -0.00000000000E+00 -0.00000000000E+00 -0.23393753269E+02  0.23393753408E+02  0.25500000000E-02 0.  1.
        -24    2    1    2    0    0  0.00000000000E+00  0.00000000000E+00  0.41936404541E+02  0.88723911412E+02  0.78187405830E+02 0.  0.
         66    2    3    3    0    0  0.16927486230E+02  0.32533892686E+02  0.57018195770E+01  0.37168598641E+02  0.20000037573E+01 0.  0.
         13    1    3    3    0    0 -0.16927486230E+02 -0.32533892686E+02  0.36234584964E+02  0.51555312771E+02  0.10566000000E+00 0. -1.
         13    1    4    4    0    0  0.84255772397E+00  0.14558201226E+01  0.16040904564E+00  0.16929887316E+01  0.10566000000E+00 0. -1.
        -13    1    4    4    0    0  0.10126257779E+02  0.17752784603E+02  0.29307765689E+01  0.20647108105E+02  0.10566000000E+00 0.  1.
         14    1    4    4    0    0  0.59586707275E+01  0.13325287961E+02  0.26106339625E+01  0.14828501804E+02  0.00000000000E+00 0. -1.
<mgrwt>
<rscale>  0 0.78187406E+02</rscale>
<asrwt>0</asrwt>
<pdfrwt beam="1">  1        1 0.10050794E-01 0.78187406E+02</pdfrwt>
<pdfrwt beam="2">  1       -2 0.35990390E-02 0.78187406E+02</pdfrwt>
<totfact> 0.14610012E+05</totfact>
</mgrwt>
</event>
<event>
 8    1  0.1319619E-024  0.7907674E+02  0.7818608E-02  0.1331692E+00
         -2   -1    0    0    0  501 -0.00000000000E+00  0.00000000000E+00  0.35295678206E+02  0.35295678298E+02  0.25500000000E-02 0.  1.
          1   -1    0    0  501    0  0.00000000000E+00 -0.00000000000E+00 -0.44291054141E+02  0.44291054427E+02  0.50400000000E-02 0. -1.
        -24    2    1    2    0    0  0.00000000000E+00 -0.88817841970E-15 -0.89953759344E+01  0.79586732726E+02  0.79076742711E+02 0.  0.
         66    2    3    3    0    0  0.20087550013E+02 -0.59741004953E+01  0.29212915712E+02  0.36008248850E+02  0.19999996430E+01 0.  0.
         13    1    3    3    0    0 -0.20087550013E+02  0.59741004953E+01 -0.38208291647E+02  0.43578483875E+02  0.10566000000E+00 0. -1.
         13    1    4    4    0    0  0.15811498150E+01 -0.26739148843E+00  0.28029109519E+01  0.32309451845E+01  0.10566000000E+00 0. -1.
        -13    1    4    4    0    0  0.64008494005E+01 -0.13468886506E+01  0.92326159713E+01  0.11315358757E+02  0.10566000000E+00 0.  1.
         14    1    4    4    0    0  0.12105550798E+02 -0.43598203563E+01  0.17177388789E+02  0.21461944909E+02  0.00000000000E+00 0. -1.
<mgrwt>
<rscale>  0 0.79076743E+02</rscale>
<asrwt>0</asrwt>
<pdfrwt beam="1">  1        1 0.68140084E-02 0.79076743E+02</pdfrwt>
<pdfrwt beam="2">  1       -2 0.54301044E-02 0.79076743E+02</pdfrwt>
<totfact> 0.13333179E+05</totfact>
</mgrwt>
</event>
<event>
 8    1  0.1319619E-024  0.8301297E+02  0.7818608E-02  0.1320712E+00
         -2   -1    0    0    0  501 -0.00000000000E+00  0.00000000000E+00  0.94917123720E+01  0.94917127146E+01  0.25500000000E-02 0.  1.
          1   -1    0    0  501    0  0.00000000000E+00 -0.00000000000E+00 -0.18150447184E+03  0.18150447191E+03  0.50400000000E-02 0. -1.
        -24    2    1    2    0    0  0.00000000000E+00  0.00000000000E+00 -0.17201275946E+03  0.19099618462E+03  0.83012969596E+02 0.  0.
         66    2    3    3    0    0  0.40015855016E+02  0.10480797741E+02 -0.93209934373E+02  0.10199611619E+03  0.20000195957E+01 0.  0.
         13    1    3    3    0    0 -0.40015855016E+02 -0.10480797741E+02 -0.78802825091E+02  0.89000068429E+02  0.10566000000E+00 0. -1.
         13    1    4    4    0    0  0.21759882457E+02  0.64611590706E+01 -0.52433535522E+02  0.57136029548E+02  0.10566000000E+00 0. -1.
        -13    1    4    4    0    0  0.10689040451E+02  0.25893999051E+01 -0.23757529844E+02  0.26179991710E+02  0.10566000000E+00 0.  1.
         14    1    4    4    0    0  0.75669321084E+01  0.14302387655E+01 -0.17018869007E+02  0.18680094934E+02  0.00000000000E+00 0. -1.
<mgrwt>
<rscale>  0 0.83012970E+02</rscale>
<asrwt>0</asrwt>
<pdfrwt beam="1">  1        1 0.27923762E-01 0.83012970E+02</pdfrwt>
<pdfrwt beam="2">  1       -2 0.14602636E-02 0.83012970E+02</pdfrwt>
<totfact> 0.14828459E+05</totfact>
</mgrwt>
</event>
<event>
 8    1  0.1319619E-024  0.7956228E+02  0.7818608E-02  0.1330298E+00
         -2   -1    0    0    0  501 -0.00000000000E+00  0.00000000000E+00  0.54584892363E+01  0.54584898319E+01  0.25500000000E-02 0.  1.
          1   -1    0    0  501    0  0.00000000000E+00 -0.00000000000E+00 -0.28992256166E+03  0.28992256170E+03  0.50400000000E-02 0. -1.
        -24    2    1    2    0    0  0.00000000000E+00  0.00000000000E+00 -0.28446407242E+03  0.29538105153E+03  0.79562284447E+02 0.  0.
         66    2    3    3    0    0  0.35152692641E+02 -0.97732370514E+01 -0.83702167194E+02  0.91330612384E+02  0.20000007910E+01 0.  0.
         13    1    3    3    0    0 -0.35152692641E+02  0.97732370514E+01 -0.20076190523E+03  0.20405043915E+03  0.10566000000E+00 0. -1.
         13    1    4    4    0    0  0.26327985225E+01 -0.55063718901E+00 -0.71439310369E+01  0.76342481011E+01  0.10566000000E+00 0. -1.
        -13    1    4    4    0    0  0.31206927967E+02 -0.86105610922E+01 -0.73300219427E+02  0.80130814594E+02  0.10566000000E+00 0.  1.
        -14    1    4    4    0    0  0.13129661517E+01 -0.61203877023E+00 -0.32580167300E+01  0.35655496890E+01  0.00000000000E+00 0.  1.
<mgrwt>
<rscale>  0 0.79562284E+02</rscale>
<asrwt>0</asrwt>
<pdfrwt beam="1">  1        1 0.44603459E-01 0.79562284E+02</pdfrwt>
<pdfrwt beam="2">  1       -2 0.83976785E-03 0.79562284E+02</pdfrwt>
<totfact> 0.18185289E+05</totfact>
</mgrwt>
</event>
<event>
 8    1  0.1319619E-024  0.7627186E+02  0.7818608E-02  0.1339977E+00
         -2   -1    0    0    0  501 -0.00000000000E+00  0.00000000000E+00  0.59874287859E+03  0.59874287859E+03  0.25500000000E-02 0.  1.
          1   -1    0    0  501    0  0.00000000000E+00 -0.00000000000E+00 -0.24290019642E+01  0.24290071930E+01  0.50400000000E-02 0. -1.
        -24    2    1    2    0    0  0.00000000000E+00  0.00000000000E+00  0.59631387662E+03  0.60117188579E+03  0.76271861168E+02 0.  0.
         66    2    3    3    0    0  0.35187450685E+02 -0.98430604091E+01  0.38372771007E+03  0.38546854345E+03  0.19999961959E+01 0.  0.
         13    1    3    3    0    0 -0.35187450685E+02  0.98430604091E+01  0.21258616655E+03  0.21570334234E+03  0.10566000000E+00 0. -1.
         13    1    4    4    0    0  0.14129438446E+02 -0.41883758385E+01  0.16240742083E+03  0.16307472223E+03  0.10566000000E+00 0.  1.
        -13    1    4    4    0    0  0.17090018199E+02 -0.43103976273E+01  0.17607522447E+03  0.17695520361E+03  0.10566000000E+00 0. -1.
         14    1    4    4    0    0  0.39679940410E+01 -0.13442869433E+01  0.45245064771E+02  0.45438617609E+02  0.00000000000E+00 0. -1.
<mgrwt>
<rscale>  0 0.76271861E+02</rscale>
<asrwt>0</asrwt>
<pdfrwt beam="1">  1        1 0.37369242E-03 0.76271861E+02</pdfrwt>
<pdfrwt beam="2">  1       -2 0.92114435E-01 0.76271861E+02</pdfrwt>
<totfact> 0.49243497E+04</totfact>
</mgrwt>
</event>
<event>
 8    1  0.1319619E-024  0.7970010E+02  0.7818608E-02  0.1329905E+00
         -2   -1    0    0    0  501 -0.00000000000E+00  0.00000000000E+00  0.39750483668E+01  0.39750491847E+01  0.25500000000E-02 0.  1.
          1   -1    0    0  501    0  0.00000000000E+00 -0.00000000000E+00 -0.39949857161E+03  0.39949857164E+03  0.50400000000E-02 0. -1.
        -24    2    1    2    0    0  0.35527136788E-14  0.00000000000E+00 -0.39552352324E+03  0.40347362082E+03  0.79700095760E+02 0.  0.
         66    2    3    3    0    0  0.28259328152E+02  0.28060601439E+02 -0.19694729138E+03  0.20094333172E+03  0.19999999786E+01 0.  0.
         13    1    3    3    0    0 -0.28259328152E+02 -0.28060601439E+02 -0.19857623186E+03  0.20253028911E+03  0.10566000000E+00 0. -1.
         13    1    4    4    0    0  0.11062888787E+02  0.10978869342E+02 -0.77242102727E+02  0.78798963687E+02  0.10566000000E+00 0.  1.
        -13    1    4    4    0    0  0.50952924563E+01  0.47612484092E+01 -0.31188879485E+02  0.31959174882E+02  0.10566000000E+00 0. -1.
         14    1    4    4    0    0  0.12101146908E+02  0.12320483688E+02 -0.88516309168E+02  0.90185193150E+02  0.00000000000E+00 0. -1.
<mgrwt>
<rscale>  0 0.79700096E+02</rscale>
<asrwt>0</asrwt>
<pdfrwt beam="1">  1        1 0.61461288E-01 0.79700096E+02</pdfrwt>
<pdfrwt beam="2">  1       -2 0.61154628E-03 0.79700096E+02</pdfrwt>
<totfact> 0.19177803E+05</totfact>
</mgrwt>
</event>
<event>
 8    1  0.1319619E-024  0.7950394E+02  0.7818608E-02  0.1330465E+00
          1   -1    0    0  501    0  0.00000000000E+00  0.00000000000E+00  0.33028859586E+02  0.33028859970E+02  0.50400000000E-02 0. -1.
         -2   -1    0    0    0  501 -0.00000000000E+00 -0.00000000000E+00 -0.47843583425E+02  0.47843583493E+02  0.25500000000E-02 0.  1.
        -24    2    1    2    0    0  0.00000000000E+00  0.00000000000E+00 -0.14814723840E+02  0.80872443464E+02  0.79503937446E+02 0.  0.
         66    2    3    3    0    0 -0.27835281279E+02 -0.23678387862E+02 -0.23260500829E+02  0.43364960895E+02  0.19999997384E+01 0.  0.
         13    1    3    3    0    0  0.27835281279E+02  0.23678387862E+02  0.84457769897E+01  0.37507482569E+02  0.10566000000E+00 0. -1.
         13    1    4    4    0    0 -0.21660542640E+01 -0.14038381501E+01 -0.15432389909E+01  0.30092030913E+01  0.10566000000E+00 0. -1.
        -13    1    4    4    0    0 -0.72372133342E+01 -0.66923880480E+01 -0.69341956678E+01  0.12052366914E+02  0.10566000000E+00 0.  1.
         14    1    4    4    0    0 -0.18432013681E+02 -0.15582161664E+02 -0.14783066171E+02  0.28303390890E+02  0.00000000000E+00 0. -1.
<mgrwt>
<rscale>  0 0.79503937E+02</rscale>
<asrwt>0</asrwt>
<pdfrwt beam="1">  1        1 0.50813631E-02 0.79503937E+02</pdfrwt>
<pdfrwt beam="2">  1       -2 0.73605513E-02 0.79503937E+02</pdfrwt>
<totfact> 0.12519102E+05</totfact>
</mgrwt>
</event>
<event>
 8    1  0.1319619E-024  0.8025000E+02  0.7818608E-02  0.1328343E+00
          1   -1    0    0  501    0  0.00000000000E+00  0.00000000000E+00  0.26299887321E+03  0.26299887325E+03  0.50400000000E-02 0. -1.
         -2   -1    0    0    0  501 -0.00000000000E+00 -0.00000000000E+00 -0.61217584939E+01  0.61217590250E+01  0.25500000000E-02 0.  1.
        -24    2    1    2    0    0  0.00000000000E+00  0.00000000000E+00  0.25687711471E+03  0.26912063228E+03  0.80250000969E+02 0.  0.
         66    2    3    3    0    0  0.29165008823E+02 -0.19049203809E+02  0.19512940880E+03  0.19822450929E+03  0.19999997820E+01 0.  0.
         13    1    3    3    0    0 -0.29165008823E+02  0.19049203809E+02  0.61747705908E+02  0.70896122986E+02  0.10566000000E+00 0. -1.
         13    1    4    4    0    0  0.66968640876E+01 -0.48474986462E+01  0.43593101537E+02  0.44370214078E+02  0.10566000000E+00 0. -1.
        -13    1    4    4    0    0  0.14601269083E+02 -0.98625774967E+01  0.10116718423E+03  0.10269020315E+03  0.10566000000E+00 0.  1.
         14    1    4    4    0    0  0.78668756528E+01 -0.43391276663E+01  0.50369123040E+02  0.51164092069E+02  0.00000000000E+00 0. -1.
<mgrwt>
<rscale>  0 0.80250001E+02</rscale>
<asrwt>0</asrwt>
<pdfrwt beam="1">  1        1 0.40461362E-01 0.80250001E+02</pdfrwt>
<pdfrwt beam="2">  1       -2 0.94180912E-03 0.80250001E+02</pdfrwt>
<totfact> 0.17443987E+05</totfact>
</mgrwt>
</event>
<event>
 8    1  0.1319619E-024  0.7931689E+02  0.7818608E-02  0.1331001E+00
         -2   -1    0    0    0  501 -0.00000000000E+00  0.00000000000E+00  0.38771752851E+01  0.38771761237E+01  0.25500000000E-02 0.  1.
          1   -1    0    0  501    0  0.00000000000E+00 -0.00000000000E+00 -0.40565409753E+03  0.40565409756E+03  0.50400000000E-02 0. -1.
        -24    2    1    2    0    0  0.00000000000E+00  0.00000000000E+00 -0.40177692224E+03  0.40953127368E+03  0.79316888980E+02 0.  0.
         66    2    3    3    0    0  0.33642510676E+02  0.16783413454E+02 -0.26576976203E+03  0.26842329983E+03  0.19999976002E+01 0.  0.
         13    1    3    3    0    0 -0.33642510676E+02 -0.16783413454E+02 -0.13600716022E+03  0.14110797386E+03  0.10566000000E+00 0. -1.
         13    1    4    4    0    0  0.18197690029E+01  0.10168388288E+01 -0.14928553312E+02  0.15073764906E+02  0.10566000000E+00 0.  1.
        -13    1    4    4    0    0  0.50988327973E+00  0.41567070894E-01 -0.38186567591E+01  0.38542200586E+01  0.10566000000E+00 0.  1.
        -14    1    4    4    0    0  0.31312858393E+02  0.15725007554E+02 -0.24702255196E+03  0.24949531486E+03  0.00000000000E+00 0.  1.
<mgrwt>
<rscale>  0 0.79316889E+02</rscale>
<asrwt>0</asrwt>
<pdfrwt beam="1">  1        1 0.62408289E-01 0.79316889E+02</pdfrwt>
<pdfrwt beam="2">  1       -2 0.59648889E-03 0.79316889E+02</pdfrwt>
<totfact> 0.19470195E+05</totfact>
</mgrwt>
</event>
<event>
 8    1  0.1319619E-024  0.7797867E+02  0.7818608E-02  0.1334888E+00
         -2   -1    0    0    0  501 -0.00000000000E+00  0.00000000000E+00  0.84960147235E+02  0.84960147273E+02  0.25500000000E-02 0.  1.
          1   -1    0    0  501    0  0.00000000000E+00 -0.00000000000E+00 -0.17892720054E+02  0.17892720764E+02  0.50400000000E-02 0. -1.
        -24    2    1    2    0    0  0.00000000000E+00  0.00000000000E+00  0.67067427180E+02  0.10285286804E+03  0.77978668076E+02 0.  0.
         66    2    3    3    0    0  0.25073879197E+02 -0.29811706901E+02  0.34679525192E+02  0.52192976154E+02  0.20000014905E+01 0.  0.
         13    1    3    3    0    0 -0.25073879197E+02  0.29811706901E+02  0.32387901989E+02  0.50659891883E+02  0.10566000000E+00 0. -1.
         13    1    4    4    0    0  0.20350454441E+02 -0.24062490030E+02  0.28504439749E+02  0.42493042628E+02  0.10566000000E+00 0. -1.
        -13    1    4    4    0    0  0.37074543311E+01 -0.44429350346E+01  0.51916299730E+01  0.77749003306E+01  0.10566000000E+00 0.  1.
         14    1    4    4    0    0  0.10159704249E+01 -0.13062818366E+01  0.98345546994E+00  0.19250331951E+01  0.00000000000E+00 0. -1.
<mgrwt>
<rscale>  0 0.77978668E+02</rscale>
<asrwt>0</asrwt>
<pdfrwt beam="1">  1        1 0.27527263E-02 0.77978668E+02</pdfrwt>
<pdfrwt beam="2">  1       -2 0.13070792E-01 0.77978668E+02</pdfrwt>
<totfact> 0.11772938E+05</totfact>
</mgrwt>
</event>
<event>
 8    1  0.1319619E-024  0.8048376E+02  0.7818608E-02  0.1327684E+00
         -2   -1    0    0    0  501 -0.00000000000E+00  0.00000000000E+00  0.87865179015E+01  0.87865182715E+01  0.25500000000E-02 0.  1.
          1   -1    0    0  501    0  0.00000000000E+00 -0.00000000000E+00 -0.18430611784E+03  0.18430611791E+03  0.50400000000E-02 0. -1.
        -24    2    1    2    0    0 -0.35527136788E-14  0.35527136788E-14 -0.17551959994E+03  0.19309263618E+03  0.80483763485E+02 0.  0.
         66    2    3    3    0    0  0.29624334827E+02 -0.23940211798E+02 -0.56840719690E+02  0.68451460255E+02  0.20000103363E+01 0.  0.
         13    1    3    3    0    0 -0.29624334827E+02  0.23940211798E+02 -0.11867888025E+03  0.12464117593E+03  0.10566000000E+00 0. -1.
         13    1    4    4    0    0  0.33576012570E+00 -0.16435348992E+00 -0.49791670125E+00  0.63153147875E+00  0.10566000000E+00 0.  1.
        -13    1    4    4    0    0  0.16110883431E+02 -0.12457256121E+02 -0.31283501826E+02  0.37328440170E+02  0.10566000000E+00 0.  1.
        -14    1    4    4    0    0  0.13177691270E+02 -0.11318602188E+02 -0.25059301163E+02  0.30491488607E+02  0.00000000000E+00 0.  1.
<mgrwt>
<rscale>  0 0.80483763E+02</rscale>
<asrwt>0</asrwt>
<pdfrwt beam="1">  1        1 0.28354785E-01 0.80483763E+02</pdfrwt>
<pdfrwt beam="2">  1       -2 0.13517721E-02 0.80483763E+02</pdfrwt>
<totfact> 0.16151568E+05</totfact>
</mgrwt>
</event>
<event>
 8    1  0.1319619E-024  0.8071517E+02  0.7818608E-02  0.1327034E+00
         -2   -1    0    0    0  501 -0.00000000000E+00  0.00000000000E+00  0.52650866743E+03  0.52650866744E+03  0.25500000000E-02 0.  1.
          1   -1    0    0  501    0  0.00000000000E+00 -0.00000000000E+00 -0.30934601502E+01  0.30934642559E+01  0.50400000000E-02 0. -1.
        -24    2    1    2    0    0  0.00000000000E+00  0.00000000000E+00  0.52341520728E+03  0.52960213169E+03  0.80715170081E+02 0.  0.
         66    2    3    3    0    0  0.26377074428E+02 -0.17321492467E+02  0.42668046963E+03  0.42785044970E+03  0.19999963417E+01 0.  0.
         13    1    3    3    0    0 -0.26377074428E+02  0.17321492467E+02  0.96734737647E+02  0.10175168199E+03  0.10566000000E+00 0. -1.
         13    1    4    4    0    0  0.20486741499E+02 -0.13375204750E+02  0.32750369571E+03  0.32841632808E+03  0.10566000000E+00 0. -1.
        -13    1    4    4    0    0  0.56841502569E+01 -0.38819840593E+01  0.97621256135E+02  0.97863681608E+02  0.10566000000E+00 0.  1.
         14    1    4    4    0    0  0.20618267229E+00 -0.64303657170E-01  0.15555177868E+01  0.15704400147E+01  0.00000000000E+00 0. -1.
<mgrwt>
<rscale>  0 0.80715170E+02</rscale>
<asrwt>0</asrwt>
<pdfrwt beam="1">  1        1 0.47591713E-03 0.80715170E+02</pdfrwt>
<pdfrwt beam="2">  1       -2 0.81001357E-01 0.80715170E+02</pdfrwt>
<totfact> 0.47298619E+04</totfact>
</mgrwt>
</event>
<event>
 8    1  0.1319619E-024  0.8095506E+02  0.7818608E-02  0.1326363E+00
          1   -1    0    0  501    0  0.00000000000E+00  0.00000000000E+00  0.16216562691E+02  0.16216563474E+02  0.50400000000E-02 0. -1.
         -2   -1    0    0    0  501 -0.00000000000E+00 -0.00000000000E+00 -0.10103439385E+03  0.10103439388E+03  0.25500000000E-02 0.  1.
        -24    2    1    2    0    0  0.00000000000E+00  0.00000000000E+00 -0.84817831156E+02  0.11725095735E+03  0.80955064808E+02 0.  0.
         66    2    3    3    0    0 -0.65655127077E+01  0.39770590506E+02 -0.47371830250E+02  0.62232597016E+02  0.20000009479E+01 0.  0.
         13    1    3    3    0    0  0.65655127077E+01 -0.39770590506E+02 -0.37446000906E+02  0.55018360337E+02  0.10566000000E+00 0. -1.
         13    1    4    4    0    0 -0.24594969689E+01  0.12080932458E+02 -0.14535766233E+02  0.19060370363E+02  0.10566000000E+00 0. -1.
        -13    1    4    4    0    0 -0.27529860755E+01  0.15382869603E+02 -0.19140120341E+02  0.24709653584E+02  0.10566000000E+00 0.  1.
         14    1    4    4    0    0 -0.13530296633E+01  0.12306788445E+02 -0.13695943677E+02  0.18462573068E+02  0.00000000000E+00 0. -1.
<mgrwt>
<rscale>  0 0.80955065E+02</rscale>
<asrwt>0</asrwt>
<pdfrwt beam="1">  1        1 0.24948559E-02 0.80955065E+02</pdfrwt>
<pdfrwt beam="2">  1       -2 0.15543753E-01 0.80955065E+02</pdfrwt>
<totfact> 0.10268773E+05</totfact>
</mgrwt>
</event>
<event>
 8    1  0.1319619E-024  0.8442626E+02  0.7818608E-02  0.1316940E+00
          1   -1    0    0  501    0  0.00000000000E+00  0.00000000000E+00  0.64141013286E+02  0.64141013484E+02  0.50400000000E-02 0. -1.
         -2   -1    0    0    0  501 -0.00000000000E+00 -0.00000000000E+00 -0.27781728771E+02  0.27781728888E+02  0.25500000000E-02 0.  1.
        -24    2    1    2    0    0 -0.35527136788E-14  0.00000000000E+00  0.36359284515E+02  0.91922742371E+02  0.84426257732E+02 0.  0.
         66    2    3    3    0    0 -0.21030530426E+02 -0.36571713752E+02  0.18638431903E+02  0.46164538319E+02  0.19999993981E+01 0.  0.
         13    1    3    3    0    0  0.21030530426E+02  0.36571713752E+02  0.17720852612E+02  0.45758204053E+02  0.10566000000E+00 0. -1.
         13    1    4    4    0    0 -0.10699921803E+02 -0.18805758694E+02  0.91292480274E+01  0.23484020530E+02  0.10566000000E+00 0. -1.
        -13    1    4    4    0    0 -0.92424179528E+01 -0.15461581698E+02  0.79255300945E+01  0.19680142010E+02  0.10566000000E+00 0.  1.
         14    1    4    4    0    0 -0.10881906706E+01 -0.23043733599E+01  0.15836537809E+01  0.30003757790E+01  0.00000000000E+00 0. -1.
<mgrwt>
<rscale>  0 0.84426258E+02</rscale>
<asrwt>0</asrwt>
<pdfrwt beam="1">  1        1 0.98678482E-02 0.84426258E+02</pdfrwt>
<pdfrwt beam="2">  1       -2 0.42741121E-02 0.84426258E+02</pdfrwt>
<totfact> 0.11791449E+05</totfact>
</mgrwt>
</event>
<event>
 8    1  0.1319619E-024  0.8001037E+02  0.7818608E-02  0.1329022E+00
          1   -1    0    0  501    0  0.00000000000E+00  0.00000000000E+00  0.26388510098E+03  0.26388510103E+03  0.50400000000E-02 0. -1.
         -2   -1    0    0    0  501 -0.00000000000E+00 -0.00000000000E+00 -0.60648161995E+01  0.60648167356E+01  0.25500000000E-02 0.  1.
        -24    2    1    2    0    0 -0.35527136788E-14  0.00000000000E+00  0.25782028478E+03  0.26994991777E+03  0.80010367181E+02 0.  0.
         66    2    3    3    0    0  0.23391273365E+02 -0.32001079615E+02  0.11139772680E+03  0.11825681503E+03  0.19999999310E+01 0.  0.
         13    1    3    3    0    0 -0.23391273365E+02  0.32001079615E+02  0.14642255799E+03  0.15169310273E+03  0.10566000000E+00 0. -1.
         13    1    4    4    0    0  0.13166761223E+02 -0.18198464415E+02  0.63666482956E+02  0.67512813037E+02  0.10566000000E+00 0. -1.
        -13    1    4    4    0    0  0.57385588217E+01 -0.67054480052E+01  0.24850527483E+02  0.26371461289E+02  0.10566000000E+00 0.  1.
         14    1    4    4    0    0  0.44859533195E+01 -0.70971671941E+01  0.22880716358E+02  0.24372540705E+02  0.00000000000E+00 0. -1.
<mgrwt>
<rscale>  0 0.80010367E+02</rscale>
<asrwt>0</asrwt>
<pdfrwt beam="1">  1        1 0.40597701E-01 0.80010367E+02</pdfrwt>
<pdfrwt beam="2">  1       -2 0.93304885E-03 0.80010367E+02</pdfrwt>
<totfact> 0.17593931E+05</totfact>
</mgrwt>
</event>
<event>
 8    1  0.1319619E-024  0.7872151E+02  0.7818608E-02  0.1332719E+00
         -2   -1    0    0    0  501 -0.00000000000E+00  0.00000000000E+00  0.16065000503E+03  0.16065000505E+03  0.25500000000E-02 0.  1.
          1   -1    0    0  501    0  0.00000000000E+00 -0.00000000000E+00 -0.96437538953E+01  0.96437552123E+01  0.50400000000E-02 0. -1.
        -24    2    1    2    0    0  0.00000000000E+00  0.00000000000E+00  0.15100625113E+03  0.17029376026E+03  0.78721514865E+02 0.  0.
         66    2    3    3    0    0  0.34585396611E+02  0.18569699471E+02  0.70130268638E+02  0.80394265792E+02  0.19999989467E+01 0.  0.
         13    1    3    3    0    0 -0.34585396611E+02 -0.18569699471E+02  0.80875982495E+02  0.89899494469E+02  0.10566000000E+00 0. -1.
         13    1    4    4    0    0  0.10841813483E+01  0.67750630561E+00  0.26211773392E+01  0.29182526740E+01  0.10566000000E+00 0. -1.
        -13    1    4    4    0    0  0.37984286272E+01  0.15086051731E+01  0.76075928835E+01  0.86365839961E+01  0.10566000000E+00 0.  1.
        -14    1    4    4    0    0  0.29702786636E+02  0.16383587993E+02  0.59901498416E+02  0.68839429122E+02  0.00000000000E+00 0.  1.
<mgrwt>
<rscale>  0 0.78721515E+02</rscale>
<asrwt>0</asrwt>
<pdfrwt beam="1">  1        1 0.14836545E-02 0.78721515E+02</pdfrwt>
<pdfrwt beam="2">  1       -2 0.24715386E-01 0.78721515E+02</pdfrwt>
<totfact> 0.96262580E+04</totfact>
</mgrwt>
</event>
<event>
 8    1  0.1319619E-024  0.8101296E+02  0.7818608E-02  0.1326201E+00
          1   -1    0    0  501    0  0.00000000000E+00  0.00000000000E+00  0.86729148230E+02  0.86729148376E+02  0.50400000000E-02 0. -1.
         -2   -1    0    0    0  501 -0.00000000000E+00 -0.00000000000E+00 -0.18918378502E+02  0.18918378674E+02  0.25500000000E-02 0.  1.
        -24    2    1    2    0    0  0.00000000000E+00 -0.17763568394E-14  0.67810769728E+02  0.10564752705E+03  0.81012958721E+02 0.  0.
         66    2    3    3    0    0  0.21713504477E+02 -0.14033537964E+02 -0.66968048137E+01  0.26781778512E+02  0.20000002665E+01 0.  0.
         13    1    3    3    0    0 -0.21713504477E+02  0.14033537964E+02  0.74507574542E+02  0.78865748539E+02  0.10566000000E+00 0. -1.
         13    1    4    4    0    0  0.35175371019E+01 -0.15977084937E+01 -0.66103310549E+00  0.39209524986E+01  0.10566000000E+00 0. -1.
        -13    1    4    4    0    0  0.12356026233E+02 -0.84159910725E+01 -0.44089240421E+01  0.15586855528E+02  0.10566000000E+00 0.  1.
        -14    1    4    4    0    0  0.58399411421E+01 -0.40198383981E+01 -0.16268476661E+01  0.72739704851E+01  0.00000000000E+00 0.  1.
<mgrwt>
<rscale>  0 0.81012959E+02</rscale>
<asrwt>0</asrwt>
<pdfrwt beam="1">  1        1 0.13342946E-01 0.81012959E+02</pdfrwt>
<pdfrwt beam="2">  1       -2 0.29105199E-02 0.81012959E+02</pdfrwt>
<totfact> 0.13873650E+05</totfact>
</mgrwt>
</event>
<event>
 8    1  0.1319619E-024  0.7957581E+02  0.7818608E-02  0.1330260E+00
          1   -1    0    0  501    0  0.00000000000E+00  0.00000000000E+00  0.10093887744E+03  0.10093887756E+03  0.50400000000E-02 0. -1.
         -2   -1    0    0    0  501 -0.00000000000E+00 -0.00000000000E+00 -0.15683526101E+02  0.15683526308E+02  0.25500000000E-02 0.  1.
        -24    2    1    2    0    0  0.00000000000E+00  0.00000000000E+00  0.85255351334E+02  0.11662240387E+03  0.79575813870E+02 0.  0.
         66    2    3    3    0    0 -0.56623623146E+00  0.33198369580E+02  0.74716956599E+02  0.81786771337E+02  0.19999990492E+01 0.  0.
         13    1    3    3    0    0  0.56623623146E+00 -0.33198369580E+02  0.10538394736E+02  0.34835632532E+02  0.10566000000E+00 0. -1.
         13    1    4    4    0    0  0.31152857294E+00  0.43974719789E+01  0.10929258128E+02  0.11785357743E+02  0.10566000000E+00 0. -1.
        -13    1    4    4    0    0 -0.56377504674E+00  0.76751301602E+01  0.17775217231E+02  0.19369950360E+02  0.10566000000E+00 0.  1.
         14    1    4    4    0    0 -0.31398975766E+00  0.21125767441E+02  0.46012481239E+02  0.50631463235E+02  0.00000000000E+00 0. -1.
<mgrwt>
<rscale>  0 0.79575814E+02</rscale>
<asrwt>0</asrwt>
<pdfrwt beam="1">  1        1 0.15529058E-01 0.79575814E+02</pdfrwt>
<pdfrwt beam="2">  1       -2 0.24128502E-02 0.79575814E+02</pdfrwt>
<totfact> 0.14935187E+05</totfact>
</mgrwt>
</event>
<event>
 8    1  0.1319619E-024  0.7876231E+02  0.7818608E-02  0.1332601E+00
          1   -1    0    0  501    0  0.00000000000E+00  0.00000000000E+00  0.61931308329E+01  0.61931328837E+01  0.50400000000E-02 0. -1.
         -2   -1    0    0    0  501 -0.00000000000E+00 -0.00000000000E+00 -0.25041858356E+03  0.25041858358E+03  0.25500000000E-02 0.  1.
        -24    2    1    2    0    0  0.22204460493E-15  0.71054273576E-14 -0.24422545273E+03  0.25661171646E+03  0.78762308646E+02 0.  0.
         66    2    3    3    0    0  0.12171540341E+01  0.33420308374E+02 -0.18978871537E+03  0.19272300060E+03  0.20000006887E+01 0.  0.
         13    1    3    3    0    0 -0.12171540341E+01 -0.33420308374E+02 -0.54436737359E+02  0.63888715859E+02  0.10566000000E+00 0. -1.
         13    1    4    4    0    0  0.64723824212E+00  0.67720330639E+01 -0.37454905929E+02  0.38067840645E+02  0.10566000000E+00 0. -1.
        -13    1    4    4    0    0  0.96542890900E+00  0.18174298090E+02 -0.10600993691E+03  0.10756093646E+03  0.10566000000E+00 0.  1.
         14    1    4    4    0    0 -0.39551311699E+00  0.84739772196E+01 -0.46323872536E+02  0.47094223503E+02  0.00000000000E+00 0. -1.
<mgrwt>
<rscale>  0 0.78762309E+02</rscale>
<asrwt>0</asrwt>
<pdfrwt beam="1">  1        1 0.95278971E-03 0.78762309E+02</pdfrwt>
<pdfrwt beam="2">  1       -2 0.38525928E-01 0.78762309E+02</pdfrwt>
<totfact> 0.80217931E+04</totfact>
</mgrwt>
</event>
<event>
 8    1  0.1319619E-024  0.8033361E+02  0.7818608E-02  0.1328107E+00
          1   -1    0    0  501    0  0.00000000000E+00  0.00000000000E+00  0.13685841153E+03  0.13685841162E+03  0.50400000000E-02 0. -1.
         -2   -1    0    0    0  501 -0.00000000000E+00 -0.00000000000E+00 -0.11788624139E+02  0.11788624415E+02  0.25500000000E-02 0.  1.
        -24    2    1    2    0    0  0.00000000000E+00  0.00000000000E+00  0.12506978739E+03  0.14864703604E+03  0.80333614414E+02 0.  0.
         66    2    3    3    0    0 -0.18452130571E+02 -0.12107136776E+02  0.52941029997E+00  0.22166284247E+02  0.19999996367E+01 0.  0.
         13    1    3    3    0    0  0.18452130571E+02  0.12107136776E+02  0.12454037709E+03  0.12648075179E+03  0.10566000000E+00 0. -1.
         13    1    4    4    0    0 -0.25129956011E+01 -0.17722015425E+01 -0.39935573112E+00  0.31026592198E+01  0.10566000000E+00 0. -1.
        -13    1    4    4    0    0 -0.10113880141E+02 -0.67772929241E+01  0.11883611507E+01  0.12232973357E+02  0.10566000000E+00 0.  1.
        -14    1    4    4    0    0 -0.58252548280E+01 -0.35576423094E+01 -0.25959511960E+00  0.68306516702E+01  0.00000000000E+00 0.  1.
<mgrwt>
<rscale>  0 0.80333614E+02</rscale>
<asrwt>0</asrwt>
<pdfrwt beam="1">  1        1 0.21055140E-01 0.80333614E+02</pdfrwt>
<pdfrwt beam="2">  1       -2 0.18136346E-02 0.80333614E+02</pdfrwt>
<totfact> 0.15353943E+05</totfact>
</mgrwt>
</event>
<event>
 8    1  0.1319619E-024  0.7743513E+02  0.7818608E-02  0.1336492E+00
          1   -1    0    0  501    0  0.00000000000E+00  0.00000000000E+00  0.10923757290E+03  0.10923757301E+03  0.50400000000E-02 0. -1.
         -2   -1    0    0    0  501 -0.00000000000E+00 -0.00000000000E+00 -0.13722839675E+02  0.13722839912E+02  0.25500000000E-02 0.  1.
        -24    2    1    2    0    0  0.00000000000E+00  0.17763568394E-14  0.95514733221E+02  0.12296041292E+03  0.77435126940E+02 0.  0.
         66    2    3    3    0    0  0.17213355214E+02 -0.91525061728E+01 -0.52808998315E+01  0.20296695996E+02  0.19999995919E+01 0.  0.
         13    1    3    3    0    0 -0.17213355214E+02  0.91525061728E+01  0.10079563305E+03  0.10266371693E+03  0.10566000000E+00 0. -1.
         13    1    4    4    0    0  0.45349924410E+01 -0.29647894855E+01 -0.10878511408E+01  0.55272703275E+01  0.10566000000E+00 0. -1.
        -13    1    4    4    0    0  0.76825185416E+01 -0.39907395906E+01 -0.19875485022E+01  0.88830516551E+01  0.10566000000E+00 0.  1.
        -14    1    4    4    0    0  0.49958442313E+01 -0.21969770966E+01 -0.22055001884E+01  0.58863740136E+01  0.00000000000E+00 0.  1.
<mgrwt>
<rscale>  0 0.77435127E+02</rscale>
<asrwt>0</asrwt>
<pdfrwt beam="1">  1        1 0.16805780E-01 0.77435127E+02</pdfrwt>
<pdfrwt beam="2">  1       -2 0.21112062E-02 0.77435127E+02</pdfrwt>
<totfact> 0.16288159E+05</totfact>
</mgrwt>
</event>
<event>
 8    1  0.1319619E-024  0.7872389E+02  0.7818608E-02  0.1332712E+00
          1   -1    0    0  501    0  0.00000000000E+00  0.00000000000E+00  0.12722562793E+03  0.12722562803E+03  0.50400000000E-02 0. -1.
         -2   -1    0    0    0  501 -0.00000000000E+00 -0.00000000000E+00 -0.12178070394E+02  0.12178070661E+02  0.25500000000E-02 0.  1.
        -24    2    1    2    0    0  0.35527136788E-14  0.00000000000E+00  0.11504755753E+03  0.13940369869E+03  0.78723889092E+02 0.  0.
         66    2    3    3    0    0  0.22079048881E+02  0.15169955386E+02  0.65525689018E+01  0.27650463084E+02  0.20000009136E+01 0.  0.
         13    1    3    3    0    0 -0.22079048881E+02 -0.15169955386E+02  0.10849498863E+03  0.11175323561E+03  0.10566000000E+00 0. -1.
         13    1    4    4    0    0  0.50514136307E+00  0.47462433509E+00  0.14166269387E+00  0.71531001012E+00  0.10566000000E+00 0.  1.
        -13    1    4    4    0    0  0.29494962858E+01  0.15413033827E+01  0.39014642989E+00  0.33523905992E+01  0.10566000000E+00 0.  1.
        -14    1    4    4    0    0  0.18624411232E+02  0.13154027668E+02  0.60207597780E+01  0.23582762475E+02  0.00000000000E+00 0.  1.
<mgrwt>
<rscale>  0 0.78723889E+02</rscale>
<asrwt>0</asrwt>
<pdfrwt beam="1">  1        1 0.19573175E-01 0.78723889E+02</pdfrwt>
<pdfrwt beam="2">  1       -2 0.18735492E-02 0.78723889E+02</pdfrwt>
<totfact> 0.15998936E+05</totfact>
</mgrwt>
</event>
<event>
 8    1  0.1319619E-024  0.8096269E+02  0.7818608E-02  0.1326341E+00
         -2   -1    0    0    0  501 -0.00000000000E+00  0.00000000000E+00  0.81235874725E+02  0.81235874765E+02  0.25500000000E-02 0.  1.
          1   -1    0    0  501    0  0.00000000000E+00 -0.00000000000E+00 -0.20172606128E+02  0.20172606758E+02  0.50400000000E-02 0. -1.
        -24    2    1    2    0    0  0.00000000000E+00  0.00000000000E+00  0.61063268597E+02  0.10140848152E+03  0.80962691117E+02 0.  0.
         66    2    3    3    0    0 -0.37404592046E+02 -0.17486112295E+01  0.11366682373E+02  0.39183703550E+02  0.20000021001E+01 0.  0.
         13    1    3    3    0    0  0.37404592046E+02  0.17486112295E+01  0.49696586223E+02  0.62224777972E+02  0.10566000000E+00 0. -1.
         13    1    4    4    0    0 -0.23720030759E+02 -0.14278343912E+01  0.78106140898E+01  0.25013904668E+02  0.10566000000E+00 0. -1.
        -13    1    4    4    0    0 -0.13380997985E+02 -0.44287583202E+00  0.34549395066E+01  0.13827328632E+02  0.10566000000E+00 0.  1.
         14    1    4    4    0    0 -0.30356330179E+00  0.12209899364E+00  0.10112877693E+00  0.34247024975E+00  0.00000000000E+00 0. -1.
<mgrwt>
<rscale>  0 0.80962691E+02</rscale>
<asrwt>0</asrwt>
<pdfrwt beam="1">  1        1 0.31034779E-02 0.80962691E+02</pdfrwt>
<pdfrwt beam="2">  1       -2 0.12497827E-01 0.80962691E+02</pdfrwt>
<totfact> 0.10804306E+05</totfact>
</mgrwt>
</event>
<event>
 8    1  0.1319619E-024  0.8040367E+02  0.7818608E-02  0.1327910E+00
          1   -1    0    0  501    0  0.00000000000E+00  0.00000000000E+00  0.21617008762E+02  0.21617009350E+02  0.50400000000E-02 0. -1.
         -2   -1    0    0    0  501 -0.00000000000E+00 -0.00000000000E+00 -0.74764625117E+02  0.74764625161E+02  0.25500000000E-02 0.  1.
        -24    2    1    2    0    0  0.00000000000E+00  0.00000000000E+00 -0.53147616355E+02  0.96381634510E+02  0.80403671227E+02 0.  0.
         66    2    3    3    0    0  0.35244186764E+02 -0.16675395400E+02 -0.38209839229E+02  0.54627953691E+02  0.19999995436E+01 0.  0.
         13    1    3    3    0    0 -0.35244186764E+02  0.16675395400E+02 -0.14937777126E+02  0.41753680819E+02  0.10566000000E+00 0. -1.
         13    1    4    4    0    0  0.99032224267E+01 -0.46735414595E+01 -0.10177624689E+02  0.14950284698E+02  0.10566000000E+00 0. -1.
        -13    1    4    4    0    0  0.44367167353E+01 -0.16082239180E+01 -0.52017487665E+01  0.70242575284E+01  0.10566000000E+00 0.  1.
        -14    1    4    4    0    0  0.20904247603E+02 -0.10393630023E+02 -0.22830465774E+02  0.32653411465E+02  0.00000000000E+00 0.  1.
<mgrwt>
<rscale>  0 0.80403671E+02</rscale>
<asrwt>0</asrwt>
<pdfrwt beam="1">  1        1 0.33256937E-02 0.80403671E+02</pdfrwt>
<pdfrwt beam="2">  1       -2 0.11502250E-01 0.80403671E+02</pdfrwt>
<totfact> 0.11193225E+05</totfact>
</mgrwt>
</event>
<event>
 8    1  0.1319619E-024  0.8116567E+02  0.7818608E-02  0.1325776E+00
          1   -1    0    0  501    0  0.00000000000E+00  0.00000000000E+00  0.86639815290E+01  0.86639829949E+01  0.50400000000E-02 0. -1.
         -2   -1    0    0    0  501 -0.00000000000E+00 -0.00000000000E+00 -0.19009345219E+03  0.19009345221E+03  0.25500000000E-02 0.  1.
        -24    2    1    2    0    0  0.00000000000E+00  0.00000000000E+00 -0.18142947066E+03  0.19875743521E+03  0.81165665302E+02 0.  0.
         66    2    3    3    0    0  0.21139579705E+02  0.14749989541E+02 -0.16744905368E+03  0.16943326012E+03  0.20000084808E+01 0.  0.
         13    1    3    3    0    0 -0.21139579705E+02 -0.14749989541E+02 -0.13980416986E+02  0.29324175090E+02  0.10566000000E+00 0. -1.
         13    1    4    4    0    0  0.44874470835E+01  0.37378024223E+01 -0.34787448749E+02  0.35274439794E+02  0.10566000000E+00 0. -1.
        -13    1    4    4    0    0  0.12404744936E+02  0.83560597313E+01 -0.10195255904E+03  0.10304385906E+03  0.10566000000E+00 0.  1.
        -14    1    4    4    0    0  0.42473876855E+01  0.26561273873E+01 -0.30709045890E+02  0.31114961262E+02  0.00000000000E+00 0.  1.
<mgrwt>
<rscale>  0 0.81165665E+02</rscale>
<asrwt>0</asrwt>
<pdfrwt beam="1">  1        1 0.13329205E-02 0.81165665E+02</pdfrwt>
<pdfrwt beam="2">  1       -2 0.29245143E-01 0.81165665E+02</pdfrwt>
<totfact> 0.83634886E+04</totfact>
</mgrwt>
</event>
<event>
 8    1  0.1319619E-024  0.8031662E+02  0.7818608E-02  0.1328155E+00
          1   -1    0    0  501    0  0.00000000000E+00  0.00000000000E+00  0.27414951573E+02  0.27414952036E+02  0.50400000000E-02 0. -1.
         -2   -1    0    0    0  501 -0.00000000000E+00 -0.00000000000E+00 -0.58825197164E+02  0.58825197220E+02  0.25500000000E-02 0.  1.
        -24    2    1    2    0    0 -0.35527136788E-14  0.00000000000E+00 -0.31410245591E+02  0.86240149256E+02  0.80316622287E+02 0.  0.
         66    2    3    3    0    0 -0.25342438545E+02 -0.28392321647E+02 -0.29395037172E+02  0.48129319444E+02  0.20000149629E+01 0.  0.
         13    1    3    3    0    0  0.25342438545E+02  0.28392321647E+02 -0.20152084190E+01  0.38110829812E+02  0.10566000000E+00 0. -1.
         13    1    4    4    0    0 -0.20604945659E+01 -0.16208193594E+01 -0.19928496229E+01  0.32947392775E+01  0.10566000000E+00 0. -1.
        -13    1    4    4    0    0 -0.52980652201E+01 -0.57877921190E+01 -0.63047707911E+01  0.10066247138E+02  0.10566000000E+00 0.  1.
         14    1    4    4    0    0 -0.17983878759E+02 -0.20983710169E+02 -0.21097416758E+02  0.34768333028E+02  0.00000000000E+00 0. -1.
<mgrwt>
<rscale>  0 0.80316622E+02</rscale>
<asrwt>0</asrwt>
<pdfrwt beam="1">  1        1 0.42176849E-02 0.80316622E+02</pdfrwt>
<pdfrwt beam="2">  1       -2 0.90500303E-02 0.80316622E+02</pdfrwt>
<totfact> 0.11764449E+05</totfact>
</mgrwt>
</event>
<event>
 8    1  0.1319619E-024  0.7134213E+02  0.7818608E-02  0.1355588E+00
          1   -1    0    0  501    0  0.00000000000E+00  0.00000000000E+00  0.22957660144E+03  0.22957660150E+03  0.50400000000E-02 0. -1.
         -2   -1    0    0    0  501 -0.00000000000E+00 -0.00000000000E+00 -0.55424851340E+01  0.55424857206E+01  0.25500000000E-02 0.  1.
        -24    2    1    2    0    0  0.35527136788E-14  0.00000000000E+00  0.22403411631E+03  0.23511908722E+03  0.71342132743E+02 0.  0.
         66    2    3    3    0    0  0.20121974847E+02 -0.23880712986E+02  0.55477291784E+02  0.63693894839E+02  0.20000029100E+01 0.  0.
         13    1    3    3    0    0 -0.20121974847E+02  0.23880712986E+02  0.16855682453E+03  0.17142519238E+03  0.10566000000E+00 0. -1.
         13    1    4    4    0    0  0.10108305948E+02 -0.12110977572E+02  0.28594197771E+02  0.32657203449E+02  0.10566000000E+00 0.  1.
        -13    1    4    4    0    0  0.72688018475E+01 -0.76944150605E+01  0.18911492839E+02  0.21672453227E+02  0.10566000000E+00 0. -1.
         14    1    4    4    0    0  0.27448670508E+01 -0.40753203535E+01  0.79716011742E+01  0.93642381639E+01  0.00000000000E+00 0. -1.
<mgrwt>
<rscale>  0 0.71342133E+02</rscale>
<asrwt>0</asrwt>
<pdfrwt beam="1">  1        1 0.35319465E-01 0.71342133E+02</pdfrwt>
<pdfrwt beam="2">  1       -2 0.85269037E-03 0.71342133E+02</pdfrwt>
<totfact> 0.23148422E+05</totfact>
</mgrwt>
</event>
<event>
 8    1  0.1319619E-024  0.7898093E+02  0.7818608E-02  0.1331969E+00
          1   -1    0    0  501    0  0.00000000000E+00  0.00000000000E+00  0.74497994848E+01  0.74498011897E+01  0.50400000000E-02 0. -1.
         -2   -1    0    0    0  501 -0.00000000000E+00 -0.00000000000E+00 -0.20933406634E+03  0.20933406636E+03  0.25500000000E-02 0.  1.
        -24    2    1    2    0    0  0.71054273576E-14  0.35527136788E-14 -0.20188426686E+03  0.21678386755E+03  0.78980934562E+02 0.  0.
         66    2    3    3    0    0 -0.31475275247E+02 -0.23782009481E+02 -0.97981044443E+02  0.10564356109E+03  0.20000008064E+01 0.  0.
         13    1    3    3    0    0  0.31475275247E+02  0.23782009481E+02 -0.10390322241E+03  0.11114030645E+03  0.10566000000E+00 0. -1.
         13    1    4    4    0    0 -0.18915827586E+01 -0.15170825926E+01 -0.50456239103E+01  0.55990275589E+01  0.10566000000E+00 0. -1.
        -13    1    4    4    0    0 -0.10770176249E+02 -0.77607883233E+01 -0.32292545133E+02  0.34914841644E+02  0.10566000000E+00 0.  1.
         14    1    4    4    0    0 -0.18813516240E+02 -0.14504138565E+02 -0.60642875400E+02  0.65129691890E+02  0.00000000000E+00 0. -1.
<mgrwt>
<rscale>  0 0.78980935E+02</rscale>
<asrwt>0</asrwt>
<pdfrwt beam="1">  1        1 0.11461233E-02 0.78980935E+02</pdfrwt>
<pdfrwt beam="2">  1       -2 0.32205237E-01 0.78980935E+02</pdfrwt>
<totfact> 0.86297376E+04</totfact>
</mgrwt>
</event>
<event>
 8    1  0.1319619E-024  0.8485299E+02  0.7818608E-02  0.1315817E+00
          1   -1    0    0  501    0  0.00000000000E+00  0.00000000000E+00  0.62439908736E+02  0.62439908940E+02  0.50400000000E-02 0. -1.
         -2   -1    0    0    0  501 -0.00000000000E+00 -0.00000000000E+00 -0.28827837830E+02  0.28827837943E+02  0.25500000000E-02 0.  1.
        -24    2    1    2    0    0  0.00000000000E+00  0.17763568394E-14  0.33612070906E+02  0.91267746882E+02  0.84852992348E+02 0.  0.
         66    2    3    3    0    0  0.23748186984E+02  0.15724388162E+02 -0.16972311601E+02  0.33215841781E+02  0.20000040145E+01 0.  0.
         13    1    3    3    0    0 -0.23748186984E+02 -0.15724388162E+02  0.50584382508E+02  0.58051905101E+02  0.10566000000E+00 0. -1.
         13    1    4    4    0    0  0.80334376131E+01  0.45864913614E+01 -0.50530623780E+01  0.10541187140E+02  0.10566000000E+00 0.  1.
        -13    1    4    4    0    0  0.13883847418E+01  0.70391880452E+00 -0.81674252720E+00  0.17610639585E+01  0.10566000000E+00 0.  1.
        -14    1    4    4    0    0  0.14326364629E+02  0.10433977996E+02 -0.11102506696E+02  0.20913590683E+02  0.00000000000E+00 0.  1.
<mgrwt>
<rscale>  0 0.84852992E+02</rscale>
<asrwt>0</asrwt>
<pdfrwt beam="1">  1        1 0.96061399E-02 0.84852992E+02</pdfrwt>
<pdfrwt beam="2">  1       -2 0.44350520E-02 0.84852992E+02</pdfrwt>
<totfact> 0.11576389E+05</totfact>
</mgrwt>
</event>
<event>
 8    1  0.1319619E-024  0.8012210E+02  0.7818608E-02  0.1328705E+00
          1   -1    0    0  501    0  0.00000000000E+00  0.00000000000E+00  0.30060474589E+03  0.30060474593E+03  0.50400000000E-02 0. -1.
         -2   -1    0    0    0  501 -0.00000000000E+00 -0.00000000000E+00 -0.53388629072E+01  0.53388635162E+01  0.25500000000E-02 0.  1.
        -24    2    1    2    0    0 -0.35527136788E-14  0.00000000000E+00  0.29526588298E+03  0.30594360945E+03  0.80122097506E+02 0.  0.
         66    2    3    3    0    0  0.27731600116E+02  0.26399360071E+02  0.10304455888E+03  0.10994611850E+03  0.19999999268E+01 0.  0.
         13    1    3    3    0    0 -0.27731600116E+02 -0.26399360071E+02  0.19222132410E+03  0.19599749095E+03  0.10566000000E+00 0. -1.
         13    1    4    4    0    0  0.18418055018E+01  0.16163986198E+01  0.71966299201E+01  0.76031334492E+01  0.10566000000E+00 0.  1.
        -13    1    4    4    0    0  0.20261839611E+02  0.19394430463E+02  0.72992734517E+02  0.78196141425E+02  0.10566000000E+00 0.  1.
        -14    1    4    4    0    0  0.56279550027E+01  0.53885309884E+01  0.22855194447E+02  0.24146843623E+02  0.00000000000E+00 0.  1.
<mgrwt>
<rscale>  0 0.80122098E+02</rscale>
<asrwt>0</asrwt>
<pdfrwt beam="1">  1        1 0.46246883E-01 0.80122098E+02</pdfrwt>
<pdfrwt beam="2">  1       -2 0.82136359E-03 0.80122098E+02</pdfrwt>
<totfact> 0.17976102E+05</totfact>
</mgrwt>
</event>
<event>
 8    1  0.1319619E-024  0.8027145E+02  0.7818608E-02  0.1328283E+00
          1   -1    0    0  501    0  0.00000000000E+00  0.00000000000E+00  0.51642905551E+01  0.51642930144E+01  0.50400000000E-02 0. -1.
         -2   -1    0    0    0  501 -0.00000000000E+00 -0.00000000000E+00 -0.31192588949E+03  0.31192588950E+03  0.25500000000E-02 0.  1.
        -24    2    1    2    0    0  0.00000000000E+00  0.00000000000E+00 -0.30676159893E+03  0.31709018251E+03  0.80271447390E+02 0.  0.
         66    2    3    3    0    0 -0.33990901285E+02 -0.19252253627E+02 -0.18942945162E+03  0.19342581983E+03  0.19999993157E+01 0.  0.
         13    1    3    3    0    0  0.33990901285E+02  0.19252253627E+02 -0.11733214732E+03  0.12366436268E+03  0.10566000000E+00 0. -1.
         13    1    4    4    0    0 -0.27993809293E+01 -0.20990248132E+01 -0.16111560174E+02  0.16487448985E+02  0.10566000000E+00 0. -1.
        -13    1    4    4    0    0 -0.18144736779E+02 -0.10289373683E+02 -0.10347856303E+03  0.10556006278E+03  0.10566000000E+00 0.  1.
        -14    1    4    4    0    0 -0.13046783577E+02 -0.68638551311E+01 -0.69839328416E+02  0.71378308068E+02  0.00000000000E+00 0.  1.
<mgrwt>
<rscale>  0 0.80271447E+02</rscale>
<asrwt>0</asrwt>
<pdfrwt beam="1">  1        1 0.79450668E-03 0.80271447E+02</pdfrwt>
<pdfrwt beam="2">  1       -2 0.47988584E-01 0.80271447E+02</pdfrwt>
<totfact> 0.68175896E+04</totfact>
</mgrwt>
</event>
<event>
 8    1  0.1319619E-024  0.8266666E+02  0.7818608E-02  0.1321650E+00
          1   -1    0    0  501    0  0.00000000000E+00  0.00000000000E+00  0.10922445541E+03  0.10922445552E+03  0.50400000000E-02 0. -1.
         -2   -1    0    0    0  501 -0.00000000000E+00 -0.00000000000E+00 -0.15641590964E+02  0.15641591172E+02  0.25500000000E-02 0.  1.
        -24    2    1    2    0    0  0.00000000000E+00  0.00000000000E+00  0.93582864444E+02  0.12486604670E+03  0.82666662568E+02 0.  0.
         66    2    3    3    0    0  0.35361464464E+02 -0.21143438857E+02  0.42297118242E+02  0.59080659997E+02  0.19999995847E+01 0.  0.
         13    1    3    3    0    0 -0.35361464464E+02  0.21143438857E+02  0.51285746202E+02  0.65785386700E+02  0.10566000000E+00 0. -1.
         13    1    4    4    0    0  0.17533768902E+02 -0.10610017591E+02  0.20082183880E+02  0.28693392944E+02  0.10566000000E+00 0. -1.
        -13    1    4    4    0    0  0.12437774672E+02 -0.68237540385E+01  0.14946614471E+02  0.20607627377E+02  0.10566000000E+00 0.  1.
         14    1    4    4    0    0  0.53899208904E+01 -0.37096672273E+01  0.72683198913E+01  0.97796396756E+01  0.00000000000E+00 0. -1.
<mgrwt>
<rscale>  0 0.82666663E+02</rscale>
<asrwt>0</asrwt>
<pdfrwt beam="1">  1        1 0.16803763E-01 0.82666663E+02</pdfrwt>
<pdfrwt beam="2">  1       -2 0.24063986E-02 0.82666663E+02</pdfrwt>
<totfact> 0.13656382E+05</totfact>
</mgrwt>
</event>
<event>
 8    1  0.1319619E-024  0.8021240E+02  0.7818608E-02  0.1328450E+00
          1   -1    0    0  501    0  0.00000000000E+00  0.00000000000E+00  0.92878535181E+01  0.92878548855E+01  0.50400000000E-02 0. -1.
         -2   -1    0    0    0  501 -0.00000000000E+00 -0.00000000000E+00 -0.17318395726E+03  0.17318395728E+03  0.25500000000E-02 0.  1.
        -24    2    1    2    0    0  0.00000000000E+00  0.00000000000E+00 -0.16389610375E+03  0.18247181217E+03  0.80212401865E+02 0.  0.
         66    2    3    3    0    0  0.20736201863E+02  0.14374911423E+02 -0.15284430872E+03  0.15492582365E+03  0.19999946811E+01 0.  0.
         13    1    3    3    0    0 -0.20736201863E+02 -0.14374911423E+02 -0.11051795022E+02  0.27545988517E+02  0.10566000000E+00 0. -1.
         13    1    4    4    0    0  0.26312050226E+01  0.18084170663E+01 -0.17004972321E+02  0.17302423525E+02  0.10566000000E+00 0. -1.
        -13    1    4    4    0    0  0.37514028362E+01  0.25629645873E+01 -0.31844107294E+02  0.32166755263E+02  0.10566000000E+00 0.  1.
        -14    1    4    4    0    0  0.14353594004E+02  0.10003529769E+02 -0.10399522911E+03  0.10545664486E+03  0.00000000000E+00 0.  1.
<mgrwt>
<rscale>  0 0.80212402E+02</rscale>
<asrwt>0</asrwt>
<pdfrwt beam="1">  1        1 0.14289008E-02 0.80212402E+02</pdfrwt>
<pdfrwt beam="2">  1       -2 0.26643683E-01 0.80212402E+02</pdfrwt>
<totfact> 0.89312172E+04</totfact>
</mgrwt>
</event>
<event>
 8    1  0.1319619E-024  0.7966816E+02  0.7818608E-02  0.1329996E+00
         -2   -1    0    0    0  501 -0.00000000000E+00  0.00000000000E+00  0.73552189493E+02  0.73552189537E+02  0.25500000000E-02 0.  1.
          1   -1    0    0  501    0  0.00000000000E+00 -0.00000000000E+00 -0.21573172780E+02  0.21573173369E+02  0.50400000000E-02 0. -1.
        -24    2    1    2    0    0 -0.35527136788E-14  0.17763568394E-14  0.51979016713E+02  0.95125362906E+02  0.79668164843E+02 0.  0.
         66    2    3    3    0    0  0.16950024114E+02 -0.12079337157E+02  0.66524044316E+02  0.69732791243E+02  0.19999997022E+01 0.  0.
         13    1    3    3    0    0 -0.16950024114E+02  0.12079337157E+02 -0.14545027603E+02  0.25392571662E+02  0.10566000000E+00 0. -1.
         13    1    4    4    0    0  0.40533268911E+01 -0.31496391841E+01  0.14782087401E+02  0.15648353199E+02  0.10566000000E+00 0.  1.
        -13    1    4    4    0    0  0.61284149812E+01 -0.34306482345E+01  0.23105005542E+02  0.24149104799E+02  0.10566000000E+00 0. -1.
         14    1    4    4    0    0  0.67682822416E+01 -0.54990497380E+01  0.28636951374E+02  0.29935333245E+02  0.00000000000E+00 0. -1.
<mgrwt>
<rscale>  0 0.79668165E+02</rscale>
<asrwt>0</asrwt>
<pdfrwt beam="1">  1        1 0.33189497E-02 0.79668165E+02</pdfrwt>
<pdfrwt beam="2">  1       -2 0.11315721E-01 0.79668165E+02</pdfrwt>
<totfact> 0.11496844E+05</totfact>
</mgrwt>
</event>
<event>
 8    1  0.1319619E-024  0.7943698E+02  0.7818608E-02  0.1330657E+00
         -2   -1    0    0    0  501 -0.00000000000E+00  0.00000000000E+00  0.11096662574E+03  0.11096662577E+03  0.25500000000E-02 0.  1.
          1   -1    0    0  501    0  0.00000000000E+00 -0.00000000000E+00 -0.14216510747E+02  0.14216511640E+02  0.50400000000E-02 0. -1.
        -24    2    1    2    0    0  0.00000000000E+00  0.00000000000E+00  0.96750114998E+02  0.12518313741E+03  0.79436975903E+02 0.  0.
         66    2    3    3    0    0 -0.23060917966E+02 -0.54328154351E+01  0.98592697594E+02  0.10141913742E+03  0.19999988613E+01 0.  0.
         13    1    3    3    0    0  0.23060917966E+02  0.54328154351E+01 -0.18425825954E+01  0.23763999993E+02  0.10566000000E+00 0. -1.
         13    1    4    4    0    0 -0.11993151852E+02 -0.30477807385E+01  0.48905311902E+02  0.50446658512E+02  0.10566000000E+00 0. -1.
        -13    1    4    4    0    0 -0.77912094046E+01 -0.21769318516E+01  0.35265813090E+02  0.36181911409E+02  0.10566000000E+00 0.  1.
         14    1    4    4    0    0 -0.32765567101E+01 -0.20810284488E+00  0.14421572602E+02  0.14790567500E+02  0.00000000000E+00 0. -1.
<mgrwt>
<rscale>  0 0.79436976E+02</rscale>
<asrwt>0</asrwt>
<pdfrwt beam="1">  1        1 0.21871556E-02 0.79436976E+02</pdfrwt>
<pdfrwt beam="2">  1       -2 0.17071789E-01 0.79436976E+02</pdfrwt>
<totfact> 0.10521638E+05</totfact>
</mgrwt>
</event>
<event>
 8    1  0.1319619E-024  0.8039573E+02  0.7818608E-02  0.1327932E+00
          1   -1    0    0  501    0  0.00000000000E+00  0.00000000000E+00  0.49846135136E+02  0.49846135391E+02  0.50400000000E-02 0. -1.
         -2   -1    0    0    0  501 -0.00000000000E+00 -0.00000000000E+00 -0.32417125795E+02  0.32417125895E+02  0.25500000000E-02 0.  1.
        -24    2    1    2    0    0  0.00000000000E+00  0.00000000000E+00  0.17429009341E+02  0.82263261286E+02  0.80395732416E+02 0.  0.
         66    2    3    3    0    0 -0.34269901643E+02 -0.10577460331E+02 -0.97990015692E+01  0.37233442633E+02  0.19999982286E+01 0.  0.
         13    1    3    3    0    0  0.34269901643E+02  0.10577460331E+02  0.27228010910E+02  0.45029818652E+02  0.10566000000E+00 0. -1.
         13    1    4    4    0    0 -0.11974418174E+02 -0.35940515018E+01 -0.41013254039E+01  0.13158112741E+02  0.10566000000E+00 0.  1.
        -13    1    4    4    0    0 -0.15820639756E+02 -0.53762705826E+01 -0.43976474227E+01  0.17278524085E+02  0.10566000000E+00 0. -1.
        -14    1    4    4    0    0 -0.64748437130E+01 -0.16071382463E+01 -0.13000287426E+01  0.67968058073E+01  0.00000000000E+00 0.  1.
<mgrwt>
<rscale>  0 0.80395732E+02</rscale>
<asrwt>0</asrwt>
<pdfrwt beam="1">  1        1 0.76686362E-02 0.80395732E+02</pdfrwt>
<pdfrwt beam="2">  1       -2 0.49872502E-02 0.80395732E+02</pdfrwt>
<totfact> 0.12971361E+05</totfact>
</mgrwt>
</event>
<event>
 8    1  0.1319619E-024  0.7702925E+02  0.7818608E-02  0.1337700E+00
          1   -1    0    0  501    0  0.00000000000E+00  0.00000000000E+00  0.92079127213E+01  0.92079141006E+01  0.50400000000E-02 0. -1.
         -2   -1    0    0    0  501 -0.00000000000E+00 -0.00000000000E+00 -0.16109799512E+03  0.16109799514E+03  0.25500000000E-02 0.  1.
        -24    2    1    2    0    0 -0.17763568394E-14  0.22204460493E-15 -0.15189008240E+03  0.17030590924E+03  0.77029251529E+02 0.  0.
         66    2    3    3    0    0 -0.10014640674E+02  0.13539681511E+01 -0.15810585605E+03  0.15844111831E+03  0.19999996035E+01 0.  0.
         13    1    3    3    0    0  0.10014640674E+02 -0.13539681511E+01  0.62157736510E+01  0.11864790925E+02  0.10566000000E+00 0. -1.
         13    1    4    4    0    0 -0.43556568118E+01  0.83173464503E+00 -0.56586716772E+02  0.56760296051E+02  0.10566000000E+00 0. -1.
        -13    1    4    4    0    0 -0.34277652706E+01  0.40013556867E+00 -0.55275766985E+02  0.55383492695E+02  0.10566000000E+00 0.  1.
         14    1    4    4    0    0 -0.22312185913E+01  0.12209793741E+00 -0.46243372290E+02  0.46297329567E+02  0.00000000000E+00 0. -1.
<mgrwt>
<rscale>  0 0.77029252E+02</rscale>
<asrwt>0</asrwt>
<pdfrwt beam="1">  1        1 0.14166022E-02 0.77029252E+02</pdfrwt>
<pdfrwt beam="2">  1       -2 0.24784305E-01 0.77029252E+02</pdfrwt>
<totfact> 0.10169720E+05</totfact>
</mgrwt>
</event>
<event>
 8    1  0.1319619E-024  0.7828036E+02  0.7818608E-02  0.1334004E+00
         -2   -1    0    0    0  501 -0.00000000000E+00  0.00000000000E+00  0.14645601450E+02  0.14645601672E+02  0.25500000000E-02 0.  1.
          1   -1    0    0  501    0  0.00000000000E+00 -0.00000000000E+00 -0.10460161375E+03  0.10460161387E+03  0.50400000000E-02 0. -1.
        -24    2    1    2    0    0  0.00000000000E+00  0.00000000000E+00 -0.89956012302E+02  0.11924721554E+03  0.78280356833E+02 0.  0.
         66    2    3    3    0    0 -0.32961106034E+02 -0.13632309505E+02 -0.69460217664E+02  0.78108874119E+02  0.20000011656E+01 0.  0.
         13    1    3    3    0    0  0.32961106034E+02  0.13632309505E+02 -0.20495794637E+02  0.41138341426E+02  0.10566000000E+00 0. -1.
         13    1    4    4    0    0 -0.20443750883E+01 -0.11559198214E+01 -0.46686276953E+01  0.52271281530E+01  0.10566000000E+00 0.  1.
        -13    1    4    4    0    0 -0.17030606603E+02 -0.67311108385E+01 -0.33968247361E+02  0.38590185373E+02  0.10566000000E+00 0. -1.
         14    1    4    4    0    0 -0.13886124343E+02 -0.57452788448E+01 -0.30823342608E+02  0.34291560592E+02  0.00000000000E+00 0. -1.
<mgrwt>
<rscale>  0 0.78280357E+02</rscale>
<asrwt>0</asrwt>
<pdfrwt beam="1">  1        1 0.16092556E-01 0.78280357E+02</pdfrwt>
<pdfrwt beam="2">  1       -2 0.22531695E-02 0.78280357E+02</pdfrwt>
<totfact> 0.15704606E+05</totfact>
</mgrwt>
</event>
<event>
 8    1  0.1319619E-024  0.8099933E+02  0.7818608E-02  0.1326239E+00
         -2   -1    0    0    0  501 -0.00000000000E+00  0.00000000000E+00  0.89587841642E+01  0.89587845272E+01  0.25500000000E-02 0.  1.
          1   -1    0    0  501    0  0.00000000000E+00 -0.00000000000E+00 -0.18308541573E+03  0.18308541580E+03  0.50400000000E-02 0. -1.
        -24    2    1    2    0    0  0.71054273576E-14  0.00000000000E+00 -0.17412663157E+03  0.19204420033E+03  0.80999327521E+02 0.  0.
         66    2    3    3    0    0  0.36181233457E+02 -0.20336958691E+01 -0.12985891392E+03  0.13483528876E+03  0.19999991582E+01 0.  0.
         13    1    3    3    0    0 -0.36181233457E+02  0.20336958691E+01 -0.44267717649E+02  0.57208911571E+02  0.10566000000E+00 0. -1.
         13    1    4    4    0    0  0.11552319471E+02 -0.12730248980E+01 -0.42730909494E+02  0.44283388169E+02  0.10566000000E+00 0. -1.
        -13    1    4    4    0    0  0.20055146306E+02 -0.19584036887E+00 -0.70813498405E+02  0.73598980748E+02  0.10566000000E+00 0.  1.
        -14    1    4    4    0    0  0.45737676801E+01 -0.56483060218E+00 -0.16314506024E+02  0.16952919843E+02  0.00000000000E+00 0.  1.
<mgrwt>
<rscale>  0 0.80999328E+02</rscale>
<asrwt>0</asrwt>
<pdfrwt beam="1">  1        1 0.28166984E-01 0.80999328E+02</pdfrwt>
<pdfrwt beam="2">  1       -2 0.13782746E-02 0.80999328E+02</pdfrwt>
<totfact> 0.15858986E+05</totfact>
</mgrwt>
</event>
<event>
 8    1  0.1319619E-024  0.7913809E+02  0.7818608E-02  0.1331515E+00
         -2   -1    0    0    0  501 -0.00000000000E+00  0.00000000000E+00  0.13178231786E+02  0.13178232032E+02  0.25500000000E-02 0.  1.
          1   -1    0    0  501    0  0.00000000000E+00 -0.00000000000E+00 -0.11881027979E+03  0.11881027990E+03  0.50400000000E-02 0. -1.
        -24    2    1    2    0    0 -0.35527136788E-14 -0.17763568394E-14 -0.10563204801E+03  0.13198851193E+03  0.79138092698E+02 0.  0.
         66    2    3    3    0    0  0.29738782175E+02  0.12255231253E+02 -0.14485380727E+02  0.35332875890E+02  0.20000013800E+01 0.  0.
         13    1    3    3    0    0 -0.29738782175E+02 -0.12255231253E+02 -0.91146667280E+02  0.96655636042E+02  0.10566000000E+00 0. -1.
         13    1    4    4    0    0  0.19401908492E+02  0.76206758444E+01 -0.96136065034E+01  0.22955203059E+02  0.10566000000E+00 0. -1.
        -13    1    4    4    0    0  0.81896096137E+01  0.40174436884E+01 -0.42130260495E+01  0.10048398477E+02  0.10566000000E+00 0.  1.
         14    1    4    4    0    0  0.21472640697E+01  0.61711171989E+00 -0.65874817402E+00  0.23292743540E+01  0.00000000000E+00 0. -1.
<mgrwt>
<rscale>  0 0.79138093E+02</rscale>
<asrwt>0</asrwt>
<pdfrwt beam="1">  1        1 0.18278504E-01 0.79138093E+02</pdfrwt>
<pdfrwt beam="2">  1       -2 0.20274204E-02 0.79138093E+02</pdfrwt>
<totfact> 0.15587098E+05</totfact>
</mgrwt>
</event>
<event>
 8    1  0.1319619E-024  0.7810043E+02  0.7818608E-02  0.1334530E+00
          1   -1    0    0  501    0  0.00000000000E+00  0.00000000000E+00  0.31347694208E+02  0.31347694614E+02  0.50400000000E-02 0. -1.
         -2   -1    0    0    0  501 -0.00000000000E+00 -0.00000000000E+00 -0.48645345926E+02  0.48645345993E+02  0.25500000000E-02 0.  1.
        -24    2    1    2    0    0  0.35527136788E-14  0.35527136788E-14 -0.17297651718E+02  0.79993040607E+02  0.78100433997E+02 0.  0.
         66    2    3    3    0    0  0.23338724160E+02  0.31021964117E+02 -0.45759996627E+01  0.39140746937E+02  0.19999986993E+01 0.  0.
         13    1    3    3    0    0 -0.23338724160E+02 -0.31021964117E+02 -0.12721652055E+02  0.40852293670E+02  0.10566000000E+00 0. -1.
         13    1    4    4    0    0  0.84552798820E+00  0.10518699402E+01  0.71546392180E-01  0.13555924431E+01  0.10566000000E+00 0. -1.
        -13    1    4    4    0    0  0.20322818769E+02  0.27713273619E+02 -0.43224978408E+01  0.34637229234E+02  0.10566000000E+00 0.  1.
        -14    1    4    4    0    0  0.21703774027E+01  0.22568205572E+01 -0.32504821410E+00  0.31479252594E+01  0.00000000000E+00 0.  1.
<mgrwt>
<rscale>  0 0.78100434E+02</rscale>
<asrwt>0</asrwt>
<pdfrwt beam="1">  1        1 0.48227222E-02 0.78100434E+02</pdfrwt>
<pdfrwt beam="2">  1       -2 0.74838994E-02 0.78100434E+02</pdfrwt>
<totfact> 0.13054865E+05</totfact>
</mgrwt>
</event>
<event>
 8    1  0.1319619E-024  0.8005123E+02  0.7818608E-02  0.1328906E+00
         -2   -1    0    0    0  501 -0.00000000000E+00  0.00000000000E+00  0.42564420726E+03  0.42564420727E+03  0.25500000000E-02 0.  1.
          1   -1    0    0  501    0  0.00000000000E+00 -0.00000000000E+00 -0.37638220778E+01  0.37638254523E+01  0.50400000000E-02 0. -1.
        -24    2    1    2    0    0  0.00000000000E+00 -0.55511151231E-16  0.42188038518E+03  0.42940803272E+03  0.80051228366E+02 0.  0.
         66    2    3    3    0    0  0.11435291022E+02 -0.28014354216E+00  0.41668076487E+03  0.41684254122E+03  0.19999998311E+01 0.  0.
         13    1    3    3    0    0 -0.11435291022E+02  0.28014354216E+00  0.51996203139E+01  0.12565491499E+02  0.10566000000E+00 0. -1.
         13    1    4    4    0    0  0.53699471841E+01  0.19993974883E+00  0.16472693089E+03  0.16481459047E+03  0.10566000000E+00 0. -1.
        -13    1    4    4    0    0  0.35605519609E+01 -0.44271504218E+00  0.13898185791E+03  0.13902820404E+03  0.10566000000E+00 0.  1.
         14    1    4    4    0    0  0.25047918770E+01 -0.37368248800E-01  0.11297197607E+03  0.11299974671E+03  0.00000000000E+00 0. -1.
<mgrwt>
<rscale>  0 0.80051228E+02</rscale>
<asrwt>0</asrwt>
<pdfrwt beam="1">  1        1 0.57905003E-03 0.80051228E+02</pdfrwt>
<pdfrwt beam="2">  1       -2 0.65483700E-01 0.80051228E+02</pdfrwt>
<totfact> 0.56566250E+04</totfact>
</mgrwt>
</event>
<event>
 8    1  0.1319619E-024  0.8019847E+02  0.7818608E-02  0.1328489E+00
          1   -1    0    0  501    0  0.00000000000E+00  0.00000000000E+00  0.31342756067E+02  0.31342756472E+02  0.50400000000E-02 0. -1.
         -2   -1    0    0    0  501 -0.00000000000E+00 -0.00000000000E+00 -0.51302075613E+02  0.51302075676E+02  0.25500000000E-02 0.  1.
        -24    2    1    2    0    0  0.00000000000E+00  0.17763568394E-14 -0.19959319546E+02  0.82644832148E+02  0.80198465347E+02 0.  0.
         66    2    3    3    0    0  0.16991777385E+02  0.15714378755E+02 -0.43698942972E+02  0.49489997164E+02  0.20000010136E+01 0.  0.
         13    1    3    3    0    0 -0.16991777385E+02 -0.15714378755E+02  0.23739623427E+02  0.33154834984E+02  0.10566000000E+00 0. -1.
         13    1    4    4    0    0  0.71695434800E+01  0.57406721306E+01 -0.18478215369E+02  0.20635243577E+02  0.10566000000E+00 0. -1.
        -13    1    4    4    0    0  0.49743523122E+01  0.47280671854E+01 -0.11766398187E+02  0.13621970877E+02  0.10566000000E+00 0.  1.
        -14    1    4    4    0    0  0.48478815931E+01  0.52456394387E+01 -0.13454329416E+02  0.15232782710E+02  0.00000000000E+00 0.  1.
<mgrwt>
<rscale>  0 0.80198465E+02</rscale>
<asrwt>0</asrwt>
<pdfrwt beam="1">  1        1 0.48219625E-02 0.80198465E+02</pdfrwt>
<pdfrwt beam="2">  1       -2 0.78926271E-02 0.80198465E+02</pdfrwt>
<totfact> 0.12101960E+05</totfact>
</mgrwt>
</event>
<event>
 8    1  0.1319619E-024  0.7028623E+02  0.7818608E-02  0.1359122E+00
          1   -1    0    0  501    0  0.00000000000E+00  0.00000000000E+00  0.69440882639E+02  0.69440882822E+02  0.50400000000E-02 0. -1.
         -2   -1    0    0    0  501 -0.00000000000E+00 -0.00000000000E+00 -0.17785468749E+02  0.17785468932E+02  0.25500000000E-02 0.  1.
        -24    2    1    2    0    0  0.00000000000E+00 -0.17763568394E-14  0.51655413890E+02  0.87226351754E+02  0.70286233760E+02 0.  0.
         66    2    3    3    0    0  0.16858136826E+02  0.97836282396E+01 -0.10399261170E+02  0.22182443357E+02  0.20000003993E+01 0.  0.
         13    1    3    3    0    0 -0.16858136826E+02 -0.97836282396E+01  0.62054675060E+02  0.65043908398E+02  0.10566000000E+00 0. -1.
         13    1    4    4    0    0  0.94470673197E+00  0.10279495954E+01 -0.49431215484E+00  0.14848096586E+01  0.10566000000E+00 0. -1.
        -13    1    4    4    0    0  0.66735736769E+01  0.36308090690E+01 -0.44778511964E+01  0.88193920136E+01  0.10566000000E+00 0.  1.
        -14    1    4    4    0    0  0.92398564173E+01  0.51248695752E+01 -0.54270978189E+01  0.11878241684E+02  0.00000000000E+00 0.  1.
<mgrwt>
<rscale>  0 0.70286234E+02</rscale>
<asrwt>0</asrwt>
<pdfrwt beam="1">  1        1 0.10683213E-01 0.70286234E+02</pdfrwt>
<pdfrwt beam="2">  1       -2 0.27362260E-02 0.70286234E+02</pdfrwt>
<totfact> 0.19673826E+05</totfact>
</mgrwt>
</event>
<event>
 8    1  0.1319619E-024  0.8065563E+02  0.7818608E-02  0.1327201E+00
          1   -1    0    0  501    0  0.00000000000E+00  0.00000000000E+00  0.22474355469E+02  0.22474356034E+02  0.50400000000E-02 0. -1.
         -2   -1    0    0    0  501 -0.00000000000E+00 -0.00000000000E+00 -0.72363920332E+02  0.72363920377E+02  0.25500000000E-02 0.  1.
        -24    2    1    2    0    0  0.00000000000E+00  0.00000000000E+00 -0.49889564863E+02  0.94838276411E+02  0.80655625907E+02 0.  0.
         66    2    3    3    0    0  0.23203926846E+02 -0.28935719735E+02 -0.43500740421E+02  0.57201507960E+02  0.19999995306E+01 0.  0.
         13    1    3    3    0    0 -0.23203926846E+02  0.28935719735E+02 -0.63888244426E+01  0.37636768451E+02  0.10566000000E+00 0. -1.
         13    1    4    4    0    0  0.92330838280E+01 -0.10720792449E+02 -0.17440152457E+02  0.22457856297E+02  0.10566000000E+00 0. -1.
        -13    1    4    4    0    0  0.10887943012E+02 -0.14094412675E+02 -0.20824522705E+02  0.27402037910E+02  0.10566000000E+00 0.  1.
         14    1    4    4    0    0  0.30829000053E+01 -0.41205146121E+01 -0.52360652588E+01  0.73416137536E+01  0.00000000000E+00 0. -1.
<mgrwt>
<rscale>  0 0.80655626E+02</rscale>
<asrwt>0</asrwt>
<pdfrwt beam="1">  1        1 0.34575932E-02 0.80655626E+02</pdfrwt>
<pdfrwt beam="2">  1       -2 0.11132911E-01 0.80655626E+02</pdfrwt>
<totfact> 0.11179630E+05</totfact>
</mgrwt>
</event>
<event>
 8    1  0.1319619E-024  0.8141652E+02  0.7818608E-02  0.1325079E+00
         -2   -1    0    0    0  501 -0.00000000000E+00  0.00000000000E+00  0.40441919170E+02  0.40441919250E+02  0.25500000000E-02 0.  1.
          1   -1    0    0  501    0  0.00000000000E+00 -0.00000000000E+00 -0.40976358530E+02  0.40976358840E+02  0.50400000000E-02 0. -1.
        -24    2    1    2    0    0  0.00000000000E+00  0.00000000000E+00 -0.53443936003E+00  0.81418278090E+02  0.81416524009E+02 0.  0.
         66    2    3    3    0    0 -0.15071122974E+02  0.27429931382E+02  0.25725827130E+02  0.40563013514E+02  0.20000001123E+01 0.  0.
         13    1    3    3    0    0  0.15071122974E+02 -0.27429931382E+02 -0.26260266490E+02  0.40855264576E+02  0.10566000000E+00 0. -1.
         13    1    4    4    0    0 -0.18848456308E+00  0.37754284214E+00  0.20093122067E+00  0.47916846642E+00  0.10566000000E+00 0. -1.
        -13    1    4    4    0    0 -0.14216031567E+02  0.25146406347E+02  0.23893230301E+02  0.37487797000E+02  0.10566000000E+00 0.  1.
        -14    1    4    4    0    0 -0.66660684476E+00  0.19059821934E+01  0.16316656090E+01  0.25960480478E+01  0.00000000000E+00 0.  1.
<mgrwt>
<rscale>  0 0.81416524E+02</rscale>
<asrwt>0</asrwt>
<pdfrwt beam="1">  1        1 0.63040552E-02 0.81416524E+02</pdfrwt>
<pdfrwt beam="2">  1       -2 0.62218337E-02 0.81416524E+02</pdfrwt>
<totfact> 0.12132116E+05</totfact>
</mgrwt>
</event>
<event>
 8    1  0.1319619E-024  0.8311293E+02  0.7818608E-02  0.1320443E+00
         -2   -1    0    0    0  501 -0.00000000000E+00  0.00000000000E+00  0.49708617467E+01  0.49708624007E+01  0.25500000000E-02 0.  1.
          1   -1    0    0  501    0  0.00000000000E+00 -0.00000000000E+00 -0.34741252793E+03  0.34741252796E+03  0.50400000000E-02 0. -1.
        -24    2    1    2    0    0  0.00000000000E+00  0.00000000000E+00 -0.34244166618E+03  0.35238339036E+03  0.83112929609E+02 0.  0.
         66    2    3    3    0    0 -0.20956753126E+01 -0.39530253369E+02 -0.11804259723E+03  0.12451942635E+03  0.19999978396E+01 0.  0.
         13    1    3    3    0    0  0.20956753126E+01  0.39530253369E+02 -0.22439906895E+03  0.22786396401E+03  0.10566000000E+00 0. -1.
         13    1    4    4    0    0 -0.52247219311E+00 -0.16076734971E+02 -0.50042550224E+02  0.52564269057E+02  0.10566000000E+00 0. -1.
        -13    1    4    4    0    0 -0.93422735303E+00 -0.12966776321E+02 -0.39090897534E+02  0.41196110289E+02  0.10566000000E+00 0.  1.
        -14    1    4    4    0    0 -0.63897576648E+00 -0.10486742077E+02 -0.28909149476E+02  0.30759047008E+02  0.00000000000E+00 0.  1.
<mgrwt>
<rscale>  0 0.83112930E+02</rscale>
<asrwt>0</asrwt>
<pdfrwt beam="1">  1        1 0.53448063E-01 0.83112930E+02</pdfrwt>
<pdfrwt beam="2">  1       -2 0.76474828E-03 0.83112930E+02</pdfrwt>
<totfact> 0.16763932E+05</totfact>
</mgrwt>
</event>
<event>
 8    1  0.1319619E-024  0.8089329E+02  0.7818608E-02  0.1326535E+00
         -2   -1    0    0    0  501 -0.00000000000E+00  0.00000000000E+00  0.85711984320E+03  0.85711984321E+03  0.25500000000E-02 0.  1.
          1   -1    0    0  501    0  0.00000000000E+00 -0.00000000000E+00 -0.19086341057E+01  0.19086407601E+01  0.50400000000E-02 0. -1.
        -24    2    1    2    0    0  0.00000000000E+00  0.00000000000E+00  0.85521120910E+03  0.85902848397E+03  0.80893288354E+02 0.  0.
         66    2    3    3    0    0  0.27992876018E+02  0.20654627792E+02  0.64645616048E+03  0.64739461086E+03  0.19999992957E+01 0.  0.
         13    1    3    3    0    0 -0.27992876018E+02 -0.20654627792E+02  0.20875504862E+03  0.21163387311E+03  0.10566000000E+00 0. -1.
         13    1    4    4    0    0  0.70608118329E+01  0.47922465852E+01  0.17314269603E+03  0.17335289165E+03  0.10566000000E+00 0. -1.
        -13    1    4    4    0    0  0.14946655103E+02  0.11491976541E+02  0.34153614315E+03  0.34205615952E+03  0.10566000000E+00 0.  1.
         14    1    4    4    0    0  0.59854090824E+01  0.43704046658E+01  0.13177732129E+03  0.13198555969E+03  0.00000000000E+00 0. -1.
<mgrwt>
<rscale>  0 0.80893288E+02</rscale>
<asrwt>0</asrwt>
<pdfrwt beam="1">  1        1 0.29363687E-03 0.80893288E+02</pdfrwt>
<pdfrwt beam="2">  1       -2 0.13186444E+00 0.80893288E+02</pdfrwt>
<totfact> 0.30063608E+04</totfact>
</mgrwt>
</event>
<event>
 8    1  0.1319619E-024  0.8015962E+02  0.7818608E-02  0.1328599E+00
         -2   -1    0    0    0  501 -0.00000000000E+00  0.00000000000E+00  0.28893627040E+02  0.28893627153E+02  0.25500000000E-02 0.  1.
          1   -1    0    0  501    0  0.00000000000E+00 -0.00000000000E+00 -0.55596735598E+02  0.55596735827E+02  0.50400000000E-02 0. -1.
        -24    2    1    2    0    0  0.00000000000E+00 -0.88817841970E-15 -0.26703108558E+02  0.84490362979E+02  0.80159624685E+02 0.  0.
         66    2    3    3    0    0  0.35869916866E+02  0.72872092696E+01 -0.30506233146E+02  0.47690508691E+02  0.20000008829E+01 0.  0.
         13    1    3    3    0    0 -0.35869916866E+02 -0.72872092696E+01  0.38031245880E+01  0.36799854288E+02  0.10566000000E+00 0. -1.
         13    1    4    4    0    0  0.22892680485E+01  0.23334201369E+00 -0.20367118993E+01  0.30748261886E+01  0.10566000000E+00 0. -1.
        -13    1    4    4    0    0  0.19092536768E+02  0.34820092202E+01 -0.16886178263E+02  0.25725542343E+02  0.10566000000E+00 0.  1.
         14    1    4    4    0    0  0.14488112050E+02  0.35718580357E+01 -0.11583342984E+02  0.18890140160E+02  0.00000000000E+00 0. -1.
<mgrwt>
<rscale>  0 0.80159625E+02</rscale>
<asrwt>0</asrwt>
<pdfrwt beam="1">  1        1 0.85533440E-02 0.80159625E+02</pdfrwt>
<pdfrwt beam="2">  1       -2 0.44451734E-02 0.80159625E+02</pdfrwt>
<totfact> 0.13304300E+05</totfact>
</mgrwt>
</event>
<event>
 8    1  0.1319619E-024  0.7909772E+02  0.7818608E-02  0.1331632E+00
          1   -1    0    0  501    0  0.00000000000E+00  0.00000000000E+00  0.20261673951E+02  0.20261674577E+02  0.50400000000E-02 0. -1.
         -2   -1    0    0    0  501 -0.00000000000E+00 -0.00000000000E+00 -0.77195603723E+02  0.77195603765E+02  0.25500000000E-02 0.  1.
        -24    2    1    2    0    0  0.00000000000E+00  0.00000000000E+00 -0.56933929772E+02  0.97457278342E+02  0.79097716418E+02 0.  0.
         66    2    3    3    0    0  0.37878165804E+00 -0.35093557332E+02 -0.60889162836E+01  0.35675988274E+02  0.19999990217E+01 0.  0.
         13    1    3    3    0    0 -0.37878165804E+00  0.35093557332E+02 -0.50845013488E+02  0.61781290068E+02  0.10566000000E+00 0. -1.
         13    1    4    4    0    0 -0.46979009498E+00 -0.44822956728E+01 -0.11043760964E+01  0.46413885670E+01  0.10566000000E+00 0. -1.
        -13    1    4    4    0    0  0.13700116551E+00 -0.97371801919E+01 -0.12815915484E+01  0.98226823395E+01  0.10566000000E+00 0.  1.
         14    1    4    4    0    0  0.71157058752E+00 -0.20874081467E+02 -0.37029486387E+01  0.21211917368E+02  0.00000000000E+00 0. -1.
<mgrwt>
<rscale>  0 0.79097716E+02</rscale>
<asrwt>0</asrwt>
<pdfrwt beam="1">  1        1 0.31171807E-02 0.79097716E+02</pdfrwt>
<pdfrwt beam="2">  1       -2 0.11876247E-01 0.79097716E+02</pdfrwt>
<totfact> 0.11591567E+05</totfact>
</mgrwt>
</event>
<event>
 8    1  0.1319619E-024  0.7398600E+02  0.7818608E-02  0.1347040E+00
          1   -1    0    0  501    0  0.00000000000E+00  0.00000000000E+00  0.28374091241E+01  0.28374136003E+01  0.50400000000E-02 0. -1.
         -2   -1    0    0    0  501 -0.00000000000E+00 -0.00000000000E+00 -0.48229943313E+03  0.48229943314E+03  0.25500000000E-02 0.  1.
        -24    2    1    2    0    0  0.00000000000E+00  0.35527136788E-14 -0.47946202401E+03  0.48513684674E+03  0.73985995960E+02 0.  0.
         66    2    3    3    0    0  0.61088351437E+01 -0.26773756445E+02 -0.40216357771E+03  0.40310506714E+03  0.20000030154E+01 0.  0.
         13    1    3    3    0    0 -0.61088351437E+01  0.26773756445E+02 -0.77298446300E+02  0.82031779606E+02  0.10566000000E+00 0. -1.
         13    1    4    4    0    0  0.76005853923E+00 -0.26259726456E+01 -0.35105677597E+02  0.35212117018E+02  0.10566000000E+00 0. -1.
        -13    1    4    4    0    0  0.48767827310E+01 -0.19933431459E+02 -0.30823713425E+03  0.30891951508E+03  0.10566000000E+00 0.  1.
         14    1    4    4    0    0  0.47199387350E+00 -0.42143523409E+01 -0.58820765864E+02  0.58973435042E+02  0.00000000000E+00 0. -1.
<mgrwt>
<rscale>  0 0.73985996E+02</rscale>
<asrwt>0</asrwt>
<pdfrwt beam="1">  1        1 0.43652521E-03 0.73985996E+02</pdfrwt>
<pdfrwt beam="2">  1       -2 0.74199848E-01 0.73985996E+02</pdfrwt>
<totfact> 0.63325212E+04</totfact>
</mgrwt>
</event>
<event>
 8    1  0.1319619E-024  0.7863612E+02  0.7818608E-02  0.1332967E+00
          1   -1    0    0  501    0  0.00000000000E+00  0.00000000000E+00  0.12077290393E+03  0.12077290404E+03  0.50400000000E-02 0. -1.
         -2   -1    0    0    0  501 -0.00000000000E+00 -0.00000000000E+00 -0.12800137948E+02  0.12800138202E+02  0.25500000000E-02 0.  1.
        -24    2    1    2    0    0  0.00000000000E+00  0.00000000000E+00  0.10797276598E+03  0.13357304224E+03  0.78636120320E+02 0.  0.
         66    2    3    3    0    0  0.34973086655E+02  0.63506424366E+01  0.82467799557E+02  0.89824191672E+02  0.19999990581E+01 0.  0.
         13    1    3    3    0    0 -0.34973086655E+02 -0.63506424366E+01  0.25504966426E+02  0.43748850567E+02  0.10566000000E+00 0. -1.
         13    1    4    4    0    0  0.32822144755E+01  0.82052656248E+00  0.83694420436E+01  0.90280075244E+01  0.10566000000E+00 0. -1.
        -13    1    4    4    0    0  0.38913553347E+01  0.37185250342E+00  0.80050785868E+01  0.89091732412E+01  0.10566000000E+00 0.  1.
        -14    1    4    4    0    0  0.27799516845E+02  0.51582633707E+01  0.66093278927E+02  0.71887010907E+02  0.00000000000E+00 0.  1.
<mgrwt>
<rscale>  0 0.78636120E+02</rscale>
<asrwt>0</asrwt>
<pdfrwt beam="1">  1        1 0.18580447E-01 0.78636120E+02</pdfrwt>
<pdfrwt beam="2">  1       -2 0.19692520E-02 0.78636120E+02</pdfrwt>
<totfact> 0.15900771E+05</totfact>
</mgrwt>
</event>
<event>
 8    1  0.1319619E-024  0.8023367E+02  0.7818608E-02  0.1328390E+00
         -2   -1    0    0    0  501 -0.00000000000E+00  0.00000000000E+00  0.95332827587E+01  0.95332830997E+01  0.25500000000E-02 0.  1.
          1   -1    0    0  501    0  0.00000000000E+00 -0.00000000000E+00 -0.16881491393E+03  0.16881491401E+03  0.50400000000E-02 0. -1.
        -24    2    1    2    0    0  0.00000000000E+00  0.00000000000E+00 -0.15928163118E+03  0.17834819711E+03  0.80233667385E+02 0.  0.
         66    2    3    3    0    0 -0.33295792061E+02  0.21026949768E+02 -0.96415318448E+02  0.10416648221E+03  0.19999997321E+01 0.  0.
         13    1    3    3    0    0  0.33295792061E+02 -0.21026949768E+02 -0.62866312727E+02  0.74181714899E+02  0.10566000000E+00 0. -1.
         13    1    4    4    0    0 -0.56026067115E+01  0.42390075609E+01 -0.16876830545E+02  0.18281054684E+02  0.10566000000E+00 0. -1.
        -13    1    4    4    0    0 -0.10485695031E+02  0.68535627983E+01 -0.29945889558E+02  0.32460569754E+02  0.10566000000E+00 0.  1.
         14    1    4    4    0    0 -0.17207490318E+02  0.99343794090E+01 -0.49592598345E+02  0.53424857771E+02  0.00000000000E+00 0. -1.
<mgrwt>
<rscale>  0 0.80233667E+02</rscale>
<asrwt>0</asrwt>
<pdfrwt beam="1">  1        1 0.25971523E-01 0.80233667E+02</pdfrwt>
<pdfrwt beam="2">  1       -2 0.14666590E-02 0.80233667E+02</pdfrwt>
<totfact> 0.16015529E+05</totfact>
</mgrwt>
</event>
<event>
 8    1  0.1319619E-024  0.7953092E+02  0.7818608E-02  0.1330388E+00
         -2   -1    0    0    0  501 -0.00000000000E+00  0.00000000000E+00  0.14649346894E+03  0.14649346897E+03  0.25500000000E-02 0.  1.
          1   -1    0    0  501    0  0.00000000000E+00 -0.00000000000E+00 -0.10794281366E+02  0.10794282543E+02  0.50400000000E-02 0. -1.
        -24    2    1    2    0    0  0.00000000000E+00  0.00000000000E+00  0.13569918758E+03  0.15728775151E+03  0.79530920186E+02 0.  0.
         66    2    3    3    0    0  0.14894380176E+02 -0.30566657964E+02  0.10857347210E+03  0.11379086950E+03  0.19999997011E+01 0.  0.
         13    1    3    3    0    0 -0.14894380176E+02  0.30566657964E+02  0.27125715479E+02  0.43496882006E+02  0.10566000000E+00 0. -1.
         13    1    4    4    0    0  0.40675528109E+00 -0.70463531514E+00  0.23617396891E+01  0.25001878291E+01  0.10566000000E+00 0.  1.
        -13    1    4    4    0    0  0.42601217011E+01 -0.10668547825E+02  0.36923256237E+02  0.38669168142E+02  0.10566000000E+00 0.  1.
        -14    1    4    4    0    0  0.10227503194E+02 -0.19193474824E+02  0.69288476173E+02  0.72621513533E+02  0.00000000000E+00 0.  1.
<mgrwt>
<rscale>  0 0.79530920E+02</rscale>
<asrwt>0</asrwt>
<pdfrwt beam="1">  1        1 0.16606587E-02 0.79530920E+02</pdfrwt>
<pdfrwt beam="2">  1       -2 0.22537457E-01 0.79530920E+02</pdfrwt>
<totfact> 0.96693384E+04</totfact>
</mgrwt>
</event>
<event>
 8    1  0.1319619E-024  0.8060223E+02  0.7818608E-02  0.1327351E+00
         -2   -1    0    0    0  501 -0.00000000000E+00  0.00000000000E+00  0.10643104398E+02  0.10643104704E+02  0.25500000000E-02 0.  1.
          1   -1    0    0  501    0  0.00000000000E+00 -0.00000000000E+00 -0.15260397013E+03  0.15260397021E+03  0.50400000000E-02 0. -1.
        -24    2    1    2    0    0 -0.88817841970E-15 -0.35527136788E-14 -0.14196086573E+03  0.16324707491E+03  0.80602233651E+02 0.  0.
         66    2    3    3    0    0 -0.61236689111E+01 -0.31061133609E+02 -0.20598219700E+02  0.37823008814E+02  0.19999997162E+01 0.  0.
         13    1    3    3    0    0  0.61236689111E+01  0.31061133609E+02 -0.12136264603E+03  0.12542406610E+03  0.10566000000E+00 0. -1.
         13    1    4    4    0    0 -0.38674770441E+01 -0.15770066229E+02 -0.10755890631E+02  0.19476979100E+02  0.10566000000E+00 0. -1.
        -13    1    4    4    0    0 -0.12384962278E+01 -0.11107578746E+02 -0.70935810260E+01  0.13237908986E+02  0.10566000000E+00 0.  1.
        -14    1    4    4    0    0 -0.10176956391E+01 -0.41834886346E+01 -0.27487480431E+01  0.51081207282E+01  0.00000000000E+00 0.  1.
<mgrwt>
<rscale>  0 0.80602234E+02</rscale>
<asrwt>0</asrwt>
<pdfrwt beam="1">  1        1 0.23477532E-01 0.80602234E+02</pdfrwt>
<pdfrwt beam="2">  1       -2 0.16374008E-02 0.80602234E+02</pdfrwt>
<totfact> 0.15524495E+05</totfact>
</mgrwt>
</event>
<event>
 8    1  0.1319619E-024  0.7981633E+02  0.7818608E-02  0.1329573E+00
          1   -1    0    0  501    0  0.00000000000E+00  0.00000000000E+00  0.22636284662E+03  0.22636284668E+03  0.50400000000E-02 0. -1.
         -2   -1    0    0    0  501 -0.00000000000E+00 -0.00000000000E+00 -0.70358790563E+01  0.70358795184E+01  0.25500000000E-02 0.  1.
        -24    2    1    2    0    0  0.00000000000E+00  0.00000000000E+00  0.21932696756E+03  0.23339872619E+03  0.79816330964E+02 0.  0.
         66    2    3    3    0    0  0.32613931090E+02 -0.19125301584E+02  0.14686036717E+03  0.15166216768E+03  0.19999992059E+01 0.  0.
         13    1    3    3    0    0 -0.32613931090E+02  0.19125301584E+02  0.72466600390E+02  0.81736558516E+02  0.10566000000E+00 0. -1.
         13    1    4    4    0    0  0.64852627036E+01 -0.45675728493E+01  0.29805164588E+02  0.30842833109E+02  0.10566000000E+00 0. -1.
        -13    1    4    4    0    0  0.17755218137E+02 -0.10073487678E+02  0.78384599093E+02  0.80999255948E+02  0.10566000000E+00 0.  1.
        -14    1    4    4    0    0  0.83734502493E+01 -0.44842410573E+01  0.38670603492E+02  0.39820078621E+02  0.00000000000E+00 0.  1.
<mgrwt>
<rscale>  0 0.79816331E+02</rscale>
<asrwt>0</asrwt>
<pdfrwt beam="1">  1        1 0.34825049E-01 0.79816331E+02</pdfrwt>
<pdfrwt beam="2">  1       -2 0.10824431E-02 0.79816331E+02</pdfrwt>
<totfact> 0.17185352E+05</totfact>
</mgrwt>
</event>
<event>
 8    1  0.1319619E-024  0.7716436E+02  0.7818608E-02  0.1337297E+00
          1   -1    0    0  501    0  0.00000000000E+00  0.00000000000E+00  0.11883464844E+02  0.11883465913E+02  0.50400000000E-02 0. -1.
         -2   -1    0    0    0  501 -0.00000000000E+00 -0.00000000000E+00 -0.12526518029E+03  0.12526518032E+03  0.25500000000E-02 0.  1.
        -24    2    1    2    0    0  0.00000000000E+00  0.35527136788E-14 -0.11338171545E+03  0.13714864623E+03  0.77164355535E+02 0.  0.
         66    2    3    3    0    0 -0.13890025757E+02  0.22452678136E+02 -0.10666985976E+03  0.10990684486E+03  0.19999989024E+01 0.  0.
         13    1    3    3    0    0  0.13890025757E+02 -0.22452678136E+02 -0.67118556899E+01  0.27241801370E+02  0.10566000000E+00 0. -1.
         13    1    4    4    0    0 -0.11171809522E+01  0.12780284546E+01 -0.77757460288E+01  0.79595753876E+01  0.10566000000E+00 0. -1.
        -13    1    4    4    0    0 -0.11290444471E+02  0.18181046185E+02 -0.86903308585E+02  0.89499836781E+02  0.10566000000E+00 0.  1.
         14    1    4    4    0    0 -0.14824003339E+01  0.29936034966E+01 -0.11990805144E+02  0.12447432693E+02  0.00000000000E+00 0. -1.
<mgrwt>
<rscale>  0 0.77164356E+02</rscale>
<asrwt>0</asrwt>
<pdfrwt beam="1">  1        1 0.18282255E-02 0.77164356E+02</pdfrwt>
<pdfrwt beam="2">  1       -2 0.19271565E-01 0.77164356E+02</pdfrwt>
<totfact> 0.10960897E+05</totfact>
</mgrwt>
</event>
<event>
 8    1  0.1319619E-024  0.7974502E+02  0.7818608E-02  0.1329777E+00
          1   -1    0    0  501    0  0.00000000000E+00  0.00000000000E+00  0.88141557993E+02  0.88141558137E+02  0.50400000000E-02 0. -1.
         -2   -1    0    0    0  501 -0.00000000000E+00 -0.00000000000E+00 -0.18037086084E+02  0.18037086265E+02  0.25500000000E-02 0.  1.
        -24    2    1    2    0    0 -0.35527136788E-14  0.17763568394E-14  0.70104471909E+02  0.10617864440E+03  0.79745015803E+02 0.  0.
         66    2    3    3    0    0  0.29118551179E+02  0.13575200076E+02  0.36887436151E+01  0.32400353498E+02  0.19999993724E+01 0.  0.
         13    1    3    3    0    0 -0.29118551179E+02 -0.13575200076E+02  0.66415728294E+02  0.73778290904E+02  0.10566000000E+00 0. -1.
         13    1    4    4    0    0  0.77930051681E+01  0.34216701229E+01  0.17132967506E+01  0.86824711788E+01  0.10566000000E+00 0.  1.
        -13    1    4    4    0    0  0.16593618581E+02  0.75532468003E+01  0.17075363963E+01  0.18311923968E+02  0.10566000000E+00 0. -1.
         14    1    4    4    0    0  0.47319274301E+01  0.26002831527E+01  0.26791046824E+00  0.54059583514E+01  0.00000000000E+00 0. -1.
<mgrwt>
<rscale>  0 0.79745016E+02</rscale>
<asrwt>0</asrwt>
<pdfrwt beam="1">  1        1 0.13560240E-01 0.79745016E+02</pdfrwt>
<pdfrwt beam="2">  1       -2 0.27749364E-02 0.79745016E+02</pdfrwt>
<totfact> 0.14519538E+05</totfact>
</mgrwt>
</event>
<event>
 8    1  0.1319619E-024  0.7856097E+02  0.7818608E-02  0.1333185E+00
          1   -1    0    0  501    0  0.00000000000E+00  0.00000000000E+00  0.14644139242E+03  0.14644139251E+03  0.50400000000E-02 0. -1.
         -2   -1    0    0    0  501 -0.00000000000E+00 -0.00000000000E+00 -0.10536342424E+02  0.10536342732E+02  0.25500000000E-02 0.  1.
        -24    2    1    2    0    0 -0.71054273576E-14  0.17763568394E-14  0.13590505000E+03  0.15697773524E+03  0.78560974704E+02 0.  0.
         66    2    3    3    0    0  0.32365174265E+02  0.10911566839E+02  0.29333902011E+02  0.45067112226E+02  0.20000002825E+01 0.  0.
         13    1    3    3    0    0 -0.32365174265E+02 -0.10911566839E+02  0.10657114799E+03  0.11191062302E+03  0.10566000000E+00 0. -1.
         13    1    4    4    0    0  0.76520118642E+01  0.21220657513E+01  0.63949884876E+01  0.10196248840E+02  0.10566000000E+00 0. -1.
        -13    1    4    4    0    0  0.16656670668E+02  0.54038546044E+01  0.15817882406E+02  0.23597942499E+02  0.10566000000E+00 0.  1.
         14    1    4    4    0    0  0.80564917332E+01  0.33856464837E+01  0.71210311171E+01  0.11272920887E+02  0.00000000000E+00 0. -1.
<mgrwt>
<rscale>  0 0.78560975E+02</rscale>
<asrwt>0</asrwt>
<pdfrwt beam="1">  1        1 0.22529445E-01 0.78560975E+02</pdfrwt>
<pdfrwt beam="2">  1       -2 0.16209758E-02 0.78560975E+02</pdfrwt>
<totfact> 0.16499617E+05</totfact>
</mgrwt>
</event>
<event>
 8    1  0.1319619E-024  0.8035692E+02  0.7818608E-02  0.1328042E+00
          1   -1    0    0  501    0  0.00000000000E+00  0.00000000000E+00  0.23452061263E+01  0.23452115419E+01  0.50400000000E-02 0. -1.
         -2   -1    0    0    0  501 -0.00000000000E+00 -0.00000000000E+00 -0.68834328073E+03  0.68834328073E+03  0.25500000000E-02 0.  1.
        -24    2    1    2    0    0  0.17763568394E-14  0.00000000000E+00 -0.68599807460E+03  0.69068849227E+03  0.80356922560E+02 0.  0.
         66    2    3    3    0    0  0.15785285147E+02  0.48755163148E+01 -0.65777363463E+03  0.65798411852E+03  0.19999831044E+01 0.  0.
         13    1    3    3    0    0 -0.15785285147E+02 -0.48755163148E+01 -0.28224439972E+02  0.32704373748E+02  0.10566000000E+00 0. -1.
         13    1    4    4    0    0  0.84800810152E+00  0.15739619375E+00 -0.29502891907E+02  0.29515685427E+02  0.10566000000E+00 0.  1.
        -13    1    4    4    0    0  0.14601483897E+02  0.48713972235E+01 -0.61363976599E+03  0.61383280086E+03  0.10566000000E+00 0.  1.
        -14    1    4    4    0    0  0.33579314826E+00 -0.15327710248E+00 -0.14630976727E+02  0.14635632234E+02  0.00000000000E+00 0.  1.
<mgrwt>
<rscale>  0 0.80356923E+02</rscale>
<asrwt>0</asrwt>
<pdfrwt beam="1">  1        1 0.36080191E-03 0.80356923E+02</pdfrwt>
<pdfrwt beam="2">  1       -2 0.10589881E+00 0.80356923E+02</pdfrwt>
<totfact> 0.38003176E+04</totfact>
</mgrwt>
</event>
<event>
 8    1  0.1319619E-024  0.7980732E+02  0.7818608E-02  0.1329599E+00
          1   -1    0    0  501    0  0.00000000000E+00  0.00000000000E+00  0.78001041437E+02  0.78001041600E+02  0.50400000000E-02 0. -1.
         -2   -1    0    0    0  501 -0.00000000000E+00 -0.00000000000E+00 -0.20413857699E+02  0.20413857858E+02  0.25500000000E-02 0.  1.
        -24    2    1    2    0    0  0.00000000000E+00 -0.17763568394E-14  0.57587183738E+02  0.98414899457E+02  0.79807322373E+02 0.  0.
         66    2    3    3    0    0 -0.12369082639E+02 -0.13590136616E+02 -0.14832547675E+02  0.23700010174E+02  0.19999982864E+01 0.  0.
         13    1    3    3    0    0  0.12369082639E+02  0.13590136616E+02  0.72419731413E+02  0.74714889283E+02  0.10566000000E+00 0. -1.
         13    1    4    4    0    0 -0.18119279630E+01 -0.26022273221E+01 -0.20186733963E+01  0.37604356524E+01  0.10566000000E+00 0. -1.
        -13    1    4    4    0    0 -0.53252633802E+01 -0.61061129543E+01 -0.63116845818E+01  0.10270909004E+02  0.10566000000E+00 0.  1.
         14    1    4    4    0    0 -0.52318912959E+01 -0.48817963399E+01 -0.65021896969E+01  0.96686655175E+01  0.00000000000E+00 0. -1.
<mgrwt>
<rscale>  0 0.79807322E+02</rscale>
<asrwt>0</asrwt>
<pdfrwt beam="1">  1        1 0.12000160E-01 0.79807322E+02</pdfrwt>
<pdfrwt beam="2">  1       -2 0.31405935E-02 0.79807322E+02</pdfrwt>
<totfact> 0.14204927E+05</totfact>
</mgrwt>
</event>
<event>
 8    1  0.1319619E-024  0.7951265E+02  0.7818608E-02  0.1330440E+00
          1   -1    0    0  501    0  0.00000000000E+00  0.00000000000E+00  0.68125723740E+02  0.68125723927E+02  0.50400000000E-02 0. -1.
         -2   -1    0    0    0  501 -0.00000000000E+00 -0.00000000000E+00 -0.23200712075E+02  0.23200712215E+02  0.25500000000E-02 0.  1.
        -24    2    1    2    0    0  0.00000000000E+00  0.00000000000E+00  0.44925011666E+02  0.91326436142E+02  0.79512648461E+02 0.  0.
         66    2    3    3    0    0 -0.29776320490E+02  0.15797992302E+02 -0.16804632126E+01  0.33808723432E+02  0.20000001986E+01 0.  0.
         13    1    3    3    0    0  0.29776320490E+02 -0.15797992302E+02  0.46605474878E+02  0.57517712710E+02  0.10566000000E+00 0. -1.
         13    1    4    4    0    0 -0.42442780327E+01  0.18678549639E+01  0.15480584467E+00  0.46408950721E+01  0.10566000000E+00 0. -1.
        -13    1    4    4    0    0 -0.22382402139E+02  0.12575074463E+02 -0.18394732594E+01  0.25739060767E+02  0.10566000000E+00 0.  1.
        -14    1    4    4    0    0 -0.31496403185E+01  0.13550628746E+01  0.42042021653E-02  0.34287675927E+01  0.00000000000E+00 0.  1.
<mgrwt>
<rscale>  0 0.79512648E+02</rscale>
<asrwt>0</asrwt>
<pdfrwt beam="1">  1        1 0.10480880E-01 0.79512648E+02</pdfrwt>
<pdfrwt beam="2">  1       -2 0.35693404E-02 0.79512648E+02</pdfrwt>
<totfact> 0.14044442E+05</totfact>
</mgrwt>
</event>
<event>
 8    1  0.1319619E-024  0.8022403E+02  0.7818608E-02  0.1328417E+00
          1   -1    0    0  501    0  0.00000000000E+00  0.00000000000E+00  0.37188379637E+02  0.37188379979E+02  0.50400000000E-02 0. -1.
         -2   -1    0    0    0  501 -0.00000000000E+00 -0.00000000000E+00 -0.43265493907E+02  0.43265493982E+02  0.25500000000E-02 0.  1.
        -24    2    1    2    0    0  0.35527136788E-14 -0.35527136788E-14 -0.60771142695E+01  0.80453873961E+02  0.80224027058E+02 0.  0.
         66    2    3    3    0    0 -0.25647246040E+02  0.16981283739E+02 -0.28820577430E+02  0.42199181341E+02  0.19999988965E+01 0.  0.
         13    1    3    3    0    0  0.25647246040E+02 -0.16981283739E+02  0.22743463161E+02  0.38254692620E+02  0.10566000000E+00 0. -1.
         13    1    4    4    0    0 -0.60985480485E+00  0.21946836586E+00 -0.83472818036E+00  0.10620849388E+01  0.10566000000E+00 0. -1.
        -13    1    4    4    0    0 -0.10319643794E+02  0.72065892368E+01 -0.11038010062E+02  0.16741529399E+02  0.10566000000E+00 0.  1.
        -14    1    4    4    0    0 -0.14717747441E+02  0.95552261363E+01 -0.16947839188E+02  0.24395567003E+02  0.00000000000E+00 0.  1.
<mgrwt>
<rscale>  0 0.80224027E+02</rscale>
<asrwt>0</asrwt>
<pdfrwt beam="1">  1        1 0.57212892E-02 0.80224027E+02</pdfrwt>
<pdfrwt beam="2">  1       -2 0.66562299E-02 0.80224027E+02</pdfrwt>
<totfact> 0.12447791E+05</totfact>
</mgrwt>
</event>
<event>
 8    1  0.1319619E-024  0.7962211E+02  0.7818608E-02  0.1330127E+00
          1   -1    0    0  501    0  0.00000000000E+00  0.00000000000E+00  0.36413308839E+03  0.36413308843E+03  0.50400000000E-02 0. -1.
         -2   -1    0    0    0  501 -0.00000000000E+00 -0.00000000000E+00 -0.43525846893E+01  0.43525854363E+01  0.25500000000E-02 0.  1.
        -24    2    1    2    0    0  0.00000000000E+00  0.35527136788E-14  0.35978050370E+03  0.36848567386E+03  0.79622113748E+02 0.  0.
         66    2    3    3    0    0 -0.23905752363E+02  0.31330415174E+02  0.20528200705E+03  0.20904014541E+03  0.20000161181E+01 0.  0.
         13    1    3    3    0    0  0.23905752363E+02 -0.31330415174E+02  0.15449849665E+03  0.15944552845E+03  0.10566000000E+00 0. -1.
         13    1    4    4    0    0 -0.76454163005E+01  0.10966248613E+02  0.66487397234E+02  0.67818110812E+02  0.10566000000E+00 0. -1.
        -13    1    4    4    0    0 -0.39137883064E+01  0.53070398290E+01  0.33976964860E+02  0.34611092380E+02  0.10566000000E+00 0.  1.
         14    1    4    4    0    0 -0.12346547756E+02  0.15057126731E+02  0.10481764495E+03  0.10661094222E+03  0.00000000000E+00 0. -1.
<mgrwt>
<rscale>  0 0.79622114E+02</rscale>
<asrwt>0</asrwt>
<pdfrwt beam="1">  1        1 0.56020469E-01 0.79622114E+02</pdfrwt>
<pdfrwt beam="2">  1       -2 0.66962855E-03 0.79622114E+02</pdfrwt>
<totfact> 0.18927445E+05</totfact>
</mgrwt>
</event>
<event>
 8    1  0.1319619E-024  0.7948995E+02  0.7818608E-02  0.1330505E+00
          1   -1    0    0  501    0  0.00000000000E+00  0.00000000000E+00  0.69464270690E+01  0.69464288974E+01  0.50400000000E-02 0. -1.
         -2   -1    0    0    0  501 -0.00000000000E+00 -0.00000000000E+00 -0.22740650827E+03  0.22740650829E+03  0.25500000000E-02 0.  1.
        -24    2    1    2    0    0  0.35527136788E-14  0.00000000000E+00 -0.22046008120E+03  0.23435293719E+03  0.79489947557E+02 0.  0.
         66    2    3    3    0    0  0.23786505785E+02 -0.29872701155E+02 -0.14252582977E+03  0.14756621676E+03  0.20000112347E+01 0.  0.
         13    1    3    3    0    0 -0.23786505785E+02  0.29872701155E+02 -0.77934251433E+02  0.86786720425E+02  0.10566000000E+00 0. -1.
         13    1    4    4    0    0  0.36861265818E+01 -0.45791799243E+01 -0.20868655864E+02  0.21681060388E+02  0.10566000000E+00 0. -1.
        -13    1    4    4    0    0  0.55687623115E+01 -0.81329687905E+01 -0.35865245710E+02  0.37195205456E+02  0.10566000000E+00 0.  1.
         14    1    4    4    0    0  0.14531616892E+02 -0.17160552440E+02 -0.85791928199E+02  0.88689950916E+02  0.00000000000E+00 0. -1.
<mgrwt>
<rscale>  0 0.79489948E+02</rscale>
<asrwt>0</asrwt>
<pdfrwt beam="1">  1        1 0.10686814E-02 0.79489948E+02</pdfrwt>
<pdfrwt beam="2">  1       -2 0.34985611E-01 0.79489948E+02</pdfrwt>
<totfact> 0.81896549E+04</totfact>
</mgrwt>
</event>
<event>
 8    1  0.1319619E-024  0.7955090E+02  0.7818608E-02  0.1330331E+00
          1   -1    0    0  501    0  0.00000000000E+00  0.00000000000E+00  0.87798853294E+01  0.87798867760E+01  0.50400000000E-02 0. -1.
         -2   -1    0    0    0  501 -0.00000000000E+00 -0.00000000000E+00 -0.18019442972E+03  0.18019442973E+03  0.25500000000E-02 0.  1.
        -24    2    1    2    0    0 -0.17763568394E-14  0.00000000000E+00 -0.17141454439E+03  0.18897431651E+03  0.79550903660E+02 0.  0.
         66    2    3    3    0    0 -0.12717873355E+02  0.36695967674E+02 -0.10588223321E+03  0.11279798607E+03  0.20000017692E+01 0.  0.
         13    1    3    3    0    0  0.12717873355E+02 -0.36695967674E+02 -0.65532311180E+02  0.76176330437E+02  0.10566000000E+00 0. -1.
         13    1    4    4    0    0 -0.64732407873E+01  0.20566939829E+02 -0.58768790825E+02  0.62599391365E+02  0.10566000000E+00 0.  1.
        -13    1    4    4    0    0 -0.80434075417E+00  0.16509772209E+01 -0.58151178503E+01  0.60991351421E+01  0.10566000000E+00 0. -1.
         14    1    4    4    0    0 -0.54402918132E+01  0.14478050625E+02 -0.41298324531E+02  0.44099459565E+02  0.00000000000E+00 0. -1.
<mgrwt>
<rscale>  0 0.79550904E+02</rscale>
<asrwt>0</asrwt>
<pdfrwt beam="1">  1        1 0.13507518E-02 0.79550904E+02</pdfrwt>
<pdfrwt beam="2">  1       -2 0.27722217E-01 0.79550904E+02</pdfrwt>
<totfact> 0.89908594E+04</totfact>
</mgrwt>
</event>
<event>
 8    1  0.1319619E-024  0.7541426E+02  0.7818608E-02  0.1342593E+00
          1   -1    0    0  501    0  0.00000000000E+00  0.00000000000E+00  0.11821700863E+03  0.11821700874E+03  0.50400000000E-02 0. -1.
         -2   -1    0    0    0  501 -0.00000000000E+00 -0.00000000000E+00 -0.12027269078E+02  0.12027269349E+02  0.25500000000E-02 0.  1.
        -24    2    1    2    0    0  0.00000000000E+00  0.00000000000E+00  0.10618973955E+03  0.13024427808E+03  0.75414263823E+02 0.  0.
         66    2    3    3    0    0 -0.22903823593E+02 -0.12444109195E+02  0.61391202035E+01  0.26853859841E+02  0.20000006649E+01 0.  0.
         13    1    3    3    0    0  0.22903823593E+02  0.12444109195E+02  0.10005061935E+03  0.10339041824E+03  0.10566000000E+00 0. -1.
         13    1    4    4    0    0 -0.10251578499E+02 -0.55403752469E+01  0.29632605718E+01  0.12024254524E+02  0.10566000000E+00 0. -1.
        -13    1    4    4    0    0 -0.40717068360E+01 -0.22021437771E+01  0.17113480718E+01  0.49364065910E+01  0.10566000000E+00 0.  1.
        -14    1    4    4    0    0 -0.85805382578E+01 -0.47015901711E+01  0.14645115599E+01  0.98931987264E+01  0.00000000000E+00 0.  1.
<mgrwt>
<rscale>  0 0.75414264E+02</rscale>
<asrwt>0</asrwt>
<pdfrwt beam="1">  1        1 0.18187233E-01 0.75414264E+02</pdfrwt>
<pdfrwt beam="2">  1       -2 0.18503490E-02 0.75414264E+02</pdfrwt>
<totfact> 0.17718355E+05</totfact>
</mgrwt>
</event>
<event>
 8    1  0.1319619E-024  0.7713174E+02  0.7818608E-02  0.1337394E+00
         -2   -1    0    0    0  501 -0.00000000000E+00  0.00000000000E+00  0.11632486969E+02  0.11632487249E+02  0.25500000000E-02 0.  1.
          1   -1    0    0  501    0  0.00000000000E+00 -0.00000000000E+00 -0.12785971142E+03  0.12785971152E+03  0.50400000000E-02 0. -1.
        -24    2    1    2    0    0 -0.71054273576E-14  0.00000000000E+00 -0.11622722445E+03  0.13949219877E+03  0.77131743231E+02 0.  0.
         66    2    3    3    0    0 -0.35439350723E+02 -0.23318255144E+01 -0.31089368178E+02  0.47243346609E+02  0.19999988091E+01 0.  0.
         13    1    3    3    0    0  0.35439350723E+02  0.23318255144E+01 -0.85137856275E+02  0.92248852161E+02  0.10566000000E+00 0. -1.
         13    1    4    4    0    0 -0.37291819455E+01  0.27018458226E+00 -0.34374473367E+01  0.50800596374E+01  0.10566000000E+00 0. -1.
        -13    1    4    4    0    0 -0.17894600682E+02 -0.12913757360E+01 -0.15055952162E+02  0.23421725906E+02  0.10566000000E+00 0.  1.
         14    1    4    4    0    0 -0.13815568095E+02 -0.13106343606E+01 -0.12595968679E+02  0.18741561066E+02  0.00000000000E+00 0. -1.
<mgrwt>
<rscale>  0 0.77131743E+02</rscale>
<asrwt>0</asrwt>
<pdfrwt beam="1">  1        1 0.19670724E-01 0.77131743E+02</pdfrwt>
<pdfrwt beam="2">  1       -2 0.17896135E-02 0.77131743E+02</pdfrwt>
<totfact> 0.16912326E+05</totfact>
</mgrwt>
</event>
<event>
 8    1  0.1319619E-024  0.8683313E+02  0.7818608E-02  0.1310707E+00
         -2   -1    0    0    0  501 -0.00000000000E+00  0.00000000000E+00  0.16462543767E+03  0.16462543769E+03  0.25500000000E-02 0.  1.
          1   -1    0    0  501    0  0.00000000000E+00 -0.00000000000E+00 -0.11450223206E+02  0.11450224315E+02  0.50400000000E-02 0. -1.
        -24    2    1    2    0    0  0.00000000000E+00 -0.35527136788E-14  0.15317521446E+03  0.17607566200E+03  0.86833129762E+02 0.  0.
         66    2    3    3    0    0 -0.40216412396E+01 -0.31225486384E+02  0.13718239735E+03  0.14076297361E+03  0.19999998792E+01 0.  0.
         13    1    3    3    0    0  0.40216412396E+01  0.31225486384E+02  0.15992817115E+02  0.35312688393E+02  0.10566000000E+00 0. -1.
         13    1    4    4    0    0 -0.90054811757E-01 -0.92182857219E+00  0.30578804250E+01  0.31968225655E+01  0.10566000000E+00 0. -1.
        -13    1    4    4    0    0 -0.13908073432E+01 -0.98599433153E+01  0.41425541704E+02  0.42605627524E+02  0.10566000000E+00 0.  1.
        -14    1    4    4    0    0 -0.25407790846E+01 -0.20443714497E+02  0.92698975218E+02  0.94960523521E+02  0.00000000000E+00 0.  1.
<mgrwt>
<rscale>  0 0.86833130E+02</rscale>
<asrwt>0</asrwt>
<pdfrwt beam="1">  1        1 0.17615730E-02 0.86833130E+02</pdfrwt>
<pdfrwt beam="2">  1       -2 0.25326989E-01 0.86833130E+02</pdfrwt>
<totfact> 0.74106402E+04</totfact>
</mgrwt>
</event>
<event>
 8    1  0.1319619E-024  0.8141480E+02  0.7818608E-02  0.1325084E+00
         -2   -1    0    0    0  501 -0.00000000000E+00  0.00000000000E+00  0.12849574117E+02  0.12849574370E+02  0.25500000000E-02 0.  1.
          1   -1    0    0  501    0  0.00000000000E+00 -0.00000000000E+00 -0.12896086611E+03  0.12896086621E+03  0.50400000000E-02 0. -1.
        -24    2    1    2    0    0 -0.35527136788E-14  0.00000000000E+00 -0.11611129199E+03  0.14181044058E+03  0.81414795516E+02 0.  0.
         66    2    3    3    0    0 -0.22594305087E+02 -0.75258765707E+01 -0.63813994452E+00  0.23907084187E+02  0.20000027980E+01 0.  0.
         13    1    3    3    0    0  0.22594305087E+02  0.75258765707E+01 -0.11547315205E+03  0.11790335639E+03  0.10566000000E+00 0. -1.
         13    1    4    4    0    0 -0.10237814280E+02 -0.28016084966E+01 -0.95062192727E+00  0.10657236860E+02  0.10566000000E+00 0. -1.
        -13    1    4    4    0    0 -0.75363138552E+01 -0.30708492121E+01 -0.78388219819E-01  0.81390079344E+01  0.10566000000E+00 0.  1.
         14    1    4    4    0    0 -0.48201769514E+01 -0.16534188621E+01  0.39087020256E+00  0.51108393920E+01  0.00000000000E+00 0. -1.
<mgrwt>
<rscale>  0 0.81414796E+02</rscale>
<asrwt>0</asrwt>
<pdfrwt beam="1">  1        1 0.19840132E-01 0.81414796E+02</pdfrwt>
<pdfrwt beam="2">  1       -2 0.19768577E-02 0.81414796E+02</pdfrwt>
<totfact> 0.14654697E+05</totfact>
</mgrwt>
</event>
<event>
 8    1  0.1319619E-024  0.7961925E+02  0.7818608E-02  0.1330135E+00
         -2   -1    0    0    0  501 -0.00000000000E+00  0.00000000000E+00  0.18630792742E+02  0.18630792917E+02  0.25500000000E-02 0.  1.
          1   -1    0    0  501    0  0.00000000000E+00 -0.00000000000E+00 -0.85063800434E+02  0.85063800583E+02  0.50400000000E-02 0. -1.
        -24    2    1    2    0    0  0.35527136788E-14  0.00000000000E+00 -0.66433007692E+02  0.10369459350E+03  0.79619245225E+02 0.  0.
         66    2    3    3    0    0 -0.26712181245E+02  0.29105672134E+02 -0.39362794231E+02  0.55804214528E+02  0.20000030298E+01 0.  0.
         13    1    3    3    0    0  0.26712181245E+02 -0.29105672134E+02 -0.27070213461E+02  0.47890378972E+02  0.10566000000E+00 0. -1.
         13    1    4    4    0    0 -0.42621259916E+01  0.54978322059E+01 -0.74966242649E+01  0.10227532270E+02  0.10566000000E+00 0. -1.
        -13    1    4    4    0    0 -0.94928179284E+01  0.96869212517E+01 -0.13610031985E+02  0.19214426097E+02  0.10566000000E+00 0.  1.
         14    1    4    4    0    0 -0.12957237325E+02  0.13920918677E+02 -0.18256137981E+02  0.26362256161E+02  0.00000000000E+00 0. -1.
<mgrwt>
<rscale>  0 0.79619245E+02</rscale>
<asrwt>0</asrwt>
<pdfrwt beam="1">  1        1 0.13086738E-01 0.79619245E+02</pdfrwt>
<pdfrwt beam="2">  1       -2 0.28662759E-02 0.79619245E+02</pdfrwt>
<totfact> 0.14497633E+05</totfact>
</mgrwt>
</event>
<event>
 8    1  0.1319619E-024  0.7878737E+02  0.7818608E-02  0.1332528E+00
         -2   -1    0    0    0  501 -0.00000000000E+00  0.00000000000E+00  0.11959644505E+02  0.11959644777E+02  0.25500000000E-02 0.  1.
          1   -1    0    0  501    0  0.00000000000E+00 -0.00000000000E+00 -0.12975823166E+03  0.12975823176E+03  0.50400000000E-02 0. -1.
        -24    2    1    2    0    0  0.00000000000E+00  0.00000000000E+00 -0.11779858716E+03  0.14171787654E+03  0.78787368238E+02 0.  0.
         66    2    3    3    0    0 -0.38091700266E+02 -0.63772388338E+01 -0.45213508820E+02  0.59497127540E+02  0.20000003703E+01 0.  0.
         13    1    3    3    0    0  0.38091700266E+02  0.63772388338E+01 -0.72585078339E+02  0.82220748998E+02  0.10566000000E+00 0. -1.
         13    1    4    4    0    0 -0.78243906663E+01 -0.17400539504E+01 -0.98986285440E+01  0.12737460035E+02  0.10566000000E+00 0. -1.
        -13    1    4    4    0    0 -0.27301068682E+02 -0.40378641725E+01 -0.32355728162E+02  0.42527132600E+02  0.10566000000E+00 0.  1.
         14    1    4    4    0    0 -0.29662409168E+01 -0.59932071089E+00 -0.29591521142E+01  0.42325349054E+01  0.00000000000E+00 0. -1.
<mgrwt>
<rscale>  0 0.78787368E+02</rscale>
<asrwt>0</asrwt>
<pdfrwt beam="1">  1        1 0.19962804E-01 0.78787368E+02</pdfrwt>
<pdfrwt beam="2">  1       -2 0.18399454E-02 0.78787368E+02</pdfrwt>
<totfact> 0.16020347E+05</totfact>
</mgrwt>
</event>
<event>
 8    1  0.1319619E-024  0.8196429E+02  0.7818608E-02  0.1323568E+00
         -2   -1    0    0    0  501 -0.00000000000E+00  0.00000000000E+00  0.99948622759E+01  0.99948626012E+01  0.25500000000E-02 0.  1.
          1   -1    0    0  501    0  0.00000000000E+00 -0.00000000000E+00 -0.16803996340E+03  0.16803996348E+03  0.50400000000E-02 0. -1.
        -24    2    1    2    0    0  0.00000000000E+00 -0.88817841970E-15 -0.15804510112E+03  0.17803482608E+03  0.81964292877E+02 0.  0.
         66    2    3    3    0    0  0.40516012961E+02  0.46696004983E+01 -0.70890454036E+02  0.81809589532E+02  0.19999977197E+01 0.  0.
         13    1    3    3    0    0 -0.40516012961E+02 -0.46696004983E+01 -0.87154647089E+02  0.96225236546E+02  0.10566000000E+00 0. -1.
         13    1    4    4    0    0  0.28702099892E+01  0.58177243032E+00 -0.47258572189E+01  0.55607063429E+01  0.10566000000E+00 0. -1.
        -13    1    4    4    0    0  0.23949959254E+02  0.32959263510E+01 -0.41855252552E+02  0.48335670152E+02  0.10566000000E+00 0.  1.
         14    1    4    4    0    0  0.13695843718E+02  0.79190171697E+00 -0.24309344265E+02  0.27913213037E+02  0.00000000000E+00 0. -1.
<mgrwt>
<rscale>  0 0.81964293E+02</rscale>
<asrwt>0</asrwt>
<pdfrwt beam="1">  1        1 0.25852300E-01 0.81964293E+02</pdfrwt>
<pdfrwt beam="2">  1       -2 0.15376713E-02 0.81964293E+02</pdfrwt>
<totfact> 0.15115606E+05</totfact>
</mgrwt>
</event>
<event>
 8    1  0.1319619E-024  0.8322601E+02  0.7818608E-02  0.1320138E+00
         -2   -1    0    0    0  501 -0.00000000000E+00  0.00000000000E+00  0.96335360148E+01  0.96335363523E+01  0.25500000000E-02 0.  1.
          1   -1    0    0  501    0  0.00000000000E+00 -0.00000000000E+00 -0.17975147663E+03  0.17975147671E+03  0.50400000000E-02 0. -1.
        -24    2    1    2    0    0  0.00000000000E+00  0.00000000000E+00 -0.17011794062E+03  0.18938501306E+03  0.83226014263E+02 0.  0.
         66    2    3    3    0    0  0.53538590699E+01 -0.32666338381E+02 -0.27816298913E+02  0.43283945756E+02  0.20000012038E+01 0.  0.
         13    1    3    3    0    0 -0.53538590699E+01  0.32666338381E+02 -0.14230164171E+03  0.14610106730E+03  0.10566000000E+00 0. -1.
         13    1    4    4    0    0  0.13211048094E+01 -0.99739687219E+01 -0.94446420107E+01  0.13799920171E+02  0.10566000000E+00 0. -1.
        -13    1    4    4    0    0  0.82581749461E+00 -0.60410961950E+01 -0.51346537219E+01  0.79719916364E+01  0.10566000000E+00 0.  1.
        -14    1    4    4    0    0  0.32069367658E+01 -0.16651273464E+02 -0.13237003181E+02  0.21512033949E+02  0.00000000000E+00 0.  1.
<mgrwt>
<rscale>  0 0.83226014E+02</rscale>
<asrwt>0</asrwt>
<pdfrwt beam="1">  1        1 0.27654071E-01 0.83226014E+02</pdfrwt>
<pdfrwt beam="2">  1       -2 0.14820826E-02 0.83226014E+02</pdfrwt>
<totfact> 0.14699522E+05</totfact>
</mgrwt>
</event>
<event>
 8    1  0.1319619E-024  0.7830194E+02  0.7818608E-02  0.1333941E+00
          1   -1    0    0  501    0  0.00000000000E+00  0.00000000000E+00  0.24937681052E+02  0.24937681561E+02  0.50400000000E-02 0. -1.
         -2   -1    0    0    0  501 -0.00000000000E+00 -0.00000000000E+00 -0.61465152194E+02  0.61465152247E+02  0.25500000000E-02 0.  1.
        -24    2    1    2    0    0  0.00000000000E+00  0.17763568394E-14 -0.36527471142E+02  0.86402833808E+02  0.78301938303E+02 0.  0.
         66    2    3    3    0    0  0.25866588159E+02 -0.10343478964E+02 -0.48590088292E+02  0.56045201545E+02  0.19999989937E+01 0.  0.
         13    1    3    3    0    0 -0.25866588159E+02  0.10343478964E+02  0.12062617150E+02  0.30357632263E+02  0.10566000000E+00 0. -1.
         13    1    4    4    0    0  0.39947655422E+01 -0.13045200472E+01 -0.62715795190E+01  0.75500859590E+01  0.10566000000E+00 0. -1.
        -13    1    4    4    0    0  0.93001300450E+01 -0.35542018963E+01 -0.17072676933E+02  0.19763912358E+02  0.10566000000E+00 0.  1.
         14    1    4    4    0    0  0.12571692572E+02 -0.54847570204E+01 -0.25245831840E+02  0.28731203229E+02  0.00000000000E+00 0. -1.
<mgrwt>
<rscale>  0 0.78301938E+02</rscale>
<asrwt>0</asrwt>
<pdfrwt beam="1">  1        1 0.38365664E-02 0.78301938E+02</pdfrwt>
<pdfrwt beam="2">  1       -2 0.94561772E-02 0.78301938E+02</pdfrwt>
<totfact> 0.12443035E+05</totfact>
</mgrwt>
</event>
<event>
 8    1  0.1319619E-024  0.7781213E+02  0.7818608E-02  0.1335377E+00
         -2   -1    0    0    0  501 -0.00000000000E+00  0.00000000000E+00  0.46250230239E+03  0.46250230239E+03  0.25500000000E-02 0.  1.
          1   -1    0    0  501    0  0.00000000000E+00 -0.00000000000E+00 -0.32728074273E+01  0.32728113080E+01  0.50400000000E-02 0. -1.
        -24    2    1    2    0    0  0.35527136788E-14  0.00000000000E+00  0.45922949496E+03  0.46577511370E+03  0.77812129538E+02 0.  0.
         66    2    3    3    0    0  0.30287337185E+02  0.43614281891E+01  0.37334414365E+03  0.37460138074E+03  0.20000001477E+01 0.  0.
         13    1    3    3    0    0 -0.30287337185E+02 -0.43614281891E+01  0.85885351306E+02  0.91173732964E+02  0.10566000000E+00 0. -1.
         13    1    4    4    0    0  0.10142488147E+02  0.16226957408E+01  0.11780642486E+03  0.11825340633E+03  0.10566000000E+00 0. -1.
        -13    1    4    4    0    0  0.11037698026E+02  0.18875779240E+01  0.13492883906E+03  0.13539274908E+03  0.10566000000E+00 0.  1.
         14    1    4    4    0    0  0.91071510131E+01  0.85115452427E+00  0.12060887973E+03  0.12095522533E+03  0.00000000000E+00 0. -1.
<mgrwt>
<rscale>  0 0.77812130E+02</rscale>
<asrwt>0</asrwt>
<pdfrwt beam="1">  1        1 0.50350880E-03 0.77812130E+02</pdfrwt>
<pdfrwt beam="2">  1       -2 0.71154248E-01 0.77812130E+02</pdfrwt>
<totfact> 0.57377385E+04</totfact>
</mgrwt>
</event>
<event>
 8    1  0.1319619E-024  0.7864931E+02  0.7818608E-02  0.1332929E+00
          1   -1    0    0  501    0  0.00000000000E+00  0.00000000000E+00  0.99865242172E+01  0.99865254890E+01  0.50400000000E-02 0. -1.
         -2   -1    0    0    0  501 -0.00000000000E+00 -0.00000000000E+00 -0.15485151893E+03  0.15485151895E+03  0.25500000000E-02 0.  1.
        -24    2    1    2    0    0  0.00000000000E+00  0.00000000000E+00 -0.14486499471E+03  0.16483804444E+03  0.78649311514E+02 0.  0.
         66    2    3    3    0    0 -0.13974206463E+02 -0.27112075464E+02 -0.12441600574E+03  0.12811590675E+03  0.19999990913E+01 0.  0.
         13    1    3    3    0    0  0.13974206463E+02  0.27112075464E+02 -0.20448988970E+02  0.36722137685E+02  0.10566000000E+00 0. -1.
         13    1    4    4    0    0 -0.76178346341E+01 -0.13293738485E+02 -0.60417015655E+02  0.62329622428E+02  0.10566000000E+00 0. -1.
        -13    1    4    4    0    0 -0.81792376638E+00 -0.23818556897E+01 -0.10132786889E+02  0.10441588480E+02  0.10566000000E+00 0.  1.
        -14    1    4    4    0    0 -0.55384480629E+01 -0.11436481289E+02 -0.53866203196E+02  0.55344695843E+02  0.00000000000E+00 0.  1.
<mgrwt>
<rscale>  0 0.78649312E+02</rscale>
<asrwt>0</asrwt>
<pdfrwt beam="1">  1        1 0.15363886E-02 0.78649312E+02</pdfrwt>
<pdfrwt beam="2">  1       -2 0.23823309E-01 0.78649312E+02</pdfrwt>
<totfact> 0.97704313E+04</totfact>
</mgrwt>
</event>
<event>
 8    1  0.1319619E-024  0.8112964E+02  0.7818608E-02  0.1325876E+00
          1   -1    0    0  501    0  0.00000000000E+00  0.00000000000E+00  0.12292906770E+02  0.12292907803E+02  0.50400000000E-02 0. -1.
         -2   -1    0    0    0  501 -0.00000000000E+00 -0.00000000000E+00 -0.13385804390E+03  0.13385804393E+03  0.25500000000E-02 0.  1.
        -24    2    1    2    0    0  0.00000000000E+00  0.00000000000E+00 -0.12156513713E+03  0.14615095173E+03  0.81129637776E+02 0.  0.
         66    2    3    3    0    0 -0.23969534105E+02  0.27860382250E+01 -0.11950351403E+03  0.12193190906E+03  0.20000014776E+01 0.  0.
         13    1    3    3    0    0  0.23969534105E+02 -0.27860382250E+01 -0.20616231012E+01  0.24219042674E+02  0.10566000000E+00 0. -1.
         13    1    4    4    0    0 -0.31806640837E+01  0.12376851026E+00 -0.13984563869E+02  0.14342633416E+02  0.10566000000E+00 0. -1.
        -13    1    4    4    0    0 -0.97625450482E+01  0.16689673573E+01 -0.52661763357E+02  0.53585121272E+02  0.10566000000E+00 0.  1.
        -14    1    4    4    0    0 -0.11026324974E+02  0.99330235741E+00 -0.52857186807E+02  0.54004154369E+02  0.00000000000E+00 0.  1.
<mgrwt>
<rscale>  0 0.81129638E+02</rscale>
<asrwt>0</asrwt>
<pdfrwt beam="1">  1        1 0.18912166E-02 0.81129638E+02</pdfrwt>
<pdfrwt beam="2">  1       -2 0.20593544E-01 0.81129638E+02</pdfrwt>
<totfact> 0.94500478E+04</totfact>
</mgrwt>
</event>
<event>
 8    1  0.1319619E-024  0.8047443E+02  0.7818608E-02  0.1327710E+00
          1   -1    0    0  501    0  0.00000000000E+00  0.00000000000E+00  0.25165938130E+02  0.25165938635E+02  0.50400000000E-02 0. -1.
         -2   -1    0    0    0  501 -0.00000000000E+00 -0.00000000000E+00 -0.64334313929E+02  0.64334313980E+02  0.25500000000E-02 0.  1.
        -24    2    1    2    0    0  0.00000000000E+00  0.00000000000E+00 -0.39168375799E+02  0.89500252615E+02  0.80474427959E+02 0.  0.
         66    2    3    3    0    0 -0.16723036552E+02  0.90562943652E+01 -0.59001049925E+02  0.62022579020E+02  0.19999992303E+01 0.  0.
         13    1    3    3    0    0  0.16723036552E+02 -0.90562943652E+01  0.19832674126E+02  0.27477673594E+02  0.10566000000E+00 0. -1.
         13    1    4    4    0    0 -0.10515012360E+00  0.12392794411E+00 -0.29598485172E+00  0.35381598589E+00  0.10566000000E+00 0. -1.
        -13    1    4    4    0    0 -0.83902530933E+01  0.40478619691E+01 -0.28383501425E+02  0.29873330090E+02  0.10566000000E+00 0.  1.
         14    1    4    4    0    0 -0.82276333347E+01  0.48845044521E+01 -0.30321563648E+02  0.31795432944E+02  0.00000000000E+00 0. -1.
<mgrwt>
<rscale>  0 0.80474428E+02</rscale>
<asrwt>0</asrwt>
<pdfrwt beam="1">  1        1 0.38716829E-02 0.80474428E+02</pdfrwt>
<pdfrwt beam="2">  1       -2 0.98975867E-02 0.80474428E+02</pdfrwt>
<totfact> 0.11509692E+05</totfact>
</mgrwt>
</event>
<event>
 8    1  0.1319619E-024  0.8036962E+02  0.7818608E-02  0.1328006E+00
          1   -1    0    0  501    0  0.00000000000E+00  0.00000000000E+00  0.13004039413E+03  0.13004039423E+03  0.50400000000E-02 0. -1.
         -2   -1    0    0    0  501 -0.00000000000E+00 -0.00000000000E+00 -0.12417824692E+02  0.12417824954E+02  0.25500000000E-02 0.  1.
        -24    2    1    2    0    0  0.00000000000E+00  0.00000000000E+00  0.11762256944E+03  0.14245821918E+03  0.80369617215E+02 0.  0.
         66    2    3    3    0    0  0.17582321724E+02 -0.35355526295E+02  0.45862914036E+02  0.60552110836E+02  0.19999915207E+01 0.  0.
         13    1    3    3    0    0 -0.17582321724E+02  0.35355526295E+02  0.71759655400E+02  0.81906108344E+02  0.10566000000E+00 0. -1.
         13    1    4    4    0    0  0.78309206583E+01 -0.14289069606E+02  0.18029939687E+02  0.24302072292E+02  0.10566000000E+00 0. -1.
        -13    1    4    4    0    0  0.34607939806E+01 -0.78149390581E+01  0.10718982028E+02  0.13709781443E+02  0.10566000000E+00 0.  1.
        -14    1    4    4    0    0  0.62906070854E+01 -0.13251517631E+02  0.17113992321E+02  0.22540257101E+02  0.00000000000E+00 0.  1.
<mgrwt>
<rscale>  0 0.80369617E+02</rscale>
<asrwt>0</asrwt>
<pdfrwt beam="1">  1        1 0.20006214E-01 0.80369617E+02</pdfrwt>
<pdfrwt beam="2">  1       -2 0.19104346E-02 0.80369617E+02</pdfrwt>
<totfact> 0.15194882E+05</totfact>
</mgrwt>
</event>
<event>
 8    1  0.1319619E-024  0.7856964E+02  0.7818608E-02  0.1333160E+00
          1   -1    0    0  501    0  0.00000000000E+00  0.00000000000E+00  0.29845090734E+02  0.29845091159E+02  0.50400000000E-02 0. -1.
         -2   -1    0    0    0  501 -0.00000000000E+00 -0.00000000000E+00 -0.51710251773E+02  0.51710251835E+02  0.25500000000E-02 0.  1.
        -24    2    1    2    0    0  0.00000000000E+00  0.35527136788E-14 -0.21865161039E+02  0.81555342995E+02  0.78569642380E+02 0.  0.
         66    2    3    3    0    0 -0.14814562913E+02 -0.26377424274E+02 -0.36911501665E+02  0.47767130318E+02  0.19999995055E+01 0.  0.
         13    1    3    3    0    0  0.14814562913E+02  0.26377424274E+02  0.15046340626E+02  0.33788212677E+02  0.10566000000E+00 0. -1.
         13    1    4    4    0    0 -0.42491587606E+01 -0.63367208748E+01 -0.92832500537E+01  0.12016625034E+02  0.10566000000E+00 0. -1.
        -13    1    4    4    0    0 -0.20828179090E+01 -0.35888349981E+01 -0.43950226870E+01  0.60452672017E+01  0.10566000000E+00 0.  1.
         14    1    4    4    0    0 -0.84825862432E+01 -0.16451868401E+02 -0.23233228924E+02  0.29705238082E+02  0.00000000000E+00 0. -1.
<mgrwt>
<rscale>  0 0.78569642E+02</rscale>
<asrwt>0</asrwt>
<pdfrwt beam="1">  1        1 0.45915525E-02 0.78569642E+02</pdfrwt>
<pdfrwt beam="2">  1       -2 0.79554233E-02 0.78569642E+02</pdfrwt>
<totfact> 0.12725788E+05</totfact>
</mgrwt>
</event>
<event>
 8    1  0.1319619E-024  0.7467041E+02  0.7818608E-02  0.1344895E+00
         -2   -1    0    0    0  501 -0.00000000000E+00  0.00000000000E+00  0.19489879230E+02  0.19489879397E+02  0.25500000000E-02 0.  1.
          1   -1    0    0  501    0  0.00000000000E+00 -0.00000000000E+00 -0.71520070833E+02  0.71520071010E+02  0.50400000000E-02 0. -1.
        -24    2    1    2    0    0  0.44408920985E-15 -0.17763568394E-14 -0.52030191603E+02  0.91009950407E+02  0.74670410706E+02 0.  0.
         66    2    3    3    0    0 -0.31612237998E+01 -0.11341426675E+02  0.17114859155E+02  0.20869587540E+02  0.19999963183E+01 0.  0.
         13    1    3    3    0    0  0.31612237998E+01  0.11341426675E+02 -0.69145050757E+02  0.70140362868E+02  0.10566000000E+00 0. -1.
         13    1    4    4    0    0 -0.45701624412E+00 -0.12694576436E+01  0.25213217006E+01  0.28615753895E+01  0.10566000000E+00 0. -1.
        -13    1    4    4    0    0 -0.97329788263E+00 -0.59825225061E+01  0.92600196847E+01  0.11067836866E+02  0.10566000000E+00 0.  1.
         14    1    4    4    0    0 -0.17309096731E+01 -0.40894465250E+01  0.53335177693E+01  0.69401752840E+01  0.00000000000E+00 0. -1.
<mgrwt>
<rscale>  0 0.74670411E+02</rscale>
<asrwt>0</asrwt>
<pdfrwt beam="1">  1        1 0.11003088E-01 0.74670411E+02</pdfrwt>
<pdfrwt beam="2">  1       -2 0.29984430E-02 0.74670411E+02</pdfrwt>
<totfact> 0.16789839E+05</totfact>
</mgrwt>
</event>
<event>
 8    1  0.1319619E-024  0.8000752E+02  0.7818608E-02  0.1329030E+00
         -2   -1    0    0    0  501 -0.00000000000E+00  0.00000000000E+00  0.50144648042E+02  0.50144648107E+02  0.25500000000E-02 0.  1.
          1   -1    0    0  501    0  0.00000000000E+00 -0.00000000000E+00 -0.31913688372E+02  0.31913688770E+02  0.50400000000E-02 0. -1.
        -24    2    1    2    0    0 -0.35527136788E-14  0.00000000000E+00  0.18230959670E+02  0.82058336878E+02  0.80007516901E+02 0.  0.
         66    2    3    3    0    0  0.29896985515E+02  0.22126764467E+02  0.24155422083E+02  0.44394908096E+02  0.20000000507E+01 0.  0.
         13    1    3    3    0    0 -0.29896985515E+02 -0.22126764467E+02 -0.59244624130E+01  0.37663428781E+02  0.10566000000E+00 0. -1.
         13    1    4    4    0    0  0.55744658667E+01  0.49674045688E+01  0.47110380751E+01  0.88292027743E+01  0.10566000000E+00 0. -1.
        -13    1    4    4    0    0  0.78604762322E+01  0.50472140004E+01  0.61170980254E+01  0.11166535186E+02  0.10566000000E+00 0.  1.
        -14    1    4    4    0    0  0.16462043416E+02  0.12112145898E+02  0.13327285983E+02  0.24399170136E+02  0.00000000000E+00 0.  1.
<mgrwt>
<rscale>  0 0.80007517E+02</rscale>
<asrwt>0</asrwt>
<pdfrwt beam="1">  1        1 0.49097983E-02 0.80007517E+02</pdfrwt>
<pdfrwt beam="2">  1       -2 0.77145612E-02 0.80007517E+02</pdfrwt>
<totfact> 0.12223180E+05</totfact>
</mgrwt>
</event>
<event>
 8    1  0.1319619E-024  0.8323095E+02  0.7818608E-02  0.1320125E+00
         -2   -1    0    0    0  501 -0.00000000000E+00  0.00000000000E+00  0.25438550029E+03  0.25438550031E+03  0.25500000000E-02 0.  1.
          1   -1    0    0  501    0  0.00000000000E+00 -0.00000000000E+00 -0.68079653520E+01  0.68079672176E+01  0.50400000000E-02 0. -1.
        -24    2    1    2    0    0  0.00000000000E+00  0.35527136788E-14  0.24757753494E+03  0.26119346752E+03  0.83230953794E+02 0.  0.
         66    2    3    3    0    0  0.31424580713E+02  0.21937545175E+02  0.17456688351E+03  0.17873543851E+03  0.20000005296E+01 0.  0.
         13    1    3    3    0    0 -0.31424580713E+02 -0.21937545175E+02  0.73010651436E+02  0.82458029011E+02  0.10566000000E+00 0. -1.
         13    1    4    4    0    0  0.15396355507E+02  0.11077528112E+02  0.88123024047E+02  0.90141211014E+02  0.10566000000E+00 0. -1.
        -13    1    4    4    0    0  0.10204860120E+01  0.66104245096E+00  0.68883599248E+01  0.69956440241E+01  0.10566000000E+00 0.  1.
         14    1    4    4    0    0  0.15007739194E+02  0.10198974612E+02  0.79555499535E+02  0.81598583475E+02  0.00000000000E+00 0. -1.
<mgrwt>
<rscale>  0 0.83230954E+02</rscale>
<asrwt>0</asrwt>
<pdfrwt beam="1">  1        1 0.10473792E-02 0.83230954E+02</pdfrwt>
<pdfrwt beam="2">  1       -2 0.39136238E-01 0.83230954E+02</pdfrwt>
<totfact> 0.69031732E+04</totfact>
</mgrwt>
</event>
<event>
 8    1  0.1319619E-024  0.7856735E+02  0.7818608E-02  0.1333167E+00
          1   -1    0    0  501    0  0.00000000000E+00  0.00000000000E+00  0.40443537848E+02  0.40443538162E+02  0.50400000000E-02 0. -1.
         -2   -1    0    0    0  501 -0.00000000000E+00 -0.00000000000E+00 -0.38157079651E+02  0.38157079737E+02  0.25500000000E-02 0.  1.
        -24    2    1    2    0    0  0.35527136788E-14  0.71054273576E-14  0.22864581965E+01  0.78600617898E+02  0.78567354817E+02 0.  0.
         66    2    3    3    0    0  0.22305616606E+02  0.23101655975E+02 -0.21448226365E+02  0.38668507308E+02  0.20000005543E+01 0.  0.
         13    1    3    3    0    0 -0.22305616606E+02 -0.23101655975E+02  0.23734684561E+02  0.39932110591E+02  0.10566000000E+00 0. -1.
         13    1    4    4    0    0  0.17586798641E+02  0.17391530256E+02 -0.17153403438E+02  0.30100020343E+02  0.10566000000E+00 0. -1.
        -13    1    4    4    0    0  0.34488008981E+01  0.39752414325E+01 -0.30033815006E+01  0.60603825420E+01  0.10566000000E+00 0.  1.
         14    1    4    4    0    0  0.12700170678E+01  0.17348842868E+01 -0.12914414255E+01  0.25081044229E+01  0.00000000000E+00 0. -1.
<mgrwt>
<rscale>  0 0.78567355E+02</rscale>
<asrwt>0</asrwt>
<pdfrwt beam="1">  1        1 0.62220828E-02 0.78567355E+02</pdfrwt>
<pdfrwt beam="2">  1       -2 0.58703200E-02 0.78567355E+02</pdfrwt>
<totfact> 0.13382997E+05</totfact>
</mgrwt>
</event>
<event>
 8    1  0.1319619E-024  0.7963681E+02  0.7818608E-02  0.1330085E+00
         -2   -1    0    0    0  501 -0.00000000000E+00  0.00000000000E+00  0.18411845877E+01  0.18411863535E+01  0.25500000000E-02 0.  1.
          1   -1    0    0  501    0  0.00000000000E+00 -0.00000000000E+00 -0.86113291209E+03  0.86113291211E+03  0.50400000000E-02 0. -1.
        -24    2    1    2    0    0  0.71054273576E-14  0.88817841970E-15 -0.85929172750E+03  0.86297409846E+03  0.79636810935E+02 0.  0.
         66    2    3    3    0    0 -0.33174146905E+02 -0.73405842845E+01 -0.65438657330E+03  0.65527108552E+03  0.20000009971E+01 0.  0.
         13    1    3    3    0    0  0.33174146905E+02  0.73405842845E+01 -0.20490515421E+03  0.20770301294E+03  0.10566000000E+00 0. -1.
         13    1    4    4    0    0 -0.29394032258E+01 -0.19154886596E+00 -0.57583372102E+02  0.57658760730E+02  0.10566000000E+00 0. -1.
        -13    1    4    4    0    0 -0.20715816090E+02 -0.53665254651E+01 -0.40689456848E+03  0.40745692491E+03  0.10566000000E+00 0.  1.
        -14    1    4    4    0    0 -0.95189275895E+01 -0.17825099535E+01 -0.18990863271E+03  0.19015539988E+03  0.00000000000E+00 0.  1.
<mgrwt>
<rscale>  0 0.79636811E+02</rscale>
<asrwt>0</asrwt>
<pdfrwt beam="1">  1        1 0.13248167E+00 0.79636811E+02</pdfrwt>
<pdfrwt beam="2">  1       -2 0.28325999E-03 0.79636811E+02</pdfrwt>
<totfact> 0.19971390E+05</totfact>
</mgrwt>
</event>
<event>
 8    1  0.1319619E-024  0.7958552E+02  0.7818608E-02  0.1330232E+00
         -2   -1    0    0    0  501 -0.00000000000E+00  0.00000000000E+00  0.64947157274E+02  0.64947157324E+02  0.25500000000E-02 0.  1.
          1   -1    0    0  501    0  0.00000000000E+00 -0.00000000000E+00 -0.24380803805E+02  0.24380804326E+02  0.50400000000E-02 0. -1.
        -24    2    1    2    0    0  0.00000000000E+00  0.00000000000E+00  0.40566353468E+02  0.89327961650E+02  0.79585524430E+02 0.  0.
         66    2    3    3    0    0  0.71554293076E+01 -0.30983164720E+02  0.47100338898E+02  0.56864739471E+02  0.20000015366E+01 0.  0.
         13    1    3    3    0    0 -0.71554293076E+01  0.30983164720E+02 -0.65339854299E+01  0.32463222179E+02  0.10566000000E+00 0. -1.
         13    1    4    4    0    0  0.27551816674E+01 -0.14752815325E+02  0.22884299129E+02  0.27366748011E+02  0.10566000000E+00 0. -1.
        -13    1    4    4    0    0  0.43233338516E+01 -0.15400371453E+02  0.23262374340E+02  0.28231398840E+02  0.10566000000E+00 0.  1.
        -14    1    4    4    0    0  0.76913788563E-01 -0.82997794164E+00  0.95366542928E+00  0.12665926202E+01  0.00000000000E+00 0.  1.
<mgrwt>
<rscale>  0 0.79585524E+02</rscale>
<asrwt>0</asrwt>
<pdfrwt beam="1">  1        1 0.37508930E-02 0.79585524E+02</pdfrwt>
<pdfrwt beam="2">  1       -2 0.99918702E-02 0.79585524E+02</pdfrwt>
<totfact> 0.11816678E+05</totfact>
</mgrwt>
</event>
<event>
 8    1  0.1319619E-024  0.8433301E+02  0.7818608E-02  0.1317186E+00
          1   -1    0    0  501    0  0.00000000000E+00  0.00000000000E+00  0.12362543451E+03  0.12362543461E+03  0.50400000000E-02 0. -1.
         -2   -1    0    0    0  501 -0.00000000000E+00 -0.00000000000E+00 -0.14382268120E+02  0.14382268346E+02  0.25500000000E-02 0.  1.
        -24    2    1    2    0    0  0.00000000000E+00  0.00000000000E+00  0.10924316639E+03  0.13800770295E+03  0.84333010574E+02 0.  0.
         66    2    3    3    0    0  0.33056618181E+02 -0.16798006460E+02  0.21878180107E+02  0.43099510378E+02  0.20000008593E+01 0.  0.
         13    1    3    3    0    0 -0.33056618181E+02  0.16798006460E+02  0.87364986279E+02  0.94908192576E+02  0.10566000000E+00 0. -1.
         13    1    4    4    0    0  0.88757186066E+01 -0.45150092290E+01  0.64958543931E+01  0.11889952794E+02  0.10566000000E+00 0. -1.
        -13    1    4    4    0    0  0.15474474650E+02 -0.73155712240E+01  0.92023889693E+01  0.19433786939E+02  0.10566000000E+00 0.  1.
        -14    1    4    4    0    0  0.87064249245E+01 -0.49674260065E+01  0.61799367449E+01  0.11775770644E+02  0.00000000000E+00 0.  1.
<mgrwt>
<rscale>  0 0.84333011E+02</rscale>
<asrwt>0</asrwt>
<pdfrwt beam="1">  1        1 0.19019299E-01 0.84333011E+02</pdfrwt>
<pdfrwt beam="2">  1       -2 0.22126566E-02 0.84333011E+02</pdfrwt>
<totfact> 0.13226126E+05</totfact>
</mgrwt>
</event>
<event>
 8    1  0.1319619E-024  0.8531329E+02  0.7818608E-02  0.1314615E+00
         -2   -1    0    0    0  501 -0.00000000000E+00  0.00000000000E+00  0.80959794310E+01  0.80959798325E+01  0.25500000000E-02 0.  1.
          1   -1    0    0  501    0  0.00000000000E+00 -0.00000000000E+00 -0.22475223023E+03  0.22475223028E+03  0.50400000000E-02 0. -1.
        -24    2    1    2    0    0  0.00000000000E+00 -0.35527136788E-14 -0.21665625080E+03  0.23284821012E+03  0.85313292899E+02 0.  0.
         66    2    3    3    0    0  0.35267582579E+02  0.16411385432E+02 -0.60764891620E+02  0.72176921510E+02  0.19999980457E+01 0.  0.
         13    1    3    3    0    0 -0.35267582579E+02 -0.16411385432E+02 -0.15589135918E+03  0.16067128861E+03  0.10566000000E+00 0. -1.
         13    1    4    4    0    0  0.25641313950E+02  0.11561337100E+02 -0.44016957169E+02  0.52236435360E+02  0.10566000000E+00 0. -1.
        -13    1    4    4    0    0  0.92323312435E+01  0.47404477484E+01 -0.16374784205E+02  0.19386915867E+02  0.10566000000E+00 0.  1.
         14    1    4    4    0    0  0.39393738552E+00  0.10960058390E+00 -0.37315024686E+00  0.55357028319E+00  0.00000000000E+00 0. -1.
<mgrwt>
<rscale>  0 0.85313293E+02</rscale>
<asrwt>0</asrwt>
<pdfrwt beam="1">  1        1 0.34577262E-01 0.85313293E+02</pdfrwt>
<pdfrwt beam="2">  1       -2 0.12455355E-02 0.85313293E+02</pdfrwt>
<totfact> 0.14376964E+05</totfact>
</mgrwt>
</event>
<event>
 8    1  0.1319619E-024  0.8078773E+02  0.7818608E-02  0.1326831E+00
          1   -1    0    0  501    0  0.00000000000E+00  0.00000000000E+00  0.21817647083E+01  0.21817705296E+01  0.50400000000E-02 0. -1.
         -2   -1    0    0    0  501 -0.00000000000E+00 -0.00000000000E+00 -0.74786344046E+03  0.74786344047E+03  0.25500000000E-02 0.  1.
        -24    2    1    2    0    0  0.00000000000E+00  0.00000000000E+00 -0.74568167575E+03  0.75004521100E+03  0.80787727924E+02 0.  0.
         66    2    3    3    0    0  0.70905555346E+01  0.14739466344E+02 -0.71571934947E+03  0.71590901311E+03  0.19999991600E+01 0.  0.
         13    1    3    3    0    0 -0.70905555346E+01 -0.14739466344E+02 -0.29962326282E+02  0.34136197887E+02  0.10566000000E+00 0. -1.
         13    1    4    4    0    0 -0.81802393091E-02  0.86205784387E+00 -0.35862354976E+02  0.35872871075E+02  0.10566000000E+00 0.  1.
        -13    1    4    4    0    0  0.68260334968E+01  0.13529678750E+02 -0.65565065424E+03  0.65582576841E+03  0.10566000000E+00 0.  1.
        -14    1    4    4    0    0  0.27270227714E+00  0.34772975056E+00 -0.24206340257E+02  0.24210373627E+02  0.00000000000E+00 0.  1.
<mgrwt>
<rscale>  0 0.80787728E+02</rscale>
<asrwt>0</asrwt>
<pdfrwt beam="1">  1        1 0.33565716E-03 0.80787728E+02</pdfrwt>
<pdfrwt beam="2">  1       -2 0.11505571E+00 0.80787728E+02</pdfrwt>
<totfact> 0.34641067E+04</totfact>
</mgrwt>
</event>
<event>
 8    1  0.1319619E-024  0.8046699E+02  0.7818608E-02  0.1327731E+00
         -2   -1    0    0    0  501 -0.00000000000E+00  0.00000000000E+00  0.29358872640E+02  0.29358872751E+02  0.25500000000E-02 0.  1.
          1   -1    0    0  501    0  0.00000000000E+00 -0.00000000000E+00 -0.55136119236E+02  0.55136119466E+02  0.50400000000E-02 0. -1.
        -24    2    1    2    0    0  0.35527136788E-14  0.88817841970E-15 -0.25777246596E+02  0.84494992217E+02  0.80466994896E+02 0.  0.
         66    2    3    3    0    0  0.28045501875E+02 -0.58207763281E+01  0.16734752095E+02  0.33233770916E+02  0.19999972838E+01 0.  0.
         13    1    3    3    0    0 -0.28045501875E+02  0.58207763281E+01 -0.42511998691E+02  0.51261221300E+02  0.10566000000E+00 0. -1.
         13    1    4    4    0    0  0.45891362240E+01 -0.69549648369E+00  0.21436281494E+01  0.51137258745E+01  0.10566000000E+00 0. -1.
        -13    1    4    4    0    0  0.49954844749E+00 -0.25137228971E+00  0.37599585957E+00  0.68210966966E+00  0.10566000000E+00 0.  1.
        -14    1    4    4    0    0  0.22956817204E+02 -0.48739075547E+01  0.14215128086E+02  0.27437935372E+02  0.00000000000E+00 0.  1.
<mgrwt>
<rscale>  0 0.80466995E+02</rscale>
<asrwt>0</asrwt>
<pdfrwt beam="1">  1        1 0.84824799E-02 0.80466995E+02</pdfrwt>
<pdfrwt beam="2">  1       -2 0.45167497E-02 0.80466995E+02</pdfrwt>
<totfact> 0.13146851E+05</totfact>
</mgrwt>
</event>
<event>
 8    1  0.1319619E-024  0.7853786E+02  0.7818608E-02  0.1333253E+00
         -2   -1    0    0    0  501 -0.00000000000E+00  0.00000000000E+00  0.39237637306E+02  0.39237637388E+02  0.25500000000E-02 0.  1.
          1   -1    0    0  501    0  0.00000000000E+00 -0.00000000000E+00 -0.39300248435E+02  0.39300248759E+02  0.50400000000E-02 0. -1.
        -24    2    1    2    0    0  0.00000000000E+00  0.00000000000E+00 -0.62611129860E-01  0.78537886147E+02  0.78537861190E+02 0.  0.
         66    2    3    3    0    0 -0.98576412178E+01  0.12983162253E+02  0.35666141745E+02  0.39265879087E+02  0.20000002607E+01 0.  0.
         13    1    3    3    0    0  0.98576412178E+01 -0.12983162253E+02 -0.35728752875E+02  0.39272007060E+02  0.10566000000E+00 0. -1.
         13    1    4    4    0    0 -0.31957676539E+01  0.44530800718E+01  0.13592704607E+02  0.14656590176E+02  0.10566000000E+00 0. -1.
        -13    1    4    4    0    0 -0.37513747514E+01  0.39487649391E+01  0.11429467643E+02  0.12661336885E+02  0.10566000000E+00 0.  1.
         14    1    4    4    0    0 -0.29104988125E+01  0.45813172426E+01  0.10643969495E+02  0.11947952026E+02  0.00000000000E+00 0. -1.
<mgrwt>
<rscale>  0 0.78537861E+02</rscale>
<asrwt>0</asrwt>
<pdfrwt beam="1">  1        1 0.60461921E-02 0.78537861E+02</pdfrwt>
<pdfrwt beam="2">  1       -2 0.60365596E-02 0.78537861E+02</pdfrwt>
<totfact> 0.13336076E+05</totfact>
</mgrwt>
</event>
<event>
 8    1  0.1319619E-024  0.8006591E+02  0.7818608E-02  0.1328864E+00
          1   -1    0    0  501    0  0.00000000000E+00  0.00000000000E+00  0.61212442890E+02  0.61212443097E+02  0.50400000000E-02 0. -1.
         -2   -1    0    0    0  501 -0.00000000000E+00 -0.00000000000E+00 -0.26181565985E+02  0.26181566110E+02  0.25500000000E-02 0.  1.
        -24    2    1    2    0    0 -0.88817841970E-15  0.71054273576E-14  0.35030876904E+02  0.87394009207E+02  0.80065913525E+02 0.  0.
         66    2    3    3    0    0  0.79212717140E+01 -0.34414637775E+02 -0.29966358893E+01  0.35497798054E+02  0.20000003200E+01 0.  0.
         13    1    3    3    0    0 -0.79212717140E+01  0.34414637775E+02  0.38027512794E+02  0.51896211153E+02  0.10566000000E+00 0. -1.
         13    1    4    4    0    0  0.24067566232E+00 -0.23533203222E+01 -0.53679704315E+00  0.24280355052E+01  0.10566000000E+00 0. -1.
        -13    1    4    4    0    0  0.48061785087E+01 -0.18426595721E+02 -0.13435650829E+01  0.19090707501E+02  0.10566000000E+00 0.  1.
         14    1    4    4    0    0  0.28744175430E+01 -0.13634721731E+02 -0.11162737633E+01  0.13979055047E+02  0.00000000000E+00 0. -1.
<mgrwt>
<rscale>  0 0.80065914E+02</rscale>
<asrwt>0</asrwt>
<pdfrwt beam="1">  1        1 0.94172990E-02 0.80065914E+02</pdfrwt>
<pdfrwt beam="2">  1       -2 0.40279332E-02 0.80065914E+02</pdfrwt>
<totfact> 0.13550173E+05</totfact>
</mgrwt>
</event>
<event>
 8    1  0.1319619E-024  0.7885913E+02  0.7818608E-02  0.1332321E+00
          1   -1    0    0  501    0  0.00000000000E+00  0.00000000000E+00  0.18119677048E+02  0.18119677749E+02  0.50400000000E-02 0. -1.
         -2   -1    0    0    0  501 -0.00000000000E+00 -0.00000000000E+00 -0.85801235426E+02  0.85801235464E+02  0.25500000000E-02 0.  1.
        -24    2    1    2    0    0 -0.71054273576E-14  0.35527136788E-14 -0.67681558378E+02  0.10392091321E+03  0.78859133006E+02 0.  0.
         66    2    3    3    0    0  0.32890469395E+02 -0.17204824756E+02 -0.51290257980E+02  0.63344135806E+02  0.20000013585E+01 0.  0.
         13    1    3    3    0    0 -0.32890469395E+02  0.17204824756E+02 -0.16391300399E+02  0.40576777407E+02  0.10566000000E+00 0. -1.
         13    1    4    4    0    0  0.11638471328E+02 -0.53605707722E+01 -0.17176001093E+02  0.21429323635E+02  0.10566000000E+00 0. -1.
        -13    1    4    4    0    0  0.18790130789E+02 -0.10154168257E+02 -0.29561837025E+02  0.36470392380E+02  0.10566000000E+00 0.  1.
         14    1    4    4    0    0  0.24618672785E+01 -0.16900857276E+01 -0.45524198610E+01  0.54444197904E+01  0.00000000000E+00 0. -1.
<mgrwt>
<rscale>  0 0.78859133E+02</rscale>
<asrwt>0</asrwt>
<pdfrwt beam="1">  1        1 0.27876427E-02 0.78859133E+02</pdfrwt>
<pdfrwt beam="2">  1       -2 0.13200190E-01 0.78859133E+02</pdfrwt>
<totfact> 0.11415417E+05</totfact>
</mgrwt>
</event>
<event>
 8    1  0.1319619E-024  0.8153352E+02  0.7818608E-02  0.1324755E+00
          1   -1    0    0  501    0  0.00000000000E+00  0.00000000000E+00  0.38726361247E+01  0.38726394043E+01  0.50400000000E-02 0. -1.
         -2   -1    0    0    0  501 -0.00000000000E+00 -0.00000000000E+00 -0.42914645546E+03  0.42914645547E+03  0.25500000000E-02 0.  1.
        -24    2    1    2    0    0 -0.17763568394E-14  0.00000000000E+00 -0.42527381934E+03  0.43301909487E+03  0.81533521399E+02 0.  0.
         66    2    3    3    0    0 -0.81954493539E+01 -0.17186417628E+02 -0.40406026542E+03  0.40451358006E+03  0.20000050158E+01 0.  0.
         13    1    3    3    0    0  0.81954493539E+01  0.17186417628E+02 -0.21213553917E+02  0.28505514814E+02  0.10566000000E+00 0. -1.
         13    1    4    4    0    0 -0.64949856997E+00 -0.19041495989E+01 -0.35436607638E+02  0.35493829872E+02  0.10566000000E+00 0. -1.
        -13    1    4    4    0    0 -0.12041117680E+01 -0.33432850924E+01 -0.84105939998E+02  0.84181041496E+02  0.10566000000E+00 0.  1.
         14    1    4    4    0    0 -0.63418390159E+01 -0.11938982937E+02 -0.28451771778E+03  0.28483870869E+03  0.00000000000E+00 0. -1.
<mgrwt>
<rscale>  0 0.81533521E+02</rscale>
<asrwt>0</asrwt>
<pdfrwt beam="1">  1        1 0.59579077E-03 0.81533521E+02</pdfrwt>
<pdfrwt beam="2">  1       -2 0.66022494E-01 0.81533521E+02</pdfrwt>
<totfact> 0.53639765E+04</totfact>
</mgrwt>
</event>
<event>
 8    1  0.1319619E-024  0.8158774E+02  0.7818608E-02  0.1324605E+00
          1   -1    0    0  501    0  0.00000000000E+00  0.00000000000E+00  0.48723591676E+02  0.48723591936E+02  0.50400000000E-02 0. -1.
         -2   -1    0    0    0  501 -0.00000000000E+00 -0.00000000000E+00 -0.34154706926E+02  0.34154707022E+02  0.25500000000E-02 0.  1.
        -24    2    1    2    0    0  0.88817841970E-15 -0.71054273576E-14  0.14568884749E+02  0.82878298958E+02  0.81587744394E+02 0.  0.
         66    2    3    3    0    0  0.42453118469E+01 -0.29628752348E+02 -0.20830263801E+02  0.36521028541E+02  0.19999993235E+01 0.  0.
         13    1    3    3    0    0 -0.42453118469E+01  0.29628752348E+02  0.35399148550E+02  0.46357270417E+02  0.10566000000E+00 0. -1.
         13    1    4    4    0    0  0.14742165291E+01 -0.13776858653E+02 -0.97300771815E+01  0.16931057697E+02  0.10566000000E+00 0. -1.
        -13    1    4    4    0    0  0.32370423377E+00 -0.16232090973E+01 -0.71967427999E+00  0.18079511357E+01  0.10566000000E+00 0.  1.
        -14    1    4    4    0    0  0.24473910841E+01 -0.14228684598E+02 -0.10380512339E+02  0.17782019709E+02  0.00000000000E+00 0.  1.
<mgrwt>
<rscale>  0 0.81587744E+02</rscale>
<asrwt>0</asrwt>
<pdfrwt beam="1">  1        1 0.74959371E-02 0.81587744E+02</pdfrwt>
<pdfrwt beam="2">  1       -2 0.52545704E-02 0.81587744E+02</pdfrwt>
<totfact> 0.12404482E+05</totfact>
</mgrwt>
</event>
<event>
 8    1  0.1319619E-024  0.8139070E+02  0.7818608E-02  0.1325151E+00
         -2   -1    0    0    0  501 -0.00000000000E+00  0.00000000000E+00  0.86819260548E+01  0.86819264293E+01  0.25500000000E-02 0.  1.
          1   -1    0    0  501    0  0.00000000000E+00 -0.00000000000E+00 -0.19075392798E+03  0.19075392805E+03  0.50400000000E-02 0. -1.
        -24    2    1    2    0    0  0.00000000000E+00  0.00000000000E+00 -0.18207200193E+03  0.19943585448E+03  0.81390700732E+02 0.  0.
         66    2    3    3    0    0 -0.19938246378E+02 -0.33098857025E+02 -0.59995615285E+02  0.71390068352E+02  0.20000002187E+01 0.  0.
         13    1    3    3    0    0  0.19938246378E+02  0.33098857025E+02 -0.12207638664E+03  0.12804578613E+03  0.10566000000E+00 0. -1.
         13    1    4    4    0    0 -0.12560702505E+02 -0.20166988375E+02 -0.38277196358E+02  0.45051454945E+02  0.10566000000E+00 0. -1.
        -13    1    4    4    0    0 -0.24137779810E+01 -0.38317917051E+01 -0.69222987824E+01  0.82727465984E+01  0.10566000000E+00 0.  1.
         14    1    4    4    0    0 -0.49637658923E+01 -0.91000769451E+01 -0.14796120145E+02  0.18065866809E+02  0.00000000000E+00 0. -1.
<mgrwt>
<rscale>  0 0.81390701E+02</rscale>
<asrwt>0</asrwt>
<pdfrwt beam="1">  1        1 0.29346755E-01 0.81390701E+02</pdfrwt>
<pdfrwt beam="2">  1       -2 0.13356811E-02 0.81390701E+02</pdfrwt>
<totfact> 0.15781471E+05</totfact>
</mgrwt>
</event>
<event>
 8    1  0.1319619E-024  0.7958172E+02  0.7818608E-02  0.1330243E+00
          1   -1    0    0  501    0  0.00000000000E+00  0.00000000000E+00  0.45610522019E+02  0.45610522298E+02  0.50400000000E-02 0. -1.
         -2   -1    0    0    0  501 -0.00000000000E+00 -0.00000000000E+00 -0.34713757111E+02  0.34713757204E+02  0.25500000000E-02 0.  1.
        -24    2    1    2    0    0  0.00000000000E+00 -0.88817841970E-15  0.10896764908E+02  0.80324279502E+02  0.79581721470E+02 0.  0.
         66    2    3    3    0    0 -0.33257593406E+02 -0.44634572682E+01  0.26989089411E+02  0.43109174479E+02  0.20000017507E+01 0.  0.
         13    1    3    3    0    0  0.33257593406E+02  0.44634572682E+01 -0.16092324503E+02  0.37215105024E+02  0.10566000000E+00 0. -1.
         13    1    4    4    0    0 -0.36399562021E+01 -0.71963146135E+00  0.32939893707E+01  0.49627291487E+01  0.10566000000E+00 0. -1.
        -13    1    4    4    0    0 -0.24825934775E+02 -0.35417536270E+01  0.20407505326E+02  0.32331849527E+02  0.10566000000E+00 0.  1.
         14    1    4    4    0    0 -0.47917024295E+01 -0.20207217992E+00  0.32875947146E+01  0.58145958025E+01  0.00000000000E+00 0. -1.
<mgrwt>
<rscale>  0 0.79581721E+02</rscale>
<asrwt>0</asrwt>
<pdfrwt beam="1">  1        1 0.70170035E-02 0.79581721E+02</pdfrwt>
<pdfrwt beam="2">  1       -2 0.53405780E-02 0.79581721E+02</pdfrwt>
<totfact> 0.13158939E+05</totfact>
</mgrwt>
</event>
<event>
 8    1  0.1319619E-024  0.7991745E+02  0.7818608E-02  0.1329286E+00
          1   -1    0    0  501    0  0.00000000000E+00  0.00000000000E+00  0.54906940201E+02  0.54906940432E+02  0.50400000000E-02 0. -1.
         -2   -1    0    0    0  501 -0.00000000000E+00 -0.00000000000E+00 -0.29080104062E+02  0.29080104174E+02  0.25500000000E-02 0.  1.
        -24    2    1    2    0    0  0.35527136788E-14  0.00000000000E+00  0.25826836139E+02  0.83987044606E+02  0.79917446135E+02 0.  0.
         66    2    3    3    0    0  0.31195695484E+02  0.22436533489E+02  0.24343476056E+02  0.45532123297E+02  0.19999934138E+01 0.  0.
         13    1    3    3    0    0 -0.31195695484E+02 -0.22436533489E+02  0.14833600823E+01  0.38454921309E+02  0.10566000000E+00 0. -1.
         13    1    4    4    0    0  0.18026140005E+02  0.13689723145E+02  0.14460973574E+02  0.26860401412E+02  0.10566000000E+00 0. -1.
        -13    1    4    4    0    0  0.79184329919E+01  0.55477662313E+01  0.55353467195E+01  0.11141387640E+02  0.10566000000E+00 0.  1.
        -14    1    4    4    0    0  0.52511224872E+01  0.31990441130E+01  0.43471557632E+01  0.75303342451E+01  0.00000000000E+00 0.  1.
<mgrwt>
<rscale>  0 0.79917446E+02</rscale>
<asrwt>0</asrwt>
<pdfrwt beam="1">  1        1 0.84472216E-02 0.79917446E+02</pdfrwt>
<pdfrwt beam="2">  1       -2 0.44738622E-02 0.79917446E+02</pdfrwt>
<totfact> 0.13389975E+05</totfact>
</mgrwt>
</event>
<event>
 8    1  0.1319619E-024  0.8124147E+02  0.7818608E-02  0.1325565E+00
         -2   -1    0    0    0  501 -0.00000000000E+00  0.00000000000E+00  0.70785969237E+01  0.70785973831E+01  0.25500000000E-02 0.  1.
          1   -1    0    0  501    0  0.00000000000E+00 -0.00000000000E+00 -0.23310329222E+03  0.23310329228E+03  0.50400000000E-02 0. -1.
        -24    2    1    2    0    0 -0.17763568394E-14  0.00000000000E+00 -0.22602469530E+03  0.24018188966E+03  0.81241474850E+02 0.  0.
         66    2    3    3    0    0  0.11271349253E+02  0.38225913429E+02 -0.13593791304E+03  0.14167349777E+03  0.19999991317E+01 0.  0.
         13    1    3    3    0    0 -0.11271349253E+02 -0.38225913429E+02 -0.90086782254E+02  0.98508391888E+02  0.10566000000E+00 0. -1.
         13    1    4    4    0    0  0.11196562648E+01  0.48216725583E+01 -0.18210047421E+02  0.18871119403E+02  0.10566000000E+00 0. -1.
        -13    1    4    4    0    0  0.98206919346E+01  0.31244519128E+02 -0.11033183015E+03  0.11509035526E+03  0.10566000000E+00 0.  1.
        -14    1    4    4    0    0  0.33100105341E+00  0.21597217425E+01 -0.73960354773E+01  0.77120231122E+01  0.00000000000E+00 0.  1.
<mgrwt>
<rscale>  0 0.81241475E+02</rscale>
<asrwt>0</asrwt>
<pdfrwt beam="1">  1        1 0.35862039E-01 0.81241475E+02</pdfrwt>
<pdfrwt beam="2">  1       -2 0.10890151E-02 0.81241475E+02</pdfrwt>
<totfact> 0.16492362E+05</totfact>
</mgrwt>
</event>
<event>
 8    1  0.1319619E-024  0.7795915E+02  0.7818608E-02  0.1334945E+00
         -2   -1    0    0    0  501 -0.00000000000E+00  0.00000000000E+00  0.15147587470E+03  0.15147587472E+03  0.25500000000E-02 0.  1.
          1   -1    0    0  501    0  0.00000000000E+00 -0.00000000000E+00 -0.10030688192E+02  0.10030689458E+02  0.50400000000E-02 0. -1.
        -24    2    1    2    0    0  0.00000000000E+00  0.00000000000E+00  0.14144518650E+03  0.16150656418E+03  0.77959152680E+02 0.  0.
         66    2    3    3    0    0  0.37703200454E+02 -0.54444389604E+01  0.53909388372E+02  0.66040861649E+02  0.20000031646E+01 0.  0.
         13    1    3    3    0    0 -0.37703200454E+02  0.54444389604E+01  0.87535798132E+02  0.95465702526E+02  0.10566000000E+00 0. -1.
         13    1    4    4    0    0  0.16581273713E+02 -0.26877472581E+01  0.24080627258E+02  0.29360694754E+02  0.10566000000E+00 0. -1.
        -13    1    4    4    0    0  0.63740792045E+01 -0.11072537137E+01  0.10062488566E+02  0.11963266137E+02  0.10566000000E+00 0.  1.
         14    1    4    4    0    0  0.14747847537E+02 -0.16494379887E+01  0.19766272548E+02  0.24716900758E+02  0.00000000000E+00 0. -1.
<mgrwt>
<rscale>  0 0.77959153E+02</rscale>
<asrwt>0</asrwt>
<pdfrwt beam="1">  1        1 0.15431829E-02 0.77959153E+02</pdfrwt>
<pdfrwt beam="2">  1       -2 0.23303981E-01 0.77959153E+02</pdfrwt>
<totfact> 0.10067986E+05</totfact>
</mgrwt>
</event>
<event>
 8    1  0.1319619E-024  0.7476138E+02  0.7818608E-02  0.1344612E+00
          1   -1    0    0  501    0  0.00000000000E+00  0.00000000000E+00  0.26136841369E+02  0.26136841855E+02  0.50400000000E-02 0. -1.
         -2   -1    0    0    0  501 -0.00000000000E+00 -0.00000000000E+00 -0.53461541486E+02  0.53461541546E+02  0.25500000000E-02 0.  1.
        -24    2    1    2    0    0  0.00000000000E+00  0.35527136788E-14 -0.27324700117E+02  0.79598383401E+02  0.74761376416E+02 0.  0.
         66    2    3    3    0    0 -0.54578436368E+01 -0.31493441926E+02 -0.34253760155E+02  0.46892910180E+02  0.19999997305E+01 0.  0.
         13    1    3    3    0    0  0.54578436368E+01  0.31493441926E+02  0.69290600378E+01  0.32705473221E+02  0.10566000000E+00 0. -1.
         13    1    4    4    0    0 -0.29441590953E+00 -0.23186317870E+01 -0.20153261574E+01  0.30879503959E+01  0.10566000000E+00 0. -1.
        -13    1    4    4    0    0 -0.16521097983E+00 -0.71071877108E+00 -0.10781735706E+01  0.13061539432E+01  0.10566000000E+00 0.  1.
        -14    1    4    4    0    0 -0.49982167475E+01 -0.28464091368E+02 -0.31160260427E+02  0.42498805841E+02  0.00000000000E+00 0.  1.
<mgrwt>
<rscale>  0 0.74761376E+02</rscale>
<asrwt>0</asrwt>
<pdfrwt beam="1">  1        1 0.40210526E-02 0.74761376E+02</pdfrwt>
<pdfrwt beam="2">  1       -2 0.82248525E-02 0.74761376E+02</pdfrwt>
<totfact> 0.14337888E+05</totfact>
</mgrwt>
</event>
<event>
 8    1  0.1319619E-024  0.7751732E+02  0.7818608E-02  0.1336248E+00
         -2   -1    0    0    0  501 -0.00000000000E+00  0.00000000000E+00  0.13288496338E+02  0.13288496583E+02  0.25500000000E-02 0.  1.
          1   -1    0    0  501    0  0.00000000000E+00 -0.00000000000E+00 -0.11304767531E+03  0.11304767542E+03  0.50400000000E-02 0. -1.
        -24    2    1    2    0    0 -0.35527136788E-14  0.00000000000E+00 -0.99759178969E+02  0.12633617200E+03  0.77517317857E+02 0.  0.
         66    2    3    3    0    0  0.27554247502E+02 -0.24933784904E+01 -0.57346822123E+01  0.28325608051E+02  0.19999999176E+01 0.  0.
         13    1    3    3    0    0 -0.27554247502E+02  0.24933784904E+01 -0.94024496757E+02  0.98010563951E+02  0.10566000000E+00 0. -1.
         13    1    4    4    0    0  0.10530094069E+02 -0.10441483869E+01 -0.28968398889E+01  0.10971598440E+02  0.10566000000E+00 0. -1.
        -13    1    4    4    0    0  0.11012630469E+02 -0.61242477912E+00 -0.22384943473E+01  0.11255003996E+02  0.10566000000E+00 0.  1.
        -14    1    4    4    0    0  0.60115229639E+01 -0.83680532433E+00 -0.59934797614E+00  0.60990056151E+01  0.00000000000E+00 0.  1.
<mgrwt>
<rscale>  0 0.77517318E+02</rscale>
<asrwt>0</asrwt>
<pdfrwt beam="1">  1        1 0.17391950E-01 0.77517318E+02</pdfrwt>
<pdfrwt beam="2">  1       -2 0.20443841E-02 0.77517318E+02</pdfrwt>
<totfact> 0.16336621E+05</totfact>
</mgrwt>
</event>
<event>
 8    1  0.1319619E-024  0.8541867E+02  0.7818608E-02  0.1314341E+00
          1   -1    0    0  501    0  0.00000000000E+00  0.00000000000E+00  0.20251401124E+03  0.20251401130E+03  0.50400000000E-02 0. -1.
         -2   -1    0    0    0  501 -0.00000000000E+00 -0.00000000000E+00 -0.90072150896E+01  0.90072154505E+01  0.25500000000E-02 0.  1.
        -24    2    1    2    0    0  0.35527136788E-14  0.35527136788E-14  0.19350679615E+03  0.21152122675E+03  0.85418670153E+02 0.  0.
         66    2    3    3    0    0 -0.30159464460E+02 -0.29680451932E+02  0.82894986933E+02  0.93091897506E+02  0.19999998227E+01 0.  0.
         13    1    3    3    0    0  0.30159464460E+02  0.29680451932E+02  0.11061180922E+03  0.11842932925E+03  0.10566000000E+00 0. -1.
         13    1    4    4    0    0 -0.52076554804E+01 -0.49951772761E+01  0.12764952796E+02  0.14663787217E+02  0.10566000000E+00 0. -1.
        -13    1    4    4    0    0 -0.24747498373E+02 -0.24567028972E+02  0.69562226978E+02  0.77813187664E+02  0.10566000000E+00 0.  1.
         14    1    4    4    0    0 -0.20431060689E+00 -0.11824568465E+00  0.56780715839E+00  0.61492262533E+00  0.00000000000E+00 0. -1.
<mgrwt>
<rscale>  0 0.85418670E+02</rscale>
<asrwt>0</asrwt>
<pdfrwt beam="1">  1        1 0.31156000E-01 0.85418670E+02</pdfrwt>
<pdfrwt beam="2">  1       -2 0.13857255E-02 0.85418670E+02</pdfrwt>
<totfact> 0.14036685E+05</totfact>
</mgrwt>
</event>
<event>
 8    1  0.1319619E-024  0.8520267E+02  0.7818608E-02  0.1314903E+00
         -2   -1    0    0    0  501 -0.00000000000E+00  0.00000000000E+00  0.74105490957E+01  0.74105495344E+01  0.25500000000E-02 0.  1.
          1   -1    0    0  501    0  0.00000000000E+00 -0.00000000000E+00 -0.24490404961E+03  0.24490404966E+03  0.50400000000E-02 0. -1.
        -24    2    1    2    0    0 -0.71054273576E-14 -0.35527136788E-14 -0.23749350051E+03  0.25231459920E+03  0.85202665340E+02 0.  0.
         66    2    3    3    0    0  0.32541804096E+02  0.17119400552E+02 -0.55241221322E+02  0.66390024909E+02  0.19999962915E+01 0.  0.
         13    1    3    3    0    0 -0.32541804096E+02 -0.17119400552E+02 -0.18225227919E+03  0.18592457429E+03  0.10566000000E+00 0. -1.
         13    1    4    4    0    0  0.67962316401E+01  0.41844697568E+01 -0.12699916216E+02  0.14999919586E+02  0.10566000000E+00 0. -1.
        -13    1    4    4    0    0  0.38923426787E+01  0.21039442751E+01 -0.71327291797E+01  0.83942779694E+01  0.10566000000E+00 0.  1.
        -14    1    4    4    0    0  0.21853229777E+02  0.10830986520E+02 -0.35408575927E+02  0.42995827354E+02  0.00000000000E+00 0.  1.
<mgrwt>
<rscale>  0 0.85202665E+02</rscale>
<asrwt>0</asrwt>
<pdfrwt beam="1">  1        1 0.37677540E-01 0.85202665E+02</pdfrwt>
<pdfrwt beam="2">  1       -2 0.11400847E-02 0.85202665E+02</pdfrwt>
<totfact> 0.14674493E+05</totfact>
</mgrwt>
</event>
<event>
 8    1  0.1319619E-024  0.8026595E+02  0.7818608E-02  0.1328298E+00
         -2   -1    0    0    0  501 -0.00000000000E+00  0.00000000000E+00  0.81549002241E+02  0.81549002281E+02  0.25500000000E-02 0.  1.
          1   -1    0    0  501    0  0.00000000000E+00 -0.00000000000E+00 -0.19750769200E+02  0.19750769843E+02  0.50400000000E-02 0. -1.
        -24    2    1    2    0    0 -0.35527136788E-14 -0.35527136788E-14  0.61798233040E+02  0.10129977212E+03  0.80265946861E+02 0.  0.
         66    2    3    3    0    0 -0.25665498361E+02 -0.29741676381E+02  0.41121798136E+02  0.56905952234E+02  0.19999994203E+01 0.  0.
         13    1    3    3    0    0  0.25665498361E+02  0.29741676381E+02  0.20676434904E+02  0.44393819890E+02  0.10566000000E+00 0. -1.
         13    1    4    4    0    0 -0.10649118999E+01 -0.17488576957E+01  0.23264096582E+01  0.31009492947E+01  0.10566000000E+00 0. -1.
        -13    1    4    4    0    0 -0.22439381801E+02 -0.25264012936E+02  0.34806661733E+02  0.48510937635E+02  0.10566000000E+00 0.  1.
        -14    1    4    4    0    0 -0.21612046600E+01 -0.27288057487E+01  0.39887267451E+01  0.52940653040E+01  0.00000000000E+00 0.  1.
<mgrwt>
<rscale>  0 0.80265947E+02</rscale>
<asrwt>0</asrwt>
<pdfrwt beam="1">  1        1 0.30385799E-02 0.80265947E+02</pdfrwt>
<pdfrwt beam="2">  1       -2 0.12546001E-01 0.80265947E+02</pdfrwt>
<totfact> 0.11035778E+05</totfact>
</mgrwt>
</event>
<event>
 8    1  0.1319619E-024  0.8026637E+02  0.7818608E-02  0.1328297E+00
          1   -1    0    0  501    0  0.00000000000E+00  0.00000000000E+00  0.89963076998E+01  0.89963091116E+01  0.50400000000E-02 0. -1.
         -2   -1    0    0    0  501 -0.00000000000E+00 -0.00000000000E+00 -0.17903702988E+03  0.17903702990E+03  0.25500000000E-02 0.  1.
        -24    2    1    2    0    0  0.00000000000E+00  0.00000000000E+00 -0.17004072218E+03  0.18803333901E+03  0.80266365183E+02 0.  0.
         66    2    3    3    0    0 -0.10752337865E+02 -0.38639780879E+02 -0.84725989751E+02  0.93761072837E+02  0.20000010540E+01 0.  0.
         13    1    3    3    0    0  0.10752337865E+02  0.38639780879E+02 -0.85314732431E+02  0.94272266175E+02  0.10566000000E+00 0. -1.
         13    1    4    4    0    0 -0.23639912209E+01 -0.96972847025E+01 -0.22756266572E+02  0.24849237764E+02  0.10566000000E+00 0.  1.
        -13    1    4    4    0    0 -0.40991990858E+00 -0.18840667580E+01 -0.37945423797E+01  0.42576352341E+01  0.10566000000E+00 0. -1.
         14    1    4    4    0    0 -0.79784267351E+01 -0.27058429419E+02 -0.58175180799E+02  0.64654199839E+02  0.00000000000E+00 0. -1.
<mgrwt>
<rscale>  0 0.80266365E+02</rscale>
<asrwt>0</asrwt>
<pdfrwt beam="1">  1        1 0.13840476E-02 0.80266365E+02</pdfrwt>
<pdfrwt beam="2">  1       -2 0.27544156E-01 0.80266365E+02</pdfrwt>
<totfact> 0.88070207E+04</totfact>
</mgrwt>
</event>
<event>
 8    1  0.1319619E-024  0.8139034E+02  0.7818608E-02  0.1325152E+00
         -2   -1    0    0    0  501 -0.00000000000E+00  0.00000000000E+00  0.22570088325E+03  0.22570088326E+03  0.25500000000E-02 0.  1.
          1   -1    0    0  501    0  0.00000000000E+00 -0.00000000000E+00 -0.73375730361E+01  0.73375747671E+01  0.50400000000E-02 0. -1.
        -24    2    1    2    0    0  0.17763568394E-14  0.00000000000E+00  0.21836331021E+03  0.23303845803E+03  0.81390341405E+02 0.  0.
         66    2    3    3    0    0  0.10131049149E+02 -0.35733642250E+02  0.15669058239E+03  0.16104493147E+03  0.19999993212E+01 0.  0.
         13    1    3    3    0    0 -0.10131049149E+02  0.35733642250E+02  0.61672727821E+02  0.71993526558E+02  0.10566000000E+00 0. -1.
         13    1    4    4    0    0  0.58036329368E+01 -0.19126402707E+02  0.87067365657E+02  0.89332182119E+02  0.10566000000E+00 0. -1.
        -13    1    4    4    0    0  0.28156507015E+01 -0.10044202662E+02  0.40680252983E+02  0.41996524175E+02  0.10566000000E+00 0.  1.
         14    1    4    4    0    0  0.15117655109E+01 -0.65630368821E+01  0.28942963749E+02  0.29716225175E+02  0.00000000000E+00 0. -1.
<mgrwt>
<rscale>  0 0.81390341E+02</rscale>
<asrwt>0</asrwt>
<pdfrwt beam="1">  1        1 0.11288573E-02 0.81390341E+02</pdfrwt>
<pdfrwt beam="2">  1       -2 0.34723220E-01 0.81390341E+02</pdfrwt>
<totfact> 0.77307506E+04</totfact>
</mgrwt>
</event>
<event>
 8    1  0.1319619E-024  0.7944077E+02  0.7818608E-02  0.1330646E+00
         -2   -1    0    0    0  501 -0.00000000000E+00  0.00000000000E+00  0.25771898321E+03  0.25771898322E+03  0.25500000000E-02 0.  1.
          1   -1    0    0  501    0  0.00000000000E+00 -0.00000000000E+00 -0.61218186504E+01  0.61218207251E+01  0.50400000000E-02 0. -1.
        -24    2    1    2    0    0  0.00000000000E+00 -0.88817841970E-15  0.25159716456E+03  0.26384080395E+03  0.79440774249E+02 0.  0.
         66    2    3    3    0    0  0.38681283773E+02 -0.60399057266E+01  0.14765228114E+03  0.15276753025E+03  0.19999997969E+01 0.  0.
         13    1    3    3    0    0 -0.38681283773E+02  0.60399057266E+01  0.10394488342E+03  0.11107327370E+03  0.10566000000E+00 0. -1.
         13    1    4    4    0    0  0.18411994620E+02 -0.30543627094E+01  0.73513941101E+02  0.75846169169E+02  0.10566000000E+00 0. -1.
        -13    1    4    4    0    0  0.51747894540E+01 -0.42615659497E+00  0.18985571355E+02  0.19683067318E+02  0.10566000000E+00 0.  1.
         14    1    4    4    0    0  0.15094499699E+02 -0.25593864222E+01  0.55152768680E+02  0.57238293765E+02  0.00000000000E+00 0. -1.
<mgrwt>
<rscale>  0 0.79440774E+02</rscale>
<asrwt>0</asrwt>
<pdfrwt beam="1">  1        1 0.94181836E-03 0.79440774E+02</pdfrwt>
<pdfrwt beam="2">  1       -2 0.39649077E-01 0.79440774E+02</pdfrwt>
<totfact> 0.77381818E+04</totfact>
</mgrwt>
</event>
<event>
 8    1  0.1319619E-024  0.8129672E+02  0.7818608E-02  0.1325411E+00
         -2   -1    0    0    0  501 -0.00000000000E+00  0.00000000000E+00  0.70041881468E+02  0.70041881514E+02  0.25500000000E-02 0.  1.
          1   -1    0    0  501    0  0.00000000000E+00 -0.00000000000E+00 -0.23590015301E+02  0.23590015840E+02  0.50400000000E-02 0. -1.
        -24    2    1    2    0    0 -0.35527136788E-14  0.17763568394E-14  0.46451866167E+02  0.93631897354E+02  0.81296717841E+02 0.  0.
         66    2    3    3    0    0 -0.30589499147E+02 -0.15271921482E+02  0.48508165405E+02  0.59380056901E+02  0.20000006988E+01 0.  0.
         13    1    3    3    0    0  0.30589499147E+02  0.15271921482E+02 -0.20562992387E+01  0.34251840453E+02  0.10566000000E+00 0. -1.
         13    1    4    4    0    0 -0.73830434171E+01 -0.38565343222E+01  0.12998944305E+02  0.15439103088E+02  0.10566000000E+00 0. -1.
        -13    1    4    4    0    0 -0.17619093253E+02 -0.88500206178E+01  0.27737691695E+02  0.34031544435E+02  0.10566000000E+00 0.  1.
         14    1    4    4    0    0 -0.55873624764E+01 -0.25653665422E+01  0.77715294054E+01  0.99094093788E+01  0.00000000000E+00 0. -1.
<mgrwt>
<rscale>  0 0.81296718E+02</rscale>
<asrwt>0</asrwt>
<pdfrwt beam="1">  1        1 0.36292332E-02 0.81296718E+02</pdfrwt>
<pdfrwt beam="2">  1       -2 0.10775674E-01 0.81296718E+02</pdfrwt>
<totfact> 0.11029842E+05</totfact>
</mgrwt>
</event>
<event>
 8    1  0.1319619E-024  0.8114978E+02  0.7818608E-02  0.1325820E+00
          1   -1    0    0  501    0  0.00000000000E+00  0.00000000000E+00  0.12113907351E+02  0.12113908399E+02  0.50400000000E-02 0. -1.
         -2   -1    0    0    0  501 -0.00000000000E+00 -0.00000000000E+00 -0.13590343818E+03  0.13590343820E+03  0.25500000000E-02 0.  1.
        -24    2    1    2    0    0 -0.71054273576E-14  0.00000000000E+00 -0.12378953082E+03  0.14801734660E+03  0.81149780975E+02 0.  0.
         66    2    3    3    0    0 -0.34766918828E+02  0.15643635460E+02 -0.87130878197E+02  0.95127555979E+02  0.19999990269E+01 0.  0.
         13    1    3    3    0    0  0.34766918828E+02 -0.15643635460E+02 -0.36658652628E+02  0.52889790619E+02  0.10566000000E+00 0. -1.
         13    1    4    4    0    0 -0.56899225305E+01  0.24121695914E+01 -0.15061744837E+02  0.16280697225E+02  0.10566000000E+00 0. -1.
        -13    1    4    4    0    0 -0.15721732636E+02  0.68633119148E+01 -0.40437512167E+02  0.43925863473E+02  0.10566000000E+00 0.  1.
        -14    1    4    4    0    0 -0.13355263662E+02  0.63681539536E+01 -0.31631621192E+02  0.34920995282E+02  0.00000000000E+00 0.  1.
<mgrwt>
<rscale>  0 0.81149781E+02</rscale>
<asrwt>0</asrwt>
<pdfrwt beam="1">  1        1 0.18636782E-02 0.81149781E+02</pdfrwt>
<pdfrwt beam="2">  1       -2 0.20908220E-01 0.81149781E+02</pdfrwt>
<totfact> 0.94003857E+04</totfact>
</mgrwt>
</event>
<event>
 8    1  0.1319619E-024  0.7926185E+02  0.7818608E-02  0.1331159E+00
         -2   -1    0    0    0  501 -0.00000000000E+00  0.00000000000E+00  0.10898193294E+02  0.10898193592E+02  0.25500000000E-02 0.  1.
          1   -1    0    0  501    0  0.00000000000E+00 -0.00000000000E+00 -0.14411657090E+03  0.14411657099E+03  0.50400000000E-02 0. -1.
        -24    2    1    2    0    0  0.00000000000E+00 -0.35527136788E-14 -0.13321837761E+03  0.15501476458E+03  0.79261851517E+02 0.  0.
         66    2    3    3    0    0  0.33788974463E+02 -0.19953915025E+02 -0.77138238915E+02  0.86568825039E+02  0.20000114129E+01 0.  0.
         13    1    3    3    0    0 -0.33788974463E+02  0.19953915025E+02 -0.56080138692E+02  0.68445939543E+02  0.10566000000E+00 0. -1.
         13    1    4    4    0    0  0.11733189237E+02 -0.75661926185E+01 -0.27459817209E+02  0.30805319761E+02  0.10566000000E+00 0. -1.
        -13    1    4    4    0    0  0.20438659804E+02 -0.11559507223E+02 -0.46783699452E+02  0.52345837659E+02  0.10566000000E+00 0.  1.
         14    1    4    4    0    0  0.16171254224E+01 -0.82821518344E+00 -0.28947222537E+01  0.34176676181E+01  0.00000000000E+00 0. -1.
<mgrwt>
<rscale>  0 0.79261852E+02</rscale>
<asrwt>0</asrwt>
<pdfrwt beam="1">  1        1 0.22171779E-01 0.79261852E+02</pdfrwt>
<pdfrwt beam="2">  1       -2 0.16766453E-02 0.79261852E+02</pdfrwt>
<totfact> 0.16065997E+05</totfact>
</mgrwt>
</event>
<event>
 8    1  0.1319619E-024  0.8379679E+02  0.7818608E-02  0.1318609E+00
         -2   -1    0    0    0  501 -0.00000000000E+00  0.00000000000E+00  0.76485957519E+02  0.76485957561E+02  0.25500000000E-02 0.  1.
          1   -1    0    0  501    0  0.00000000000E+00 -0.00000000000E+00 -0.22951603188E+02  0.22951603742E+02  0.50400000000E-02 0. -1.
        -24    2    1    2    0    0 -0.17763568394E-14  0.00000000000E+00  0.53534354330E+02  0.99437561303E+02  0.83796786957E+02 0.  0.
         66    2    3    3    0    0  0.12700321299E+02  0.36234650263E+02  0.46611260530E+02  0.60422327963E+02  0.20000168875E+01 0.  0.
         13    1    3    3    0    0 -0.12700321299E+02 -0.36234650263E+02  0.69230938002E+01  0.39015233340E+02  0.10566000000E+00 0. -1.
         13    1    4    4    0    0  0.39355625869E+01  0.13535921479E+02  0.16353909349E+02  0.21591001325E+02  0.10566000000E+00 0. -1.
        -13    1    4    4    0    0  0.62352907288E+01  0.16603948705E+02  0.21767505792E+02  0.28078558288E+02  0.10566000000E+00 0.  1.
         14    1    4    4    0    0  0.25294679830E+01  0.60947800785E+01  0.84898453884E+01  0.10752768351E+02  0.00000000000E+00 0. -1.
<mgrwt>
<rscale>  0 0.83796787E+02</rscale>
<asrwt>0</asrwt>
<pdfrwt beam="1">  1        1 0.35310160E-02 0.83796787E+02</pdfrwt>
<pdfrwt beam="2">  1       -2 0.11767070E-01 0.83796787E+02</pdfrwt>
<totfact> 0.10026614E+05</totfact>
</mgrwt>
</event>
<event>
 8    1  0.1319619E-024  0.8148819E+02  0.7818608E-02  0.1324880E+00
         -2   -1    0    0    0  501 -0.00000000000E+00  0.00000000000E+00  0.18857064162E+02  0.18857064334E+02  0.25500000000E-02 0.  1.
          1   -1    0    0  501    0  0.00000000000E+00 -0.00000000000E+00 -0.88034982121E+02  0.88034982265E+02  0.50400000000E-02 0. -1.
        -24    2    1    2    0    0  0.44408920985E-15  0.00000000000E+00 -0.69177917960E+02  0.10689204660E+03  0.81488191126E+02 0.  0.
         66    2    3    3    0    0 -0.35576265937E+01 -0.39286444229E+02 -0.47857422102E+02  0.62051706338E+02  0.20000005077E+01 0.  0.
         13    1    3    3    0    0  0.35576265937E+01  0.39286444229E+02 -0.21320495857E+02  0.44840340262E+02  0.10566000000E+00 0. -1.
         13    1    4    4    0    0 -0.48133226037E+00 -0.45575376586E+01 -0.50596962803E+01  0.68274827528E+01  0.10566000000E+00 0. -1.
        -13    1    4    4    0    0 -0.29869732144E+01 -0.26195541588E+02 -0.32109983667E+02  0.41547450261E+02  0.10566000000E+00 0.  1.
         14    1    4    4    0    0 -0.89321118908E-01 -0.85333649827E+01 -0.10687742155E+02  0.13676773324E+02  0.00000000000E+00 0. -1.
<mgrwt>
<rscale>  0 0.81488191E+02</rscale>
<asrwt>0</asrwt>
<pdfrwt beam="1">  1        1 0.13543843E-01 0.81488191E+02</pdfrwt>
<pdfrwt beam="2">  1       -2 0.29010869E-02 0.81488191E+02</pdfrwt>
<totfact> 0.13688370E+05</totfact>
</mgrwt>
</event>
<event>
 8    1  0.1319619E-024  0.7010008E+02  0.7818608E-02  0.1359753E+00
          1   -1    0    0  501    0  0.00000000000E+00  0.00000000000E+00  0.35189033069E+02  0.35189033430E+02  0.50400000000E-02 0. -1.
         -2   -1    0    0    0  501 -0.00000000000E+00 -0.00000000000E+00 -0.34911599402E+02  0.34911599495E+02  0.25500000000E-02 0.  1.
        -24    2    1    2    0    0  0.00000000000E+00 -0.17763568394E-14  0.27743366705E+00  0.70100632924E+02  0.70100083930E+02 0.  0.
         66    2    3    3    0    0  0.22828301430E+02 -0.13132858612E+02 -0.22945920833E+02  0.34987406360E+02  0.19999998671E+01 0.  0.
         13    1    3    3    0    0 -0.22828301430E+02  0.13132858612E+02  0.23223354500E+02  0.35113226564E+02  0.10566000000E+00 0. -1.
         13    1    4    4    0    0  0.51025187473E+01 -0.35205712198E+01 -0.46938276302E+01  0.77764581358E+01  0.10566000000E+00 0. -1.
        -13    1    4    4    0    0  0.76113325922E+01 -0.41529081123E+01 -0.73046194150E+01  0.11337885978E+02  0.10566000000E+00 0.  1.
        -14    1    4    4    0    0  0.10114450090E+02 -0.54593792796E+01 -0.10947473787E+02  0.15873062246E+02  0.00000000000E+00 0.  1.
<mgrwt>
<rscale>  0 0.70100084E+02</rscale>
<asrwt>0</asrwt>
<pdfrwt beam="1">  1        1 0.54136974E-02 0.70100084E+02</pdfrwt>
<pdfrwt beam="2">  1       -2 0.53710153E-02 0.70100084E+02</pdfrwt>
<totfact> 0.17998655E+05</totfact>
</mgrwt>
</event>
<event>
 8    1  0.1319619E-024  0.7665312E+02  0.7818608E-02  0.1338827E+00
          1   -1    0    0  501    0  0.00000000000E+00  0.00000000000E+00  0.58178718168E+02  0.58178718386E+02  0.50400000000E-02 0. -1.
         -2   -1    0    0    0  501 -0.00000000000E+00 -0.00000000000E+00 -0.25248499968E+02  0.25248500097E+02  0.25500000000E-02 0.  1.
        -24    2    1    2    0    0  0.00000000000E+00  0.00000000000E+00  0.32930218200E+02  0.83427218483E+02  0.76653124614E+02 0.  0.
         66    2    3    3    0    0 -0.23110703920E+02  0.15627608789E+02 -0.12083793035E+02  0.30468752081E+02  0.20000017744E+01 0.  0.
         13    1    3    3    0    0  0.23110703920E+02 -0.15627608789E+02  0.45014011235E+02  0.52958466402E+02  0.10566000000E+00 0. -1.
         13    1    4    4    0    0 -0.14367390211E+02  0.97257778738E+01 -0.65658745609E+01  0.18550863309E+02  0.10566000000E+00 0. -1.
        -13    1    4    4    0    0 -0.67171301536E+01  0.44682160457E+01 -0.39626098136E+01  0.89887837165E+01  0.10566000000E+00 0.  1.
        -14    1    4    4    0    0 -0.20261835562E+01  0.14336148691E+01 -0.15553086609E+01  0.29291050556E+01  0.00000000000E+00 0.  1.
<mgrwt>
<rscale>  0 0.76653125E+02</rscale>
<asrwt>0</asrwt>
<pdfrwt beam="1">  1        1 0.89505720E-02 0.76653125E+02</pdfrwt>
<pdfrwt beam="2">  1       -2 0.38843846E-02 0.76653125E+02</pdfrwt>
<totfact> 0.15154183E+05</totfact>
</mgrwt>
</event>
<event>
 8    1  0.1319619E-024  0.8205946E+02  0.7818608E-02  0.1323307E+00
         -2   -1    0    0    0  501 -0.00000000000E+00  0.00000000000E+00  0.17868421806E+02  0.17868421988E+02  0.25500000000E-02 0.  1.
          1   -1    0    0  501    0  0.00000000000E+00 -0.00000000000E+00 -0.94213070320E+02  0.94213070455E+02  0.50400000000E-02 0. -1.
        -24    2    1    2    0    0  0.00000000000E+00  0.00000000000E+00 -0.76344648515E+02  0.11208149244E+03  0.82059463753E+02 0.  0.
         66    2    3    3    0    0 -0.44042087136E+01 -0.21063440707E+02  0.94804840129E+01  0.23599685690E+02  0.19999996930E+01 0.  0.
         13    1    3    3    0    0  0.44042087136E+01  0.21063440707E+02 -0.85825132528E+02  0.88481806753E+02  0.10566000000E+00 0. -1.
         13    1    4    4    0    0 -0.29473432081E+00 -0.29334177267E+01  0.18814415550E+01  0.34989704543E+01  0.10566000000E+00 0. -1.
        -13    1    4    4    0    0 -0.41254581070E+01 -0.17663218855E+02  0.73508144995E+01  0.19571774134E+02  0.10566000000E+00 0.  1.
        -14    1    4    4    0    0  0.15983714238E-01 -0.46680412499E+00  0.24822795833E+00  0.52894110213E+00  0.00000000000E+00 0.  1.
<mgrwt>
<rscale>  0 0.82059464E+02</rscale>
<asrwt>0</asrwt>
<pdfrwt beam="1">  1        1 0.14494318E-01 0.82059464E+02</pdfrwt>
<pdfrwt beam="2">  1       -2 0.27489880E-02 0.82059464E+02</pdfrwt>
<totfact> 0.13583822E+05</totfact>
</mgrwt>
</event>
<event>
 8    1  0.1319619E-024  0.8040213E+02  0.7818608E-02  0.1327914E+00
         -2   -1    0    0    0  501 -0.00000000000E+00  0.00000000000E+00  0.24993969993E+02  0.24993970123E+02  0.25500000000E-02 0.  1.
          1   -1    0    0  501    0  0.00000000000E+00 -0.00000000000E+00 -0.64660622658E+02  0.64660622854E+02  0.50400000000E-02 0. -1.
        -24    2    1    2    0    0  0.00000000000E+00  0.35527136788E-14 -0.39666652665E+02  0.89654592977E+02  0.80402131242E+02 0.  0.
         66    2    3    3    0    0 -0.32619930882E+02  0.19586316299E+02 -0.54598982779E+01  0.38490182626E+02  0.19999981311E+01 0.  0.
         13    1    3    3    0    0  0.32619930882E+02 -0.19586316299E+02 -0.34206754387E+02  0.51164410351E+02  0.10566000000E+00 0. -1.
         13    1    4    4    0    0 -0.45852583325E+01  0.34365533314E+01 -0.50866769247E+00  0.57536422927E+01  0.10566000000E+00 0. -1.
        -13    1    4    4    0    0 -0.58208149469E+01  0.30965850693E+01 -0.10993885900E+01  0.66850987311E+01  0.10566000000E+00 0.  1.
        -14    1    4    4    0    0 -0.22213857602E+02  0.13053177898E+02 -0.38518419954E+01  0.26051441602E+02  0.00000000000E+00 0.  1.
<mgrwt>
<rscale>  0 0.80402131E+02</rscale>
<asrwt>0</asrwt>
<pdfrwt beam="1">  1        1 0.99477881E-02 0.80402131E+02</pdfrwt>
<pdfrwt beam="2">  1       -2 0.38452262E-02 0.80402131E+02</pdfrwt>
<totfact> 0.13510735E+05</totfact>
</mgrwt>
</event>
<event>
 8    1  0.1319619E-024  0.7912814E+02  0.7818608E-02  0.1331544E+00
          1   -1    0    0  501    0  0.00000000000E+00  0.00000000000E+00  0.12113873499E+02  0.12113874547E+02  0.50400000000E-02 0. -1.
         -2   -1    0    0    0  501 -0.00000000000E+00 -0.00000000000E+00 -0.12921677854E+03  0.12921677857E+03  0.25500000000E-02 0.  1.
        -24    2    1    2    0    0  0.35527136788E-14 -0.35527136788E-14 -0.11710290504E+03  0.14133065312E+03  0.79128143793E+02 0.  0.
         66    2    3    3    0    0 -0.24123177441E+02  0.24802414888E+02 -0.92769253748E+02  0.99031418801E+02  0.19999986640E+01 0.  0.
         13    1    3    3    0    0  0.24123177441E+02 -0.24802414888E+02 -0.24333651297E+02  0.42299234314E+02  0.10566000000E+00 0. -1.
         13    1    4    4    0    0 -0.34111696985E+01  0.42304871239E+01 -0.14324172961E+02  0.15320776582E+02  0.10566000000E+00 0.  1.
        -13    1    4    4    0    0 -0.73188788340E+01  0.66339558839E+01 -0.25400805024E+02  0.27254126622E+02  0.10566000000E+00 0. -1.
         14    1    4    4    0    0 -0.13393128908E+02  0.13937971880E+02 -0.53044275763E+02  0.56456515596E+02  0.00000000000E+00 0. -1.
<mgrwt>
<rscale>  0 0.79128144E+02</rscale>
<asrwt>0</asrwt>
<pdfrwt beam="1">  1        1 0.18636730E-02 0.79128144E+02</pdfrwt>
<pdfrwt beam="2">  1       -2 0.19879503E-01 0.79128144E+02</pdfrwt>
<totfact> 0.10183702E+05</totfact>
</mgrwt>
</event>
<event>
 8    1  0.1319619E-024  0.7895624E+02  0.7818608E-02  0.1332040E+00
          1   -1    0    0  501    0  0.00000000000E+00  0.00000000000E+00  0.24988154645E+03  0.24988154650E+03  0.50400000000E-02 0. -1.
         -2   -1    0    0    0  501 -0.00000000000E+00 -0.00000000000E+00 -0.62370435107E+01  0.62370440320E+01  0.25500000000E-02 0.  1.
        -24    2    1    2    0    0  0.00000000000E+00  0.00000000000E+00  0.24364450294E+03  0.25611859053E+03  0.78956244870E+02 0.  0.
         66    2    3    3    0    0  0.11470644871E+02  0.33689883366E+02  0.66666561090E+02  0.75597713623E+02  0.20000006387E+01 0.  0.
         13    1    3    3    0    0 -0.11470644871E+02 -0.33689883366E+02  0.17697794185E+03  0.18052087691E+03  0.10566000000E+00 0. -1.
         13    1    4    4    0    0  0.30031941678E+01  0.98954016165E+01  0.20030075599E+02  0.22542254566E+02  0.10566000000E+00 0. -1.
        -13    1    4    4    0    0  0.83305761777E+01  0.22767457847E+02  0.45079651803E+02  0.51185367118E+02  0.10566000000E+00 0.  1.
        -14    1    4    4    0    0  0.13687452508E+00  0.10270239027E+01  0.15568336874E+01  0.18700919396E+01  0.00000000000E+00 0.  1.
<mgrwt>
<rscale>  0 0.78956245E+02</rscale>
<asrwt>0</asrwt>
<pdfrwt beam="1">  1        1 0.38443318E-01 0.78956245E+02</pdfrwt>
<pdfrwt beam="2">  1       -2 0.95954512E-03 0.78956245E+02</pdfrwt>
<totfact> 0.18028551E+05</totfact>
</mgrwt>
</event>
<event>
 8    1  0.1319619E-024  0.7484507E+02  0.7818608E-02  0.1344351E+00
          1   -1    0    0  501    0  0.00000000000E+00  0.00000000000E+00  0.31034483260E+03  0.31034483264E+03  0.50400000000E-02 0. -1.
         -2   -1    0    0    0  501 -0.00000000000E+00 -0.00000000000E+00 -0.45125479980E+01  0.45125487185E+01  0.25500000000E-02 0.  1.
        -24    2    1    2    0    0  0.00000000000E+00  0.00000000000E+00  0.30583228460E+03  0.31485738136E+03  0.74845068586E+02 0.  0.
         66    2    3    3    0    0  0.16624808489E+02 -0.33374875914E+02  0.14099729093E+03  0.14585781656E+03  0.20000006024E+01 0.  0.
         13    1    3    3    0    0 -0.16624808489E+02  0.33374875914E+02  0.16483499368E+03  0.16899956480E+03  0.10566000000E+00 0. -1.
         13    1    4    4    0    0  0.17583025566E+01 -0.39073231003E+01  0.18263447063E+02  0.18759623246E+02  0.10566000000E+00 0. -1.
        -13    1    4    4    0    0  0.74181517070E+01 -0.15604461393E+02  0.65323946583E+02  0.67570388125E+02  0.10566000000E+00 0.  1.
        -14    1    4    4    0    0  0.74483542252E+01 -0.13863091421E+02  0.57409897279E+02  0.59527805184E+02  0.00000000000E+00 0.  1.
<mgrwt>
<rscale>  0 0.74845069E+02</rscale>
<asrwt>0</asrwt>
<pdfrwt beam="1">  1        1 0.47745374E-01 0.74845069E+02</pdfrwt>
<pdfrwt beam="2">  1       -2 0.69423799E-03 0.74845069E+02</pdfrwt>
<totfact> 0.21627733E+05</totfact>
</mgrwt>
</event>
<event>
 8    1  0.1319619E-024  0.8354208E+02  0.7818608E-02  0.1319290E+00
          1   -1    0    0  501    0  0.00000000000E+00  0.00000000000E+00  0.39702162657E+02  0.39702162977E+02  0.50400000000E-02 0. -1.
         -2   -1    0    0    0  501 -0.00000000000E+00 -0.00000000000E+00 -0.43947727010E+02  0.43947727084E+02  0.25500000000E-02 0.  1.
        -24    2    1    2    0    0 -0.35527136788E-14 -0.35527136788E-14 -0.42455643524E+01  0.83649890061E+02  0.83542080957E+02 0.  0.
         66    2    3    3    0    0 -0.26718545723E+02 -0.16350173225E+02 -0.29756818263E+02  0.43251324615E+02  0.19999994417E+01 0.  0.
         13    1    3    3    0    0  0.26718545723E+02  0.16350173225E+02  0.25511253910E+02  0.40398565447E+02  0.10566000000E+00 0. -1.
         13    1    4    4    0    0 -0.55225582881E+01 -0.27097767884E+01 -0.64009594499E+01  0.88783436633E+01  0.10566000000E+00 0. -1.
        -13    1    4    4    0    0 -0.19352884972E+02 -0.12501048230E+02 -0.21645139589E+02  0.31612238064E+02  0.10566000000E+00 0.  1.
        -14    1    4    4    0    0 -0.18431024631E+01 -0.11393482067E+01 -0.17107192240E+01  0.27607428872E+01  0.00000000000E+00 0.  1.
<mgrwt>
<rscale>  0 0.83542081E+02</rscale>
<asrwt>0</asrwt>
<pdfrwt beam="1">  1        1 0.61080251E-02 0.83542081E+02</pdfrwt>
<pdfrwt beam="2">  1       -2 0.67611888E-02 0.83542081E+02</pdfrwt>
<totfact> 0.11218334E+05</totfact>
</mgrwt>
</event>
<event>
 8    1  0.1319619E-024  0.7979139E+02  0.7818608E-02  0.1329644E+00
         -2   -1    0    0    0  501 -0.00000000000E+00  0.00000000000E+00  0.50683069813E+02  0.50683069877E+02  0.25500000000E-02 0.  1.
          1   -1    0    0  501    0  0.00000000000E+00 -0.00000000000E+00 -0.31404301511E+02  0.31404301915E+02  0.50400000000E-02 0. -1.
        -24    2    1    2    0    0  0.00000000000E+00  0.00000000000E+00  0.19278768302E+02  0.82087371793E+02  0.79791388637E+02 0.  0.
         66    2    3    3    0    0 -0.32705716653E+02 -0.11123772721E+02  0.30124484048E+02  0.45879044913E+02  0.20000004132E+01 0.  0.
         13    1    3    3    0    0  0.32705716653E+02  0.11123772721E+02 -0.10845715746E+02  0.36208326879E+02  0.10566000000E+00 0. -1.
         13    1    4    4    0    0 -0.31628496593E+01 -0.13106100295E+01  0.35683246548E+01  0.49462532784E+01  0.10566000000E+00 0. -1.
        -13    1    4    4    0    0 -0.17610144921E+02 -0.55030187912E+01  0.16280912950E+02  0.24606497322E+02  0.10566000000E+00 0.  1.
        -14    1    4    4    0    0 -0.11932722073E+02 -0.43101438999E+01  0.10275246443E+02  0.16326294312E+02  0.00000000000E+00 0.  1.
<mgrwt>
<rscale>  0 0.79791389E+02</rscale>
<asrwt>0</asrwt>
<pdfrwt beam="1">  1        1 0.48314311E-02 0.79791389E+02</pdfrwt>
<pdfrwt beam="2">  1       -2 0.77973953E-02 0.79791389E+02</pdfrwt>
<totfact> 0.12283854E+05</totfact>
</mgrwt>
</event>
<event>
 8    1  0.1319619E-024  0.8077397E+02  0.7818608E-02  0.1326869E+00
         -2   -1    0    0    0  501 -0.00000000000E+00  0.00000000000E+00  0.27922502034E+02  0.27922502150E+02  0.25500000000E-02 0.  1.
          1   -1    0    0  501    0  0.00000000000E+00 -0.00000000000E+00 -0.58415562318E+02  0.58415562535E+02  0.50400000000E-02 0. -1.
        -24    2    1    2    0    0  0.00000000000E+00  0.00000000000E+00 -0.30493060284E+02  0.86338064685E+02  0.80773972839E+02 0.  0.
         66    2    3    3    0    0 -0.37930222453E+02  0.98965141029E+01 -0.25533884334E+02  0.46825441932E+02  0.19999990619E+01 0.  0.
         13    1    3    3    0    0  0.37930222453E+02 -0.98965141029E+01 -0.49591759500E+01  0.39512622753E+02  0.10566000000E+00 0. -1.
         13    1    4    4    0    0 -0.12995552263E+02  0.37259249780E+01 -0.91965454283E+01  0.16350978790E+02  0.10566000000E+00 0. -1.
        -13    1    4    4    0    0 -0.13459420430E+02  0.33393247095E+01 -0.96425411662E+01  0.16890732726E+02  0.10566000000E+00 0.  1.
         14    1    4    4    0    0 -0.11475249760E+02  0.28312644154E+01 -0.66947977393E+01  0.13583730416E+02  0.00000000000E+00 0. -1.
<mgrwt>
<rscale>  0 0.80773973E+02</rscale>
<asrwt>0</asrwt>
<pdfrwt beam="1">  1        1 0.89870096E-02 0.80773973E+02</pdfrwt>
<pdfrwt beam="2">  1       -2 0.42957696E-02 0.80773973E+02</pdfrwt>
<totfact> 0.13128048E+05</totfact>
</mgrwt>
</event>
<event>
 8    1  0.1319619E-024  0.7990251E+02  0.7818608E-02  0.1329328E+00
          1   -1    0    0  501    0  0.00000000000E+00  0.00000000000E+00  0.43081357176E+01  0.43081386657E+01  0.50400000000E-02 0. -1.
         -2   -1    0    0    0  501 -0.00000000000E+00 -0.00000000000E+00 -0.37048558108E+03  0.37048558109E+03  0.25500000000E-02 0.  1.
        -24    2    1    2    0    0  0.00000000000E+00 -0.17763568394E-14 -0.36617744537E+03  0.37479371976E+03  0.79902508567E+02 0.  0.
         66    2    3    3    0    0 -0.35844837742E+02  0.10624890311E+02 -0.24893183091E+03  0.25173159739E+03  0.20000002320E+01 0.  0.
         13    1    3    3    0    0  0.35844837742E+02 -0.10624890311E+02 -0.11724561446E+03  0.12306212237E+03  0.10566000000E+00 0. -1.
         13    1    4    4    0    0 -0.15042592834E+02  0.48590558942E+01 -0.11086402330E+03  0.11198541356E+03  0.10566000000E+00 0. -1.
        -13    1    4    4    0    0 -0.11170983029E+01  0.35149659949E+00 -0.71640130014E+01  0.72598694752E+01  0.10566000000E+00 0.  1.
         14    1    4    4    0    0 -0.19685146605E+02  0.54143378176E+01 -0.13090379461E+03  0.13248631436E+03  0.00000000000E+00 0. -1.
<mgrwt>
<rscale>  0 0.79902509E+02</rscale>
<asrwt>0</asrwt>
<pdfrwt beam="1">  1        1 0.66279063E-03 0.79902509E+02</pdfrwt>
<pdfrwt beam="2">  1       -2 0.56997757E-01 0.79902509E+02</pdfrwt>
<totfact> 0.62288866E+04</totfact>
</mgrwt>
</event>
<event>
 8    1  0.1319619E-024  0.8024285E+02  0.7818608E-02  0.1328364E+00
          1   -1    0    0  501    0  0.00000000000E+00  0.00000000000E+00  0.62275841651E+02  0.62275841855E+02  0.50400000000E-02 0. -1.
         -2   -1    0    0    0  501 -0.00000000000E+00 -0.00000000000E+00 -0.25848368276E+02  0.25848368402E+02  0.25500000000E-02 0.  1.
        -24    2    1    2    0    0  0.17763568394E-14  0.00000000000E+00  0.36427473375E+02  0.88124210257E+02  0.80242853993E+02 0.  0.
         66    2    3    3    0    0 -0.14527448054E+02  0.18692626042E+02 -0.17314923797E+02  0.29398428584E+02  0.20000004548E+01 0.  0.
         13    1    3    3    0    0  0.14527448054E+02 -0.18692626042E+02  0.53742397172E+02  0.58725781673E+02  0.10566000000E+00 0. -1.
         13    1    4    4    0    0 -0.47809074303E+01  0.55322865142E+01 -0.47554806124E+01  0.87229026031E+01  0.10566000000E+00 0. -1.
        -13    1    4    4    0    0 -0.90715115873E+01  0.12190317133E+02 -0.11218516453E+02  0.18888155806E+02  0.10566000000E+00 0.  1.
         14    1    4    4    0    0 -0.67502903609E+00  0.97002239468E+00 -0.13409267310E+01  0.17873701753E+01  0.00000000000E+00 0. -1.
<mgrwt>
<rscale>  0 0.80242854E+02</rscale>
<asrwt>0</asrwt>
<pdfrwt beam="1">  1        1 0.95808988E-02 0.80242854E+02</pdfrwt>
<pdfrwt beam="2">  1       -2 0.39766720E-02 0.80242854E+02</pdfrwt>
<totfact> 0.13504512E+05</totfact>
</mgrwt>
</event>
<event>
 8    1  0.1319619E-024  0.8574239E+02  0.7818608E-02  0.1313502E+00
         -2   -1    0    0    0  501 -0.00000000000E+00  0.00000000000E+00  0.36221368512E+03  0.36221368513E+03  0.25500000000E-02 0.  1.
          1   -1    0    0  501    0  0.00000000000E+00 -0.00000000000E+00 -0.50741842718E+01  0.50741867748E+01  0.50400000000E-02 0. -1.
        -24    2    1    2    0    0  0.00000000000E+00  0.00000000000E+00  0.35713950085E+03  0.36728787190E+03  0.85742391974E+02 0.  0.
         66    2    3    3    0    0 -0.14978493580E+02 -0.85876365929E+01  0.34664965805E+03  0.34708513104E+03  0.19999991352E+01 0.  0.
         13    1    3    3    0    0  0.14978493580E+02  0.85876365929E+01  0.10489842802E+02  0.20202740859E+02  0.10566000000E+00 0. -1.
         13    1    4    4    0    0 -0.31450693836E+01 -0.13159748859E+01  0.79019171614E+02  0.79092755028E+02  0.10566000000E+00 0. -1.
        -13    1    4    4    0    0 -0.73217856405E+01 -0.39591854755E+01  0.15839587622E+03  0.15861446486E+03  0.10566000000E+00 0.  1.
        -14    1    4    4    0    0 -0.45116385560E+01 -0.33124762315E+01  0.10923461021E+03  0.10937791116E+03  0.00000000000E+00 0.  1.
<mgrwt>
<rscale>  0 0.85742392E+02</rscale>
<asrwt>0</asrwt>
<pdfrwt beam="1">  1        1 0.78064412E-03 0.85742392E+02</pdfrwt>
<pdfrwt beam="2">  1       -2 0.55725169E-01 0.85742392E+02</pdfrwt>
<totfact> 0.52622891E+04</totfact>
</mgrwt>
</event>
<event>
 8    1  0.1319619E-024  0.8145270E+02  0.7818608E-02  0.1324979E+00
         -2   -1    0    0    0  501 -0.00000000000E+00  0.00000000000E+00  0.86675657167E+01  0.86675660918E+01  0.25500000000E-02 0.  1.
          1   -1    0    0  501    0  0.00000000000E+00 -0.00000000000E+00 -0.19136119319E+03  0.19136119325E+03  0.50400000000E-02 0. -1.
        -24    2    1    2    0    0 -0.71054273576E-14  0.00000000000E+00 -0.18269362747E+03  0.20002875935E+03  0.81452704356E+02 0.  0.
         66    2    3    3    0    0 -0.40241929293E+02  0.48958008454E+01 -0.82462935297E+02  0.91910377204E+02  0.20000002471E+01 0.  0.
         13    1    3    3    0    0  0.40241929293E+02 -0.48958008454E+01 -0.10023069217E+03  0.10811838214E+03  0.10566000000E+00 0. -1.
         13    1    4    4    0    0 -0.80221484636E+01  0.16307810692E+01 -0.16339725032E+02  0.18275997675E+02  0.10566000000E+00 0. -1.
        -13    1    4    4    0    0 -0.11248036476E+02  0.15906979337E+01 -0.22937309147E+02  0.25596483341E+02  0.10566000000E+00 0.  1.
         14    1    4    4    0    0 -0.20971744353E+02  0.16743218424E+01 -0.43185901118E+02  0.48037896188E+02  0.00000000000E+00 0. -1.
<mgrwt>
<rscale>  0 0.81452704E+02</rscale>
<asrwt>0</asrwt>
<pdfrwt beam="1">  1        1 0.29440181E-01 0.81452704E+02</pdfrwt>
<pdfrwt beam="2">  1       -2 0.13334718E-02 0.81452704E+02</pdfrwt>
<totfact> 0.15759224E+05</totfact>
</mgrwt>
</event>
<event>
 8    1  0.1319619E-024  0.7814371E+02  0.7818608E-02  0.1334403E+00
         -2   -1    0    0    0  501 -0.00000000000E+00  0.00000000000E+00  0.15155208675E+02  0.15155208890E+02  0.25500000000E-02 0.  1.
          1   -1    0    0  501    0  0.00000000000E+00 -0.00000000000E+00 -0.10073168310E+03  0.10073168323E+03  0.50400000000E-02 0. -1.
        -24    2    1    2    0    0  0.88817841970E-15  0.71054273576E-14 -0.85576474429E+02  0.11588689212E+03  0.78143706014E+02 0.  0.
         66    2    3    3    0    0 -0.54525536027E+01 -0.38440021155E+02 -0.36658764307E+02  0.53434357385E+02  0.19999953658E+01 0.  0.
         13    1    3    3    0    0  0.54525536027E+01  0.38440021155E+02 -0.48917710122E+02  0.62452534735E+02  0.10566000000E+00 0. -1.
         13    1    4    4    0    0 -0.15698734837E+01 -0.80171861123E+01 -0.78955311533E+01  0.11361793527E+02  0.10566000000E+00 0.  1.
        -13    1    4    4    0    0 -0.69551208483E+00 -0.10686472764E+02 -0.10315614282E+02  0.14869683899E+02  0.10566000000E+00 0.  1.
        -14    1    4    4    0    0 -0.31871680342E+01 -0.19736362279E+02 -0.18447618872E+02  0.27202879960E+02  0.00000000000E+00 0.  1.
<mgrwt>
<rscale>  0 0.78143706E+02</rscale>
<asrwt>0</asrwt>
<pdfrwt beam="1">  1        1 0.15497182E-01 0.78143706E+02</pdfrwt>
<pdfrwt beam="2">  1       -2 0.23315706E-02 0.78143706E+02</pdfrwt>
<totfact> 0.15679469E+05</totfact>
</mgrwt>
</event>
<event>
 8    1  0.1319619E-024  0.8047861E+02  0.7818608E-02  0.1327699E+00
          1   -1    0    0  501    0  0.00000000000E+00  0.00000000000E+00  0.55295072038E+02  0.55295072268E+02  0.50400000000E-02 0. -1.
         -2   -1    0    0    0  501 -0.00000000000E+00 -0.00000000000E+00 -0.29282927361E+02  0.29282927472E+02  0.25500000000E-02 0.  1.
        -24    2    1    2    0    0  0.00000000000E+00  0.00000000000E+00  0.26012144677E+02  0.84577999740E+02  0.80478608147E+02 0.  0.
         66    2    3    3    0    0 -0.20735607392E+02 -0.18407040772E+02 -0.17597118761E+02  0.32900503810E+02  0.19999995898E+01 0.  0.
         13    1    3    3    0    0  0.20735607392E+02  0.18407040772E+02  0.43609263438E+02  0.51677495930E+02  0.10566000000E+00 0. -1.
         13    1    4    4    0    0 -0.90193627401E+01 -0.77620078241E+01 -0.76919479554E+01  0.14169505887E+02  0.10566000000E+00 0. -1.
        -13    1    4    4    0    0 -0.51686465604E+01 -0.38031605458E+01 -0.43235145147E+01  0.77384028842E+01  0.10566000000E+00 0.  1.
         14    1    4    4    0    0 -0.65475980917E+01 -0.68418724022E+01 -0.55816562909E+01  0.10992595039E+02  0.00000000000E+00 0. -1.
<mgrwt>
<rscale>  0 0.80478608E+02</rscale>
<asrwt>0</asrwt>
<pdfrwt beam="1">  1        1 0.85069341E-02 0.80478608E+02</pdfrwt>
<pdfrwt beam="2">  1       -2 0.45050658E-02 0.80478608E+02</pdfrwt>
<totfact> 0.13147552E+05</totfact>
</mgrwt>
</event>
<event>
 8    1  0.1328917E-024  0.7509487E+02  0.7818608E-02  0.1343578E+00
          1   -1    0    0  501    0  0.00000000000E+00  0.00000000000E+00  0.86963275300E+02  0.86963275446E+02  0.50400000000E-02 0. -1.
         -2   -1    0    0    0  501 -0.00000000000E+00 -0.00000000000E+00 -0.16211553162E+02  0.16211553363E+02  0.25500000000E-02 0.  1.
        -24    2    1    2    0    0 -0.17763568394E-14  0.00000000000E+00  0.70751722138E+02  0.10317482881E+03  0.75094867429E+02 0.  0.
         66    2    3    3    0    0 -0.11365907692E+02 -0.16591552628E+02 -0.81190149146E+01  0.21780309315E+02  0.19999986039E+01 0.  0.
         13    1    3    3    0    0  0.11365907692E+02  0.16591552628E+02  0.78870737052E+02  0.81394519493E+02  0.10566000000E+00 0. -1.
         13    1    4    4    0    0 -0.12381134413E+01 -0.21974727361E+01 -0.60021730854E+00  0.25948480057E+01  0.10566000000E+00 0. -1.
        -13    1    4    4    0    0 -0.21446063810E+00 -0.61920638576E+00 -0.13385395083E+00  0.67711950881E+00  0.10566000000E+00 0. -1.
        -14    1    4    4    0    0 -0.99133336128E+01 -0.13774873506E+02 -0.73849436552E+01  0.18508341801E+02  0.00000000000E+00 0.  1.
<mgrwt>
<rscale>  0 0.75094867E+02</rscale>
<asrwt>0</asrwt>
<pdfrwt beam="1">  1        1 0.13378966E-01 0.75094867E+02</pdfrwt>
<pdfrwt beam="2">  1       -2 0.24940851E-02 0.75094867E+02</pdfrwt>
<totfact> 0.17041753E+05</totfact>
</mgrwt>
</event>
<event>
 8    1  0.1319619E-024  0.8062218E+02  0.7818608E-02  0.1327295E+00
          1   -1    0    0  501    0  0.00000000000E+00  0.00000000000E+00  0.10004017423E+03  0.10004017436E+03  0.50400000000E-02 0. -1.
         -2   -1    0    0    0  501 -0.00000000000E+00 -0.00000000000E+00 -0.16243313695E+02  0.16243313895E+02  0.25500000000E-02 0.  1.
        -24    2    1    2    0    0  0.00000000000E+00  0.00000000000E+00  0.83796860535E+02  0.11628348825E+03  0.80622179358E+02 0.  0.
         66    2    3    3    0    0  0.21327999324E+02 -0.15604280881E+02 -0.19330571936E+01  0.26572802741E+02  0.19999995942E+01 0.  0.
         13    1    3    3    0    0 -0.21327999324E+02  0.15604280881E+02  0.85729917729E+02  0.89710685511E+02  0.10566000000E+00 0. -1.
         13    1    4    4    0    0  0.47599863568E+00 -0.24314410074E+00 -0.18628511996E+00  0.57581241426E+00  0.10566000000E+00 0. -1.
        -13    1    4    4    0    0  0.18735739067E+02 -0.14097554076E+02 -0.12367603431E+01  0.23479984870E+02  0.10566000000E+00 0.  1.
        -14    1    4    4    0    0  0.21162616211E+01 -0.12635827051E+01 -0.51001173053E+00  0.25170054563E+01  0.00000000000E+00 0.  1.
<mgrwt>
<rscale>  0 0.80622179E+02</rscale>
<asrwt>0</asrwt>
<pdfrwt beam="1">  1        1 0.15390796E-01 0.80622179E+02</pdfrwt>
<pdfrwt beam="2">  1       -2 0.24989714E-02 0.80622179E+02</pdfrwt>
<totfact> 0.14395377E+05</totfact>
</mgrwt>
</event>
<event>
 8    1  0.1319619E-024  0.8279553E+02  0.7818608E-02  0.1321300E+00
          1   -1    0    0  501    0  0.00000000000E+00  0.00000000000E+00  0.44010456087E+01  0.44010484946E+01  0.50400000000E-02 0. -1.
         -2   -1    0    0    0  501 -0.00000000000E+00 -0.00000000000E+00 -0.38940160131E+03  0.38940160132E+03  0.25500000000E-02 0.  1.
        -24    2    1    2    0    0  0.00000000000E+00  0.00000000000E+00 -0.38500055570E+03  0.39380264981E+03  0.82795525901E+02 0.  0.
         66    2    3    3    0    0  0.83094337790E+01 -0.19341851311E+02 -0.36202142883E+03  0.36263848229E+03  0.19999999320E+01 0.  0.
         13    1    3    3    0    0 -0.83094337790E+01  0.19341851311E+02 -0.22979126867E+02  0.31164167524E+02  0.10566000000E+00 0. -1.
         13    1    4    4    0    0  0.31457071652E+01 -0.68892802656E+01 -0.12166236242E+03  0.12189790503E+03  0.10566000000E+00 0. -1.
        -13    1    4    4    0    0  0.32459822466E+01 -0.81552574498E+01 -0.14499521358E+03  0.14526068894E+03  0.10566000000E+00 0.  1.
         14    1    4    4    0    0  0.19177443672E+01 -0.42973135955E+01 -0.95363852830E+02  0.95479888323E+02  0.00000000000E+00 0. -1.
<mgrwt>
<rscale>  0 0.82795526E+02</rscale>
<asrwt>0</asrwt>
<pdfrwt beam="1">  1        1 0.67708447E-03 0.82795526E+02</pdfrwt>
<pdfrwt beam="2">  1       -2 0.59907912E-01 0.82795526E+02</pdfrwt>
<totfact> 0.55030294E+04</totfact>
</mgrwt>
</event>
<event>
 8    1  0.1319619E-024  0.7925038E+02  0.7818608E-02  0.1331192E+00
          1   -1    0    0  501    0  0.00000000000E+00  0.00000000000E+00  0.59822204334E+01  0.59822225565E+01  0.50400000000E-02 0. -1.
         -2   -1    0    0    0  501 -0.00000000000E+00 -0.00000000000E+00 -0.26247035147E+03  0.26247035148E+03  0.25500000000E-02 0.  1.
        -24    2    1    2    0    0 -0.88817841970E-15  0.00000000000E+00 -0.25648813104E+03  0.26845257404E+03  0.79250382621E+02 0.  0.
         66    2    3    3    0    0  0.74940235588E+01  0.73579356939E+01 -0.25766252110E+03  0.25788422683E+03  0.20000150013E+01 0.  0.
         13    1    3    3    0    0 -0.74940235588E+01 -0.73579356939E+01  0.11743900613E+01  0.10568347214E+02  0.10566000000E+00 0. -1.
         13    1    4    4    0    0  0.24999358389E+00  0.77706479314E-01 -0.13377682010E+02  0.13380660488E+02  0.10566000000E+00 0. -1.
        -13    1    4    4    0    0  0.12542811346E+01  0.19041393140E+01 -0.49935229689E+02  0.49987371363E+02  0.10566000000E+00 0.  1.
        -14    1    4    4    0    0  0.59897488403E+01  0.53760899006E+01 -0.19434960940E+03  0.19451619498E+03  0.00000000000E+00 0.  1.
<mgrwt>
<rscale>  0 0.79250383E+02</rscale>
<asrwt>0</asrwt>
<pdfrwt beam="1">  1        1 0.92034198E-03 0.79250383E+02</pdfrwt>
<pdfrwt beam="2">  1       -2 0.40380045E-01 0.79250383E+02</pdfrwt>
<totfact> 0.77167304E+04</totfact>
</mgrwt>
</event>
<event>
 8    1  0.1319619E-024  0.6995412E+02  0.7818608E-02  0.1360249E+00
         -2   -1    0    0    0  501 -0.00000000000E+00  0.00000000000E+00  0.17002204571E+02  0.17002204762E+02  0.25500000000E-02 0.  1.
          1   -1    0    0  501    0  0.00000000000E+00 -0.00000000000E+00 -0.71955057477E+02  0.71955057653E+02  0.50400000000E-02 0. -1.
        -24    2    1    2    0    0 -0.35527136788E-14  0.88817841970E-15 -0.54952852906E+02  0.88957262416E+02  0.69954117063E+02 0.  0.
         66    2    3    3    0    0  0.18060782481E+02 -0.71163090641E+01  0.94569585724E+01  0.21685658472E+02  0.19999998437E+01 0.  0.
         13    1    3    3    0    0 -0.18060782481E+02  0.71163090641E+01 -0.64409811478E+02  0.67271603944E+02  0.10566000000E+00 0. -1.
         13    1    4    4    0    0  0.11187572125E+01 -0.64354254209E+00  0.30678311879E+00  0.13308060045E+01  0.10566000000E+00 0. -1.
        -13    1    4    4    0    0  0.50704754210E+00 -0.25878461372E+00  0.89926400647E-01  0.58593299906E+00  0.10566000000E+00 0.  1.
        -14    1    4    4    0    0  0.16434977727E+02 -0.62139819083E+01  0.90602490530E+01  0.19768919468E+02  0.00000000000E+00 0.  1.
<mgrwt>
<rscale>  0 0.69954117E+02</rscale>
<asrwt>0</asrwt>
<pdfrwt beam="1">  1        1 0.11070009E-01 0.69954117E+02</pdfrwt>
<pdfrwt beam="2">  1       -2 0.26157238E-02 0.69954117E+02</pdfrwt>
<totfact> 0.20028095E+05</totfact>
</mgrwt>
</event>
<event>
 8    1  0.1319619E-024  0.8019130E+02  0.7818608E-02  0.1328509E+00
          1   -1    0    0  501    0  0.00000000000E+00  0.00000000000E+00  0.12271260012E+03  0.12271260022E+03  0.50400000000E-02 0. -1.
         -2   -1    0    0    0  501 -0.00000000000E+00 -0.00000000000E+00 -0.13101028256E+02  0.13101028504E+02  0.25500000000E-02 0.  1.
        -24    2    1    2    0    0  0.00000000000E+00  0.71054273576E-14  0.10961157186E+03  0.13581362873E+03  0.80191302905E+02 0.  0.
         66    2    3    3    0    0 -0.25104650937E+02 -0.29088911386E+02  0.35585466508E+02  0.52409290096E+02  0.19999993619E+01 0.  0.
         13    1    3    3    0    0  0.25104650937E+02  0.29088911386E+02  0.74026105355E+02  0.83404338630E+02  0.10566000000E+00 0. -1.
         13    1    4    4    0    0 -0.35066062483E+01 -0.48334447869E+01  0.61643656539E+01  0.85830672745E+01  0.10566000000E+00 0. -1.
        -13    1    4    4    0    0 -0.20110127079E+02 -0.22473914093E+02  0.27485912157E+02  0.40804173278E+02  0.10566000000E+00 0.  1.
         14    1    4    4    0    0 -0.14879176098E+01 -0.17815525065E+01  0.19351886967E+01  0.30220495427E+01  0.00000000000E+00 0. -1.
<mgrwt>
<rscale>  0 0.80191303E+02</rscale>
<asrwt>0</asrwt>
<pdfrwt beam="1">  1        1 0.18878862E-01 0.80191303E+02</pdfrwt>
<pdfrwt beam="2">  1       -2 0.20155428E-02 0.80191303E+02</pdfrwt>
<totfact> 0.15128757E+05</totfact>
</mgrwt>
</event>
<event>
 8    1  0.1319619E-024  0.8005547E+02  0.7818608E-02  0.1328894E+00
         -2   -1    0    0    0  501 -0.00000000000E+00  0.00000000000E+00  0.29702126024E+02  0.29702126134E+02  0.25500000000E-02 0.  1.
          1   -1    0    0  501    0  0.00000000000E+00 -0.00000000000E+00 -0.53942924519E+02  0.53942924755E+02  0.50400000000E-02 0. -1.
        -24    2    1    2    0    0  0.71054273576E-14  0.88817841970E-15 -0.24240798495E+02  0.83645050888E+02  0.80055469685E+02 0.  0.
         66    2    3    3    0    0  0.35084205266E+02  0.70052242789E+01 -0.30825592066E+02  0.47267237640E+02  0.20000003982E+01 0.  0.
         13    1    3    3    0    0 -0.35084205266E+02 -0.70052242789E+01  0.65847935715E+01  0.36377813248E+02  0.10566000000E+00 0. -1.
         13    1    4    4    0    0  0.67714258819E+01  0.11264885631E+01 -0.50184434294E+01  0.85039475213E+01  0.10566000000E+00 0. -1.
        -13    1    4    4    0    0  0.26095467375E+02  0.52763154978E+01 -0.23887826128E+02  0.35769432815E+02  0.10566000000E+00 0.  1.
        -14    1    4    4    0    0  0.22173120084E+01  0.60242021800E+00 -0.19193225087E+01  0.29938573035E+01  0.00000000000E+00 0.  1.
<mgrwt>
<rscale>  0 0.80055470E+02</rscale>
<asrwt>0</asrwt>
<pdfrwt beam="1">  1        1 0.82989115E-02 0.80055470E+02</pdfrwt>
<pdfrwt beam="2">  1       -2 0.45695579E-02 0.80055470E+02</pdfrwt>
<totfact> 0.13289215E+05</totfact>
</mgrwt>
</event>
<event>
 8    1  0.1319619E-024  0.7417368E+02  0.7818608E-02  0.1346449E+00
          1   -1    0    0  501    0  0.00000000000E+00  0.00000000000E+00  0.47922568029E+02  0.47922568295E+02  0.50400000000E-02 0. -1.
         -2   -1    0    0    0  501 -0.00000000000E+00 -0.00000000000E+00 -0.28701168601E+02  0.28701168714E+02  0.25500000000E-02 0.  1.
        -24    2    1    2    0    0  0.00000000000E+00  0.17763568394E-14  0.19221399428E+02  0.76623737009E+02  0.74173680489E+02 0.  0.
         66    2    3    3    0    0  0.78883364517E+01 -0.95310795107E+01 -0.26469911949E+02  0.29286918062E+02  0.20000005967E+01 0.  0.
         13    1    3    3    0    0 -0.78883364517E+01  0.95310795107E+01  0.45691311377E+02  0.47336818947E+02  0.10566000000E+00 0. -1.
         13    1    4    4    0    0  0.90051917488E+00 -0.46760529629E+00 -0.22190010833E+01  0.24422774905E+01  0.10566000000E+00 0. -1.
        -13    1    4    4    0    0  0.26823080971E+01 -0.42584421811E+01 -0.97343958279E+01  0.10958956734E+02  0.10566000000E+00 0.  1.
         14    1    4    4    0    0  0.43055091797E+01 -0.48050320333E+01 -0.14516515037E+02  0.15885683837E+02  0.00000000000E+00 0. -1.
<mgrwt>
<rscale>  0 0.74173680E+02</rscale>
<asrwt>0</asrwt>
<pdfrwt beam="1">  1        1 0.73727028E-02 0.74173680E+02</pdfrwt>
<pdfrwt beam="2">  1       -2 0.44155644E-02 0.74173680E+02</pdfrwt>
<totfact> 0.16112948E+05</totfact>
</mgrwt>
</event>
<event>
 8    1  0.1618459E-024  0.7460907E+02  0.7818608E-02  0.1345086E+00
         -2   -1    0    0    0  501 -0.00000000000E+00  0.00000000000E+00  0.16134866838E+02  0.16134867040E+02  0.25500000000E-02 0.  1.
          1   -1    0    0  501    0  0.00000000000E+00 -0.00000000000E+00 -0.86249762105E+02  0.86249762252E+02  0.50400000000E-02 0. -1.
        -24    2    1    2    0    0  0.00000000000E+00 -0.44408920985E-15 -0.70114895266E+02  0.10238462929E+03  0.74609073021E+02 0.  0.
         66    2    3    3    0    0 -0.18265522160E+02  0.38385932580E+01  0.91989594166E+01  0.20904184971E+02  0.19999992459E+01 0.  0.
         13    1    3    3    0    0  0.18265522160E+02 -0.38385932580E+01 -0.79313854683E+02  0.81480444320E+02  0.10566000000E+00 0. -1.
         13    1    4    4    0    0 -0.95581218850E+00  0.74598221995E-01  0.84035415379E+00  0.12792579778E+01  0.10566000000E+00 0. -1.
        -13    1    4    4    0    0 -0.10254146428E+02  0.18391510034E+01  0.54129952200E+01  0.11740599502E+02  0.10566000000E+00 0.  1.
        -14    1    4    4    0    0 -0.70555635430E+01  0.19248440327E+01  0.29456100428E+01  0.78843274909E+01  0.00000000000E+00 0.  1.
<mgrwt>
<rscale>  0 0.74609073E+02</rscale>
<asrwt>0</asrwt>
<pdfrwt beam="1">  1        1 0.13269194E-01 0.74609073E+02</pdfrwt>
<pdfrwt beam="2">  1       -2 0.24822873E-02 0.74609073E+02</pdfrwt>
<totfact> 0.17318897E+05</totfact>
</mgrwt>
</event>
<event>
 8    1  0.1319619E-024  0.7948532E+02  0.7818608E-02  0.1330518E+00
          1   -1    0    0  501    0  0.00000000000E+00  0.00000000000E+00  0.55854857931E+01  0.55854880670E+01  0.50400000000E-02 0. -1.
         -2   -1    0    0    0  501 -0.00000000000E+00 -0.00000000000E+00 -0.28278268500E+03  0.28278268501E+03  0.25500000000E-02 0.  1.
        -24    2    1    2    0    0  0.00000000000E+00  0.00000000000E+00 -0.27719719920E+03  0.28836817308E+03  0.79485319377E+02 0.  0.
         66    2    3    3    0    0  0.15695299036E+02  0.35128392642E+02 -0.17444070024E+03  0.17864463128E+03  0.20000006162E+01 0.  0.
         13    1    3    3    0    0 -0.15695299036E+02 -0.35128392642E+02 -0.10275649896E+03  0.10972354180E+03  0.10566000000E+00 0. -1.
         13    1    4    4    0    0  0.29969583832E+01  0.60076634715E+01 -0.32905205318E+02  0.33583291694E+02  0.10566000000E+00 0. -1.
        -13    1    4    4    0    0  0.91943699543E+00  0.22947927692E+01 -0.98515026262E+01  0.10157495079E+02  0.10566000000E+00 0.  1.
        -14    1    4    4    0    0  0.11778903657E+02  0.26825936401E+02 -0.13168399230E+03  0.13490384450E+03  0.00000000000E+00 0.  1.
<mgrwt>
<rscale>  0 0.79485319E+02</rscale>
<asrwt>0</asrwt>
<pdfrwt beam="1">  1        1 0.85930590E-03 0.79485319E+02</pdfrwt>
<pdfrwt beam="2">  1       -2 0.43505017E-01 0.79485319E+02</pdfrwt>
<totfact> 0.73735821E+04</totfact>
</mgrwt>
</event>
<event>
 8    1  0.1319619E-024  0.8013903E+02  0.7818608E-02  0.1328657E+00
          1   -1    0    0  501    0  0.00000000000E+00  0.00000000000E+00  0.16256925558E+03  0.16256925566E+03  0.50400000000E-02 0. -1.
         -2   -1    0    0    0  501 -0.00000000000E+00 -0.00000000000E+00 -0.98761981017E+01  0.98761984309E+01  0.25500000000E-02 0.  1.
        -24    2    1    2    0    0  0.00000000000E+00  0.17763568394E-14  0.15269305748E+03  0.17244545409E+03  0.80139034395E+02 0.  0.
         66    2    3    3    0    0 -0.33866257554E+02 -0.15959042043E+02  0.45814744480E+02  0.59199706367E+02  0.19999996321E+01 0.  0.
         13    1    3    3    0    0  0.33866257554E+02  0.15959042043E+02  0.10687831300E+03  0.11324574772E+03  0.10566000000E+00 0. -1.
         13    1    4    4    0    0 -0.33367517278E+01 -0.13670903430E+01  0.53024444862E+01  0.64132620142E+01  0.10566000000E+00 0. -1.
        -13    1    4    4    0    0 -0.85618159946E+01 -0.42291979534E+01  0.11246028865E+02  0.14753817734E+02  0.10566000000E+00 0.  1.
         14    1    4    4    0    0 -0.21967689832E+02 -0.10362753747E+02  0.29266271129E+02  0.38032626619E+02  0.00000000000E+00 0. -1.
<mgrwt>
<rscale>  0 0.80139034E+02</rscale>
<asrwt>0</asrwt>
<pdfrwt beam="1">  1        1 0.25010654E-01 0.80139034E+02</pdfrwt>
<pdfrwt beam="2">  1       -2 0.15194152E-02 0.80139034E+02</pdfrwt>
<totfact> 0.15952446E+05</totfact>
</mgrwt>
</event>
<event>
 8    1  0.1319619E-024  0.8012478E+02  0.7818608E-02  0.1328698E+00
          1   -1    0    0  501    0  0.00000000000E+00  0.00000000000E+00  0.27959124415E+03  0.27959124420E+03  0.50400000000E-02 0. -1.
         -2   -1    0    0    0  501 -0.00000000000E+00 -0.00000000000E+00 -0.57405055461E+01  0.57405061125E+01  0.25500000000E-02 0.  1.
        -24    2    1    2    0    0  0.00000000000E+00  0.00000000000E+00  0.27385073861E+03  0.28533175031E+03  0.80124782058E+02 0.  0.
         66    2    3    3    0    0 -0.14293103381E+02  0.36687308047E+02  0.11114925251E+03  0.11793391245E+03  0.19999994680E+01 0.  0.
         13    1    3    3    0    0  0.14293103381E+02 -0.36687308047E+02  0.16270148610E+03  0.16739783786E+03  0.10566000000E+00 0. -1.
         13    1    4    4    0    0 -0.28254724234E+00  0.64522057074E+00  0.16057996331E+01  0.17566727146E+01  0.10566000000E+00 0. -1.
        -13    1    4    4    0    0 -0.12326649088E+02  0.31864057493E+02  0.98094110774E+02  0.10387362596E+03  0.10566000000E+00 0.  1.
        -14    1    4    4    0    0 -0.16839070504E+01  0.41780299827E+01  0.11449342101E+02  0.12303613779E+02  0.00000000000E+00 0.  1.
<mgrwt>
<rscale>  0 0.80124782E+02</rscale>
<asrwt>0</asrwt>
<pdfrwt beam="1">  1        1 0.43014021E-01 0.80124782E+02</pdfrwt>
<pdfrwt beam="2">  1       -2 0.88315509E-03 0.80124782E+02</pdfrwt>
<totfact> 0.17725997E+05</totfact>
</mgrwt>
</event>
<event>
 8    1  0.1319619E-024  0.8117540E+02  0.7818608E-02  0.1325749E+00
          1   -1    0    0  501    0  0.00000000000E+00  0.00000000000E+00  0.16518204026E+03  0.16518204034E+03  0.50400000000E-02 0. -1.
         -2   -1    0    0    0  501 -0.00000000000E+00 -0.00000000000E+00 -0.99730043085E+01  0.99730046345E+01  0.25500000000E-02 0.  1.
        -24    2    1    2    0    0 -0.88817841970E-15  0.00000000000E+00  0.15520903595E+03  0.17515504497E+03  0.81175396136E+02 0.  0.
         66    2    3    3    0    0  0.62717198329E+01 -0.35487212125E+02  0.37475896734E+02  0.52029986887E+02  0.20000013642E+01 0.  0.
         13    1    3    3    0    0 -0.62717198329E+01  0.35487212125E+02  0.11773313922E+03  0.12312505808E+03  0.10566000000E+00 0. -1.
         13    1    4    4    0    0  0.13026385155E+01 -0.77966756934E+01  0.89465180285E+01  0.11938859570E+02  0.10566000000E+00 0. -1.
        -13    1    4    4    0    0  0.20173519243E+01 -0.13082588647E+02  0.14282562517E+02  0.19473741052E+02  0.10566000000E+00 0.  1.
         14    1    4    4    0    0  0.29517293931E+01 -0.14607947784E+02  0.14246816188E+02  0.20617386265E+02  0.00000000000E+00 0. -1.
<mgrwt>
<rscale>  0 0.81175396E+02</rscale>
<asrwt>0</asrwt>
<pdfrwt beam="1">  1        1 0.25412620E-01 0.81175396E+02</pdfrwt>
<pdfrwt beam="2">  1       -2 0.15343085E-02 0.81175396E+02</pdfrwt>
<totfact> 0.15460940E+05</totfact>
</mgrwt>
</event>
<event>
 8    1  0.1319619E-024  0.8012950E+02  0.7818608E-02  0.1328684E+00
         -2   -1    0    0    0  501 -0.00000000000E+00  0.00000000000E+00  0.10058858949E+02  0.10058859273E+02  0.25500000000E-02 0.  1.
          1   -1    0    0  501    0  0.00000000000E+00 -0.00000000000E+00 -0.15957915167E+03  0.15957915175E+03  0.50400000000E-02 0. -1.
        -24    2    1    2    0    0  0.00000000000E+00  0.00000000000E+00 -0.14952029272E+03  0.16963801102E+03  0.80129500487E+02 0.  0.
         66    2    3    3    0    0 -0.17171315198E+02  0.19154591442E+02 -0.98498808062E+01  0.27618337852E+02  0.19999987271E+01 0.  0.
         13    1    3    3    0    0  0.17171315198E+02 -0.19154591442E+02 -0.13967041191E+03  0.14201967317E+03  0.10566000000E+00 0. -1.
         13    1    4    4    0    0 -0.12474474010E+01  0.16073247936E+01 -0.11250044145E+01  0.23273196984E+01  0.10566000000E+00 0. -1.
        -13    1    4    4    0    0 -0.15761977401E+02  0.17075313572E+02 -0.85773848580E+01  0.24770727890E+02  0.10566000000E+00 0.  1.
        -14    1    4    4    0    0 -0.16189039632E+00  0.47195307564E+00 -0.14749153363E+00  0.52029026371E+00  0.00000000000E+00 0.  1.
<mgrwt>
<rscale>  0 0.80129500E+02</rscale>
<asrwt>0</asrwt>
<pdfrwt beam="1">  1        1 0.24550637E-01 0.80129500E+02</pdfrwt>
<pdfrwt beam="2">  1       -2 0.15475169E-02 0.80129500E+02</pdfrwt>
<totfact> 0.15902158E+05</totfact>
</mgrwt>
</event>
<event>
 8    1  0.1319619E-024  0.8086750E+02  0.7818608E-02  0.1326607E+00
          1   -1    0    0  501    0  0.00000000000E+00  0.00000000000E+00  0.41115443387E+03  0.41115443390E+03  0.50400000000E-02 0. -1.
         -2   -1    0    0    0  501 -0.00000000000E+00 -0.00000000000E+00 -0.39763357568E+01  0.39763365745E+01  0.25500000000E-02 0.  1.
        -24    2    1    2    0    0 -0.35527136788E-14  0.35527136788E-14  0.40717809811E+03  0.41513077047E+03  0.80867502820E+02 0.  0.
         66    2    3    3    0    0  0.29554196181E+02 -0.23968552325E+02  0.27352486438E+03  0.27616624240E+03  0.19999983764E+01 0.  0.
         13    1    3    3    0    0 -0.29554196181E+02  0.23968552325E+02  0.13365323372E+03  0.13896452807E+03  0.10566000000E+00 0. -1.
         13    1    4    4    0    0  0.12438059237E+02 -0.94518047560E+01  0.11087126173E+03  0.11196646718E+03  0.10566000000E+00 0. -1.
        -13    1    4    4    0    0  0.11917991840E+02 -0.10625250181E+02  0.11242548329E+03  0.11355366541E+03  0.10566000000E+00 0.  1.
         14    1    4    4    0    0  0.51981451040E+01 -0.38914973877E+01  0.50228119365E+02  0.50646109815E+02  0.00000000000E+00 0. -1.
<mgrwt>
<rscale>  0 0.80867503E+02</rscale>
<asrwt>0</asrwt>
<pdfrwt beam="1">  1        1 0.63254481E-01 0.80867503E+02</pdfrwt>
<pdfrwt beam="2">  1       -2 0.61174449E-03 0.80867503E+02</pdfrwt>
<totfact> 0.18545042E+05</totfact>
</mgrwt>
</event>
<event>
 8    1  0.1319619E-024  0.7949837E+02  0.7818608E-02  0.1330481E+00
         -2   -1    0    0    0  501 -0.00000000000E+00  0.00000000000E+00  0.35193276165E+02  0.35193276257E+02  0.25500000000E-02 0.  1.
          1   -1    0    0  501    0  0.00000000000E+00 -0.00000000000E+00 -0.44894871627E+02  0.44894871910E+02  0.50400000000E-02 0. -1.
        -24    2    1    2    0    0  0.00000000000E+00  0.00000000000E+00 -0.97015954620E+01  0.80088148167E+02  0.79498368048E+02 0.  0.
         66    2    3    3    0    0  0.46161161053E+01 -0.17336000581E+02  0.30851245512E+02  0.35744157378E+02  0.19999982648E+01 0.  0.
         13    1    3    3    0    0 -0.46161161053E+01  0.17336000581E+02 -0.40552840973E+02  0.44343990789E+02  0.10566000000E+00 0. -1.
         13    1    4    4    0    0  0.17317681110E+01 -0.67818587582E+01  0.10389241108E+02  0.12527574539E+02  0.10566000000E+00 0. -1.
        -13    1    4    4    0    0  0.82501503848E+00 -0.25292854701E+01  0.43739871251E+01  0.51206310362E+01  0.10566000000E+00 0.  1.
         14    1    4    4    0    0  0.20593329557E+01 -0.80248563523E+01  0.16088017279E+02  0.18095951803E+02  0.00000000000E+00 0. -1.
<mgrwt>
<rscale>  0 0.79498368E+02</rscale>
<asrwt>0</asrwt>
<pdfrwt beam="1">  1        1 0.69069034E-02 0.79498368E+02</pdfrwt>
<pdfrwt beam="2">  1       -2 0.54143502E-02 0.79498368E+02</pdfrwt>
<totfact> 0.13164597E+05</totfact>
</mgrwt>
</event>
<event>
 8    1  0.1319619E-024  0.7747880E+02  0.7818608E-02  0.1336362E+00
         -2   -1    0    0    0  501 -0.00000000000E+00  0.00000000000E+00  0.10017412139E+03  0.10017412142E+03  0.25500000000E-02 0.  1.
          1   -1    0    0  501    0  0.00000000000E+00 -0.00000000000E+00 -0.14981326132E+02  0.14981326980E+02  0.50400000000E-02 0. -1.
        -24    2    1    2    0    0  0.17763568394E-14  0.00000000000E+00  0.85192795256E+02  0.11515544840E+03  0.77478803120E+02 0.  0.
         66    2    3    3    0    0 -0.13442760045E+02  0.34299091999E+02  0.24938504927E+02  0.44531612647E+02  0.19999968444E+01 0.  0.
         13    1    3    3    0    0  0.13442760045E+02 -0.34299091999E+02  0.60254290329E+02  0.70623835754E+02  0.10566000000E+00 0. -1.
         13    1    4    4    0    0 -0.29419141534E+01  0.82580374577E+01  0.66533828175E+01  0.11005848831E+02  0.10566000000E+00 0. -1.
        -13    1    4    4    0    0 -0.26877061564E+01  0.79862816472E+01  0.55732142805E+01  0.10103283644E+02  0.10566000000E+00 0.  1.
        -14    1    4    4    0    0 -0.78131397355E+01  0.18054772894E+02  0.12711907829E+02  0.23422480172E+02  0.00000000000E+00 0.  1.
<mgrwt>
<rscale>  0 0.77478803E+02</rscale>
<asrwt>0</asrwt>
<pdfrwt beam="1">  1        1 0.23048195E-02 0.77478803E+02</pdfrwt>
<pdfrwt beam="2">  1       -2 0.15411403E-01 0.77478803E+02</pdfrwt>
<totfact> 0.11513697E+05</totfact>
</mgrwt>
</event>
<event>
 8    1  0.1319619E-024  0.8375441E+02  0.7818608E-02  0.1318722E+00
         -2   -1    0    0    0  501 -0.00000000000E+00  0.00000000000E+00  0.90933460448E+01  0.90933464023E+01  0.25500000000E-02 0.  1.
          1   -1    0    0  501    0  0.00000000000E+00 -0.00000000000E+00 -0.19285531463E+03  0.19285531470E+03  0.50400000000E-02 0. -1.
        -24    2    1    2    0    0 -0.22204460493E-15  0.35527136788E-14 -0.18376196859E+03  0.20194866110E+03  0.83754406577E+02 0.  0.
         66    2    3    3    0    0 -0.10260328696E+01 -0.27718278321E+02 -0.16360676146E+02  0.32264956604E+02  0.20000010496E+01 0.  0.
         13    1    3    3    0    0  0.10260328696E+01  0.27718278321E+02 -0.16740129244E+03  0.16968370450E+03  0.10566000000E+00 0. -1.
         13    1    4    4    0    0 -0.11085902767E+01 -0.15462328309E+02 -0.83887568306E+01  0.17626541758E+02  0.10566000000E+00 0. -1.
        -13    1    4    4    0    0 -0.23887429229E+00 -0.91148236090E+01 -0.60101224105E+01  0.10921071640E+02  0.10566000000E+00 0.  1.
        -14    1    4    4    0    0  0.32143169933E+00 -0.31411264022E+01 -0.19617969049E+01  0.37173432056E+01  0.00000000000E+00 0.  1.
<mgrwt>
<rscale>  0 0.83754407E+02</rscale>
<asrwt>0</asrwt>
<pdfrwt beam="1">  1        1 0.29670045E-01 0.83754407E+02</pdfrwt>
<pdfrwt beam="2">  1       -2 0.13989765E-02 0.83754407E+02</pdfrwt>
<totfact> 0.14652782E+05</totfact>
</mgrwt>
</event>
<event>
 8    1  0.1319619E-024  0.7973637E+02  0.7818608E-02  0.1329801E+00
          1   -1    0    0  501    0  0.00000000000E+00  0.00000000000E+00  0.22579786762E+02  0.22579787325E+02  0.50400000000E-02 0. -1.
         -2   -1    0    0    0  501 -0.00000000000E+00 -0.00000000000E+00 -0.70393582936E+02  0.70393582982E+02  0.25500000000E-02 0.  1.
        -24    2    1    2    0    0 -0.11102230246E-15 -0.71054273576E-14 -0.47813796174E+02  0.92973370307E+02  0.79736368626E+02 0.  0.
         66    2    3    3    0    0  0.96693328801E+00  0.39728003443E+02 -0.27264491162E+02  0.48234859848E+02  0.20000021799E+01 0.  0.
         13    1    3    3    0    0 -0.96693328801E+00 -0.39728003443E+02 -0.20549305012E+02  0.44738510459E+02  0.10566000000E+00 0. -1.
         13    1    4    4    0    0  0.13194717546E+00  0.87410102931E+01 -0.57457905269E+01  0.10461737132E+02  0.10566000000E+00 0. -1.
        -13    1    4    4    0    0  0.80972865192E+00  0.30757048092E+02 -0.21143815647E+02  0.37332610035E+02  0.10566000000E+00 0.  1.
         14    1    4    4    0    0  0.25257460627E-01  0.22994505738E+00 -0.37488498730E+00  0.44051268135E+00  0.00000000000E+00 0. -1.
<mgrwt>
<rscale>  0 0.79736369E+02</rscale>
<asrwt>0</asrwt>
<pdfrwt beam="1">  1        1 0.34738134E-02 0.79736369E+02</pdfrwt>
<pdfrwt beam="2">  1       -2 0.10829782E-01 0.79736369E+02</pdfrwt>
<totfact> 0.11574826E+05</totfact>
</mgrwt>
</event>
<event>
 8    1  0.1319619E-024  0.7930908E+02  0.7818608E-02  0.1331024E+00
         -2   -1    0    0    0  501 -0.00000000000E+00  0.00000000000E+00  0.14810836010E+03  0.14810836012E+03  0.25500000000E-02 0.  1.
          1   -1    0    0  501    0  0.00000000000E+00 -0.00000000000E+00 -0.10617107363E+02  0.10617108559E+02  0.50400000000E-02 0. -1.
        -24    2    1    2    0    0 -0.17763568394E-14  0.00000000000E+00  0.13749125274E+03  0.15872546868E+03  0.79309077847E+02 0.  0.
         66    2    3    3    0    0  0.15322465709E+02  0.12970407438E+02  0.13717191961E+03  0.13864755639E+03  0.19999841684E+01 0.  0.
         13    1    3    3    0    0 -0.15322465709E+02 -0.12970407438E+02  0.31933312354E+00  0.20077912296E+02  0.10566000000E+00 0. -1.
         13    1    4    4    0    0  0.37131648158E+01  0.27920072261E+01  0.28749436422E+02  0.29122571244E+02  0.10566000000E+00 0.  1.
        -13    1    4    4    0    0  0.10463679265E+02  0.87867930760E+01  0.97955940770E+02  0.98904367004E+02  0.10566000000E+00 0.  1.
        -14    1    4    4    0    0  0.11456216280E+01  0.13916071354E+01  0.10466542423E+02  0.10620618138E+02  0.00000000000E+00 0.  1.
<mgrwt>
<rscale>  0 0.79309078E+02</rscale>
<asrwt>0</asrwt>
<pdfrwt beam="1">  1        1 0.16334012E-02 0.79309078E+02</pdfrwt>
<pdfrwt beam="2">  1       -2 0.22785902E-01 0.79309078E+02</pdfrwt>
<totfact> 0.97045053E+04</totfact>
</mgrwt>
</event>
<event>
 8    1  0.1337920E-024  0.7860154E+02  0.7818608E-02  0.1333068E+00
         -2   -1    0    0    0  501 -0.00000000000E+00  0.00000000000E+00  0.14716268127E+02  0.14716268348E+02  0.25500000000E-02 0.  1.
          1   -1    0    0  501    0  0.00000000000E+00 -0.00000000000E+00 -0.10495531880E+03  0.10495531892E+03  0.50400000000E-02 0. -1.
        -24    2    1    2    0    0  0.00000000000E+00 -0.17763568394E-14 -0.90239050675E+02  0.11967158727E+03  0.78601542818E+02 0.  0.
         66    2    3    3    0    0 -0.17440268338E+02  0.10134721503E+02  0.61594624266E+01  0.21185242878E+02  0.19999997010E+01 0.  0.
         13    1    3    3    0    0  0.17440268338E+02 -0.10134721503E+02 -0.96398513102E+02  0.98486344393E+02  0.10566000000E+00 0. -1.
         13    1    4    4    0    0 -0.21003853825E+01  0.16926878461E+01  0.12031865590E+01  0.29556103990E+01  0.10566000000E+00 0. -1.
        -13    1    4    4    0    0 -0.25800678174E+01  0.18553430709E+01  0.75469016489E+00  0.32679916055E+01  0.10566000000E+00 0.  1.
        -14    1    4    4    0    0 -0.12759815138E+02  0.65866905859E+01  0.42015857028E+01  0.14961640874E+02  0.00000000000E+00 0.  1.
<mgrwt>
<rscale>  0 0.78601543E+02</rscale>
<asrwt>0</asrwt>
<pdfrwt beam="1">  1        1 0.16146972E-01 0.78601543E+02</pdfrwt>
<pdfrwt beam="2">  1       -2 0.22640413E-02 0.78601543E+02</pdfrwt>
<totfact> 0.15541289E+05</totfact>
</mgrwt>
</event>
<event>
 8    1  0.1319619E-024  0.7775387E+02  0.7818608E-02  0.1335549E+00
         -2   -1    0    0    0  501 -0.00000000000E+00  0.00000000000E+00  0.16903598885E+02  0.16903599077E+02  0.25500000000E-02 0.  1.
          1   -1    0    0  501    0  0.00000000000E+00 -0.00000000000E+00 -0.89413871718E+02  0.89413871860E+02  0.50400000000E-02 0. -1.
        -24    2    1    2    0    0 -0.35527136788E-14  0.00000000000E+00 -0.72510272834E+02  0.10631747094E+03  0.77753874245E+02 0.  0.
         66    2    3    3    0    0  0.27653361594E+02 -0.12583848381E+01  0.99544858092E+00  0.27771979758E+02  0.20000004864E+01 0.  0.
         13    1    3    3    0    0 -0.27653361594E+02  0.12583848381E+01 -0.73505721415E+02  0.78545491179E+02  0.10566000000E+00 0. -1.
         13    1    4    4    0    0  0.82751566643E+01 -0.15002960407E+00 -0.40508701977E+00  0.82870975758E+01  0.10566000000E+00 0. -1.
        -13    1    4    4    0    0  0.19171107109E+02 -0.10458377414E+01  0.14740487327E+01  0.19256404339E+02  0.10566000000E+00 0.  1.
        -14    1    4    4    0    0  0.20709782099E+00 -0.62517492646E-01 -0.73513132011E-01  0.22847784340E+00  0.00000000000E+00 0.  1.
<mgrwt>
<rscale>  0 0.77753874E+02</rscale>
<asrwt>0</asrwt>
<pdfrwt beam="1">  1        1 0.13755980E-01 0.77753874E+02</pdfrwt>
<pdfrwt beam="2">  1       -2 0.26005537E-02 0.77753874E+02</pdfrwt>
<totfact> 0.15584649E+05</totfact>
</mgrwt>
</event>
<event>
 8    1  0.1319619E-024  0.7792569E+02  0.7818608E-02  0.1335043E+00
         -2   -1    0    0    0  501 -0.00000000000E+00  0.00000000000E+00  0.15042847807E+03  0.15042847809E+03  0.25500000000E-02 0.  1.
          1   -1    0    0  501    0  0.00000000000E+00 -0.00000000000E+00 -0.10091861026E+02  0.10091862284E+02  0.50400000000E-02 0. -1.
        -24    2    1    2    0    0  0.00000000000E+00 -0.35527136788E-14  0.14033661704E+03  0.16052034037E+03  0.77925692752E+02 0.  0.
         66    2    3    3    0    0 -0.21230652544E+02  0.24881419698E+02  0.11373046548E+03  0.11835727456E+03  0.20000025062E+01 0.  0.
         13    1    3    3    0    0  0.21230652544E+02 -0.24881419698E+02  0.26606151561E+02  0.42163065810E+02  0.10566000000E+00 0. -1.
         13    1    4    4    0    0 -0.22759907050E+01  0.26174469331E+01  0.14196509245E+02  0.14614485996E+02  0.10566000000E+00 0. -1.
        -13    1    4    4    0    0 -0.74921150101E+01  0.92945235554E+01  0.41286523757E+02  0.42977996270E+02  0.10566000000E+00 0.  1.
        -14    1    4    4    0    0 -0.11462546829E+02  0.12969449209E+02  0.58247432478E+02  0.60764792296E+02  0.00000000000E+00 0.  1.
<mgrwt>
<rscale>  0 0.77925693E+02</rscale>
<asrwt>0</asrwt>
<pdfrwt beam="1">  1        1 0.15525942E-02 0.77925693E+02</pdfrwt>
<pdfrwt beam="2">  1       -2 0.23142841E-01 0.77925693E+02</pdfrwt>
<totfact> 0.10102164E+05</totfact>
</mgrwt>
</event>
<event>
 8    1  0.1319619E-024  0.7910771E+02  0.7818608E-02  0.1331603E+00
          1   -1    0    0  501    0  0.00000000000E+00  0.00000000000E+00  0.19655115480E+03  0.19655115486E+03  0.50400000000E-02 0. -1.
         -2   -1    0    0    0  501 -0.00000000000E+00 -0.00000000000E+00 -0.79597977676E+01  0.79597981761E+01  0.25500000000E-02 0.  1.
        -24    2    1    2    0    0  0.17763568394E-14  0.00000000000E+00  0.18859135703E+03  0.20451095304E+03  0.79107711168E+02 0.  0.
         66    2    3    3    0    0  0.13279879860E+02  0.35009117240E+02  0.61603051484E+02  0.72117469783E+02  0.19999991865E+01 0.  0.
         13    1    3    3    0    0 -0.13279879860E+02 -0.35009117240E+02  0.12698830555E+03  0.13239348325E+03  0.10566000000E+00 0. -1.
         13    1    4    4    0    0  0.38737986724E+01  0.10193564147E+02  0.16690113810E+02  0.19937054175E+02  0.10566000000E+00 0. -1.
        -13    1    4    4    0    0  0.30401781850E+01  0.79160154096E+01  0.15409604806E+02  0.17589004169E+02  0.10566000000E+00 0.  1.
         14    1    4    4    0    0  0.63659030023E+01  0.16899537683E+02  0.29503332869E+02  0.34591411439E+02  0.00000000000E+00 0. -1.
<mgrwt>
<rscale>  0 0.79107711E+02</rscale>
<asrwt>0</asrwt>
<pdfrwt beam="1">  1        1 0.30238637E-01 0.79107711E+02</pdfrwt>
<pdfrwt beam="2">  1       -2 0.12245844E-02 0.79107711E+02</pdfrwt>
<totfact> 0.17119945E+05</totfact>
</mgrwt>
</event>
<event>
 8    1  0.1319619E-024  0.7959295E+02  0.7818608E-02  0.1330211E+00
         -2   -1    0    0    0  501 -0.00000000000E+00  0.00000000000E+00  0.54970772800E+02  0.54970772859E+02  0.25500000000E-02 0.  1.
          1   -1    0    0  501    0  0.00000000000E+00 -0.00000000000E+00 -0.28810938520E+02  0.28810938961E+02  0.50400000000E-02 0. -1.
        -24    2    1    2    0    0  0.71054273576E-14  0.00000000000E+00  0.26159834280E+02  0.83781711820E+02  0.79592953871E+02 0.  0.
         66    2    3    3    0    0 -0.38607155365E+02 -0.66146382532E+01  0.20342025276E+02  0.44182166996E+02  0.20000009008E+01 0.  0.
         13    1    3    3    0    0  0.38607155365E+02  0.66146382532E+01  0.58178090043E+01  0.39599544823E+02  0.10566000000E+00 0. -1.
         13    1    4    4    0    0 -0.11173931350E+02 -0.20651949328E+01  0.66730333445E+01  0.13178099634E+02  0.10566000000E+00 0. -1.
        -13    1    4    4    0    0 -0.20520069413E+02 -0.35267944054E+01  0.10721830960E+02  0.23419657356E+02  0.10566000000E+00 0.  1.
        -14    1    4    4    0    0 -0.69131546019E+01 -0.10226489150E+01  0.29471609718E+01  0.75844100065E+01  0.00000000000E+00 0.  1.
<mgrwt>
<rscale>  0 0.79592954E+02</rscale>
<asrwt>0</asrwt>
<pdfrwt beam="1">  1        1 0.44324522E-02 0.79592954E+02</pdfrwt>
<pdfrwt beam="2">  1       -2 0.84570419E-02 0.79592954E+02</pdfrwt>
<totfact> 0.12185621E+05</totfact>
</mgrwt>
</event>
<event>
 8    1  0.1319619E-024  0.7988949E+02  0.7818608E-02  0.1329365E+00
          1   -1    0    0  501    0  0.00000000000E+00  0.00000000000E+00  0.19350133628E+03  0.19350133634E+03  0.50400000000E-02 0. -1.
         -2   -1    0    0    0  501 -0.00000000000E+00 -0.00000000000E+00 -0.82458485889E+01  0.82458489832E+01  0.25500000000E-02 0.  1.
        -24    2    1    2    0    0 -0.35527136788E-14  0.00000000000E+00  0.18525548769E+03  0.20174718533E+03  0.79889492854E+02 0.  0.
         66    2    3    3    0    0  0.25470217568E+02 -0.15768019790E+02  0.26052594734E+02  0.39750473261E+02  0.20000002489E+01 0.  0.
         13    1    3    3    0    0 -0.25470217568E+02  0.15768019790E+02  0.15920289296E+03  0.16199671207E+03  0.10566000000E+00 0. -1.
         13    1    4    4    0    0  0.19987802546E+01 -0.17431970610E+01  0.26197499526E+01  0.37293581685E+01  0.10566000000E+00 0. -1.
        -13    1    4    4    0    0  0.10429526179E+02 -0.57674004846E+01  0.99604312729E+01  0.15532523293E+02  0.10566000000E+00 0.  1.
         14    1    4    4    0    0  0.13041911135E+02 -0.82574222442E+01  0.13472413509E+02  0.20488591800E+02  0.00000000000E+00 0. -1.
<mgrwt>
<rscale>  0 0.79889493E+02</rscale>
<asrwt>0</asrwt>
<pdfrwt beam="1">  1        1 0.29769434E-01 0.79889493E+02</pdfrwt>
<pdfrwt beam="2">  1       -2 0.12685922E-02 0.79889493E+02</pdfrwt>
<totfact> 0.16628496E+05</totfact>
</mgrwt>
</event>
<event>
 8    1  0.1319619E-024  0.7799772E+02  0.7818608E-02  0.1334832E+00
          1   -1    0    0  501    0  0.00000000000E+00  0.00000000000E+00  0.92857338588E+02  0.92857338725E+02  0.50400000000E-02 0. -1.
         -2   -1    0    0    0  501 -0.00000000000E+00 -0.00000000000E+00 -0.16379006520E+02  0.16379006719E+02  0.25500000000E-02 0.  1.
        -24    2    1    2    0    0 -0.35527136788E-14  0.00000000000E+00  0.76478332068E+02  0.10923634544E+03  0.77997717210E+02 0.  0.
         66    2    3    3    0    0 -0.24937876737E+02  0.14148586767E+02  0.12944131764E+01  0.28770743926E+02  0.19999992332E+01 0.  0.
         13    1    3    3    0    0  0.24937876737E+02 -0.14148586767E+02  0.75183918892E+02  0.80465601518E+02  0.10566000000E+00 0. -1.
         13    1    4    4    0    0 -0.11120055289E+01  0.90845901988E+00 -0.11150780015E+00  0.14441094530E+01  0.10566000000E+00 0.  1.
        -13    1    4    4    0    0 -0.53281839083E+01  0.23462338039E+01  0.35933334941E+00  0.58339216068E+01  0.10566000000E+00 0.  1.
         14    1    4    4    0    0 -0.18497687300E+02  0.10893893944E+02  0.10465876271E+01  0.21492712866E+02  0.00000000000E+00 0. -1.
<mgrwt>
<rscale>  0 0.77997717E+02</rscale>
<asrwt>0</asrwt>
<pdfrwt beam="1">  1        1 0.14285744E-01 0.77997717E+02</pdfrwt>
<pdfrwt beam="2">  1       -2 0.25198472E-02 0.77997717E+02</pdfrwt>
<totfact> 0.15548626E+05</totfact>
</mgrwt>
</event>
<event>
 8    1  0.1319619E-024  0.7998404E+02  0.7818608E-02  0.1329097E+00
         -2   -1    0    0    0  501 -0.00000000000E+00  0.00000000000E+00  0.10244428928E+02  0.10244429246E+02  0.25500000000E-02 0.  1.
          1   -1    0    0  501    0  0.00000000000E+00 -0.00000000000E+00 -0.15612012206E+03  0.15612012214E+03  0.50400000000E-02 0. -1.
        -24    2    1    2    0    0  0.71054273576E-14  0.35527136788E-14 -0.14587569313E+03  0.16636455139E+03  0.79984036605E+02 0.  0.
         66    2    3    3    0    0  0.32227245382E+02  0.23634321092E+02 -0.73866081874E+02  0.84008180923E+02  0.19999830811E+01 0.  0.
         13    1    3    3    0    0 -0.32227245382E+02 -0.23634321092E+02 -0.72009611257E+02  0.82356370463E+02  0.10566000000E+00 0. -1.
         13    1    4    4    0    0  0.53039638392E+00  0.60200463354E+00 -0.12261678589E+01  0.14691431369E+01  0.10566000000E+00 0. -1.
        -13    1    4    4    0    0  0.28633903616E+02  0.20680499404E+02 -0.64893620893E+02  0.73883534624E+02  0.10566000000E+00 0.  1.
        -14    1    4    4    0    0  0.30629453825E+01  0.23518170539E+01 -0.77462931220E+01  0.86555031629E+01  0.00000000000E+00 0.  1.
<mgrwt>
<rscale>  0 0.79984037E+02</rscale>
<asrwt>0</asrwt>
<pdfrwt beam="1">  1        1 0.24018479E-01 0.79984037E+02</pdfrwt>
<pdfrwt beam="2">  1       -2 0.15760661E-02 0.79984037E+02</pdfrwt>
<totfact> 0.15914322E+05</totfact>
</mgrwt>
</event>
<event>
 8    1  0.1319619E-024  0.8080729E+02  0.7818608E-02  0.1326776E+00
         -2   -1    0    0    0  501 -0.00000000000E+00  0.00000000000E+00  0.11701883263E+03  0.11701883266E+03  0.25500000000E-02 0.  1.
          1   -1    0    0  501    0  0.00000000000E+00 -0.00000000000E+00 -0.13950356572E+02  0.13950357483E+02  0.50400000000E-02 0. -1.
        -24    2    1    2    0    0  0.00000000000E+00 -0.35527136788E-14  0.10306847606E+03  0.13096919014E+03  0.80807289333E+02 0.  0.
         66    2    3    3    0    0 -0.28960894527E+02  0.24285674768E+02  0.74596599431E+02  0.83649148579E+02  0.20000001683E+01 0.  0.
         13    1    3    3    0    0  0.28960894527E+02 -0.24285674768E+02  0.28471876630E+02  0.47320041564E+02  0.10566000000E+00 0. -1.
         13    1    4    4    0    0 -0.71142566809E+00  0.84172057956E+00  0.26080362017E+01  0.28333084689E+01  0.10566000000E+00 0. -1.
        -13    1    4    4    0    0 -0.10980808887E+02  0.84338547564E+01  0.27200681617E+02  0.30522062747E+02  0.10566000000E+00 0.  1.
        -14    1    4    4    0    0 -0.17268659972E+02  0.15010099432E+02  0.44787881612E+02  0.50293777364E+02  0.00000000000E+00 0.  1.
<mgrwt>
<rscale>  0 0.80807289E+02</rscale>
<asrwt>0</asrwt>
<pdfrwt beam="1">  1        1 0.21462088E-02 0.80807289E+02</pdfrwt>
<pdfrwt beam="2">  1       -2 0.18002897E-01 0.80807289E+02</pdfrwt>
<totfact> 0.99263421E+04</totfact>
</mgrwt>
</event>
<event>
 8    1  0.1319619E-024  0.8042366E+02  0.7818608E-02  0.1327853E+00
          1   -1    0    0  501    0  0.00000000000E+00  0.00000000000E+00  0.10023200297E+02  0.10023201564E+02  0.50400000000E-02 0. -1.
         -2   -1    0    0    0  501 -0.00000000000E+00 -0.00000000000E+00 -0.16132483673E+03  0.16132483675E+03  0.25500000000E-02 0.  1.
        -24    2    1    2    0    0  0.00000000000E+00  0.17763568394E-14 -0.15130163644E+03  0.17134803832E+03  0.80423659748E+02 0.  0.
         66    2    3    3    0    0 -0.14664137254E+02  0.13458776817E+02 -0.15007871593E+03  0.15140606516E+03  0.19999995283E+01 0.  0.
         13    1    3    3    0    0  0.14664137254E+02 -0.13458776817E+02 -0.12229205091E+01  0.19941973158E+02  0.10566000000E+00 0. -1.
         13    1    4    4    0    0 -0.58419564637E+00  0.73617967274E+00 -0.86273842685E+01  0.86790649506E+01  0.10566000000E+00 0. -1.
        -13    1    4    4    0    0 -0.97061266519E+01  0.78134719513E+01 -0.94009677183E+02  0.94831902895E+02  0.10566000000E+00 0.  1.
        -14    1    4    4    0    0 -0.43738149560E+01  0.49091251931E+01 -0.47441654476E+02  0.47895097315E+02  0.00000000000E+00 0.  1.
<mgrwt>
<rscale>  0 0.80423660E+02</rscale>
<asrwt>0</asrwt>
<pdfrwt beam="1">  1        1 0.15420310E-02 0.80423660E+02</pdfrwt>
<pdfrwt beam="2">  1       -2 0.24819204E-01 0.80423660E+02</pdfrwt>
<totfact> 0.90972329E+04</totfact>
</mgrwt>
</event>
<event>
 8    1  0.1319619E-024  0.7995654E+02  0.7818608E-02  0.1329175E+00
         -2   -1    0    0    0  501 -0.00000000000E+00  0.00000000000E+00  0.76852413775E+01  0.76852418005E+01  0.25500000000E-02 0.  1.
          1   -1    0    0  501    0  0.00000000000E+00 -0.00000000000E+00 -0.20796511674E+03  0.20796511680E+03  0.50400000000E-02 0. -1.
        -24    2    1    2    0    0  0.00000000000E+00 -0.35527136788E-14 -0.20027987536E+03  0.21565035860E+03  0.79956542508E+02 0.  0.
         66    2    3    3    0    0  0.13047977728E+01 -0.30222907369E+02 -0.29812355329E+02  0.42519445193E+02  0.20000155545E+01 0.  0.
         13    1    3    3    0    0 -0.13047977728E+01  0.30222907369E+02 -0.17046752004E+03  0.17313091341E+03  0.10566000000E+00 0. -1.
         13    1    4    4    0    0  0.35672360979E-01 -0.81456213706E+00 -0.11218277296E+01  0.13908434430E+01  0.10566000000E+00 0. -1.
        -13    1    4    4    0    0  0.14979939943E+01 -0.24397057830E+02 -0.23413867979E+02  0.33847906797E+02  0.10566000000E+00 0.  1.
        -14    1    4    4    0    0 -0.22886858250E+00 -0.50112874027E+01 -0.52766596198E+01  0.72806949533E+01  0.00000000000E+00 0.  1.
<mgrwt>
<rscale>  0 0.79956543E+02</rscale>
<asrwt>0</asrwt>
<pdfrwt beam="1">  1        1 0.31994629E-01 0.79956543E+02</pdfrwt>
<pdfrwt beam="2">  1       -2 0.11823450E-02 0.79956543E+02</pdfrwt>
<totfact> 0.16825210E+05</totfact>
</mgrwt>
</event>
<event>
 8    1  0.1319619E-024  0.7891553E+02  0.7818608E-02  0.1332157E+00
         -2   -1    0    0    0  501 -0.00000000000E+00  0.00000000000E+00  0.29199285978E+01  0.29199297113E+01  0.25500000000E-02 0.  1.
          1   -1    0    0  501    0  0.00000000000E+00 -0.00000000000E+00 -0.53320312419E+03  0.53320312421E+03  0.50400000000E-02 0. -1.
        -24    2    1    2    0    0  0.71054273576E-14  0.00000000000E+00 -0.53028319559E+03  0.53612305392E+03  0.78915533468E+02 0.  0.
         66    2    3    3    0    0 -0.30017275925E+02 -0.23456044086E+02 -0.33448899103E+03  0.33665725595E+03  0.20000011873E+01 0.  0.
         13    1    3    3    0    0  0.30017275925E+02  0.23456044086E+02 -0.19579420456E+03  0.19946579798E+03  0.10566000000E+00 0. -1.
         13    1    4    4    0    0 -0.40868627031E+00 -0.34335031471E+00 -0.42127893142E+01  0.42477843339E+01  0.10566000000E+00 0. -1.
        -13    1    4    4    0    0 -0.39420435898E+01 -0.38185894478E+01 -0.48141896359E+02  0.48453840736E+02  0.10566000000E+00 0.  1.
        -14    1    4    4    0    0 -0.25666546065E+02 -0.19294104323E+02 -0.28213430535E+03  0.28395563088E+03  0.00000000000E+00 0.  1.
<mgrwt>
<rscale>  0 0.78915533E+02</rscale>
<asrwt>0</asrwt>
<pdfrwt beam="1">  1        1 0.82031173E-01 0.78915533E+02</pdfrwt>
<pdfrwt beam="2">  1       -2 0.44922029E-03 0.78915533E+02</pdfrwt>
<totfact> 0.20464666E+05</totfact>
</mgrwt>
</event>
<event>
 8    1  0.1319619E-024  0.7399421E+02  0.7818608E-02  0.1347014E+00
         -2   -1    0    0    0  501 -0.00000000000E+00  0.00000000000E+00  0.21146766772E+03  0.21146766773E+03  0.25500000000E-02 0.  1.
          1   -1    0    0  501    0  0.00000000000E+00 -0.00000000000E+00 -0.64727881263E+01  0.64727900885E+01  0.50400000000E-02 0. -1.
        -24    2    1    2    0    0  0.00000000000E+00  0.00000000000E+00  0.20499487959E+03  0.21794045782E+03  0.73994205832E+02 0.  0.
         66    2    3    3    0    0  0.12349174722E+02  0.32951330098E+02  0.13595871724E+03  0.14045307080E+03  0.20000078157E+01 0.  0.
         13    1    3    3    0    0 -0.12349174722E+02 -0.32951330098E+02  0.69036162349E+02  0.77487387022E+02  0.10566000000E+00 0. -1.
         13    1    4    4    0    0  0.59922752006E+01  0.16569366261E+02  0.64832583719E+02  0.67184271494E+02  0.10566000000E+00 0. -1.
        -13    1    4    4    0    0  0.31961104254E+01  0.71842921423E+01  0.31784135429E+02  0.32742504554E+02  0.10566000000E+00 0.  1.
         14    1    4    4    0    0  0.31607890956E+01  0.91976716949E+01  0.39341998092E+02  0.40526294750E+02  0.00000000000E+00 0. -1.
<mgrwt>
<rscale>  0 0.73994206E+02</rscale>
<asrwt>0</asrwt>
<pdfrwt beam="1">  1        1 0.99581369E-03 0.73994206E+02</pdfrwt>
<pdfrwt beam="2">  1       -2 0.32533488E-01 0.73994206E+02</pdfrwt>
<totfact> 0.10161971E+05</totfact>
</mgrwt>
</event>
<event>
 8    1  0.1319619E-024  0.8114392E+02  0.7818608E-02  0.1325836E+00
          1   -1    0    0  501    0  0.00000000000E+00  0.00000000000E+00  0.48193715002E+02  0.48193715265E+02  0.50400000000E-02 0. -1.
         -2   -1    0    0    0  501 -0.00000000000E+00 -0.00000000000E+00 -0.34155569807E+02  0.34155569902E+02  0.25500000000E-02 0.  1.
        -24    2    1    2    0    0  0.00000000000E+00  0.00000000000E+00  0.14038145195E+02  0.82349285167E+02  0.81143916882E+02 0.  0.
         66    2    3    3    0    0  0.66673259163E+01 -0.23684535476E+02 -0.25683796373E+02  0.35623978732E+02  0.20000022496E+01 0.  0.
         13    1    3    3    0    0 -0.66673259163E+01  0.23684535476E+02  0.39721941567E+02  0.46725306435E+02  0.10566000000E+00 0. -1.
         13    1    4    4    0    0  0.11903834473E+01 -0.25756431093E+01 -0.24962965785E+01  0.37806891993E+01  0.10566000000E+00 0. -1.
        -13    1    4    4    0    0  0.45943471621E+01 -0.16865963552E+02 -0.18180089281E+02  0.25220935008E+02  0.10566000000E+00 0.  1.
         14    1    4    4    0    0  0.88259530694E+00 -0.42429288144E+01 -0.50074105129E+01  0.66223545242E+01  0.00000000000E+00 0. -1.
<mgrwt>
<rscale>  0 0.81143917E+02</rscale>
<asrwt>0</asrwt>
<pdfrwt beam="1">  1        1 0.74144177E-02 0.81143917E+02</pdfrwt>
<pdfrwt beam="2">  1       -2 0.52547031E-02 0.81143917E+02</pdfrwt>
<totfact> 0.12572969E+05</totfact>
</mgrwt>
</event>
<event>
 8    1  0.1319619E-024  0.8025638E+02  0.7818608E-02  0.1328325E+00
         -2   -1    0    0    0  501 -0.00000000000E+00  0.00000000000E+00  0.39710178710E+01  0.39710186898E+01  0.25500000000E-02 0.  1.
          1   -1    0    0  501    0  0.00000000000E+00 -0.00000000000E+00 -0.40550601854E+03  0.40550601857E+03  0.50400000000E-02 0. -1.
        -24    2    1    2    0    0  0.00000000000E+00  0.00000000000E+00 -0.40153500067E+03  0.40947703726E+03  0.80256384680E+02 0.  0.
         66    2    3    3    0    0  0.38208677356E+02 -0.99221366998E+01 -0.23693854001E+03  0.24021287139E+03  0.20000045787E+01 0.  0.
         13    1    3    3    0    0 -0.38208677356E+02  0.99221366998E+01 -0.16459646066E+03  0.16926416587E+03  0.10566000000E+00 0. -1.
         13    1    4    4    0    0  0.11130286986E+02 -0.32269806233E+01 -0.66849684795E+02  0.67846799582E+02  0.10566000000E+00 0. -1.
        -13    1    4    4    0    0  0.19773403018E+02 -0.45119897413E+01 -0.12069341290E+03  0.12238568789E+03  0.10566000000E+00 0.  1.
        -14    1    4    4    0    0  0.73049873509E+01 -0.21831663352E+01 -0.49395442309E+02  0.49980383915E+02  0.00000000000E+00 0.  1.
<mgrwt>
<rscale>  0 0.80256385E+02</rscale>
<asrwt>0</asrwt>
<pdfrwt beam="1">  1        1 0.62385509E-01 0.80256385E+02</pdfrwt>
<pdfrwt beam="2">  1       -2 0.61092621E-03 0.80256385E+02</pdfrwt>
<totfact> 0.18876432E+05</totfact>
</mgrwt>
</event>
<event>
 8    1  0.1319619E-024  0.8494482E+02  0.7818608E-02  0.1315577E+00
          1   -1    0    0  501    0  0.00000000000E+00  0.00000000000E+00  0.23735438407E+01  0.23735491917E+01  0.50400000000E-02 0. -1.
         -2   -1    0    0    0  501 -0.00000000000E+00 -0.00000000000E+00 -0.76000435819E+03  0.76000435819E+03  0.25500000000E-02 0.  1.
        -24    2    1    2    0    0 -0.17763568394E-14  0.35527136788E-14 -0.75763081435E+03  0.76237790738E+03  0.84944822200E+02 0.  0.
         66    2    3    3    0    0 -0.13854829727E+02  0.30571183969E+02 -0.61226152667E+03  0.61318409196E+03  0.20000000502E+01 0.  0.
         13    1    3    3    0    0  0.13854829727E+02 -0.30571183969E+02 -0.14536928768E+03  0.14919381542E+03  0.10566000000E+00 0. -1.
         13    1    4    4    0    0 -0.82672361847E+01  0.18074395531E+02 -0.37232864250E+03  0.37285876704E+03  0.10566000000E+00 0. -1.
        -13    1    4    4    0    0 -0.30693167398E+01  0.80791518869E+01 -0.15190173204E+03  0.15214743101E+03  0.10566000000E+00 0.  1.
        -14    1    4    4    0    0 -0.25182768023E+01  0.44176365510E+01 -0.88031152125E+02  0.88177893915E+02  0.00000000000E+00 0.  1.
<mgrwt>
<rscale>  0 0.84944822E+02</rscale>
<asrwt>0</asrwt>
<pdfrwt beam="1">  1        1 0.36516161E-03 0.84944822E+02</pdfrwt>
<pdfrwt beam="2">  1       -2 0.11692355E+00 0.84944822E+02</pdfrwt>
<totfact> 0.29948950E+04</totfact>
</mgrwt>
</event>
<event>
 8    1  0.1319619E-024  0.8000428E+02  0.7818608E-02  0.1329039E+00
         -2   -1    0    0    0  501 -0.00000000000E+00  0.00000000000E+00  0.21040346946E+02  0.21040347100E+02  0.25500000000E-02 0.  1.
          1   -1    0    0  501    0  0.00000000000E+00 -0.00000000000E+00 -0.76052513054E+02  0.76052513221E+02  0.50400000000E-02 0. -1.
        -24    2    1    2    0    0 -0.17763568394E-14  0.00000000000E+00 -0.55012166109E+02  0.97092860322E+02  0.80004281795E+02 0.  0.
         66    2    3    3    0    0  0.13267027103E+02 -0.21891737947E+02  0.97423508973E+01  0.27462257601E+02  0.19999982628E+01 0.  0.
         13    1    3    3    0    0 -0.13267027103E+02  0.21891737947E+02 -0.64754517006E+02  0.69630602720E+02  0.10566000000E+00 0. -1.
         13    1    4    4    0    0  0.61992247216E+00 -0.12310565654E+01  0.41188905351E+00  0.14424357063E+01  0.10566000000E+00 0. -1.
        -13    1    4    4    0    0  0.46432013968E+01 -0.70006780033E+01  0.40818208376E+01  0.93403017672E+01  0.10566000000E+00 0.  1.
        -14    1    4    4    0    0  0.80039032338E+01 -0.13660003379E+02  0.52486410062E+01  0.16679520128E+02  0.00000000000E+00 0.  1.
<mgrwt>
<rscale>  0 0.80004282E+02</rscale>
<asrwt>0</asrwt>
<pdfrwt beam="1">  1        1 0.11700387E-01 0.80004282E+02</pdfrwt>
<pdfrwt beam="2">  1       -2 0.32369765E-02 0.80004282E+02</pdfrwt>
<totfact> 0.14052732E+05</totfact>
</mgrwt>
</event>
<event>
 8    1  0.1319619E-024  0.7947713E+02  0.7818608E-02  0.1330542E+00
          1   -1    0    0  501    0  0.00000000000E+00  0.00000000000E+00  0.13621636557E+02  0.13621637490E+02  0.50400000000E-02 0. -1.
         -2   -1    0    0    0  501 -0.00000000000E+00 -0.00000000000E+00 -0.11592978200E+03  0.11592978203E+03  0.25500000000E-02 0.  1.
        -24    2    1    2    0    0  0.00000000000E+00  0.00000000000E+00 -0.10230814545E+03  0.12955141952E+03  0.79477126743E+02 0.  0.
         66    2    3    3    0    0  0.35119035901E+02  0.59298345380E+01 -0.79823229896E+02  0.87431445499E+02  0.20000026602E+01 0.  0.
         13    1    3    3    0    0 -0.35119035901E+02 -0.59298345380E+01 -0.22484915549E+02  0.42119974022E+02  0.10566000000E+00 0. -1.
         13    1    4    4    0    0  0.42120034831E+01  0.10497208483E+01 -0.91052117811E+01  0.10087563274E+02  0.10566000000E+00 0. -1.
        -13    1    4    4    0    0  0.19933654112E+02  0.32373624066E+01 -0.43981691134E+02  0.48396605259E+02  0.10566000000E+00 0.  1.
        -14    1    4    4    0    0  0.10973378306E+02  0.16427512831E+01 -0.26736326982E+02  0.28947276965E+02  0.00000000000E+00 0.  1.
<mgrwt>
<rscale>  0 0.79477127E+02</rscale>
<asrwt>0</asrwt>
<pdfrwt beam="1">  1        1 0.20956366E-02 0.79477127E+02</pdfrwt>
<pdfrwt beam="2">  1       -2 0.17835350E-01 0.79477127E+02</pdfrwt>
<totfact> 0.10384868E+05</totfact>
</mgrwt>
</event>
<event>
 8    1  0.1319619E-024  0.7881517E+02  0.7818608E-02  0.1332448E+00
         -2   -1    0    0    0  501 -0.00000000000E+00  0.00000000000E+00  0.44535298967E+02  0.44535299040E+02  0.25500000000E-02 0.  1.
          1   -1    0    0  501    0  0.00000000000E+00 -0.00000000000E+00 -0.34870266626E+02  0.34870266990E+02  0.50400000000E-02 0. -1.
        -24    2    1    2    0    0  0.00000000000E+00  0.00000000000E+00  0.96650323407E+01  0.79405566030E+02  0.78815170281E+02 0.  0.
         66    2    3    3    0    0  0.18253013949E+02 -0.26890876081E+02  0.27243201927E+02  0.42455668267E+02  0.19999955374E+01 0.  0.
         13    1    3    3    0    0 -0.18253013949E+02  0.26890876081E+02 -0.17578169587E+02  0.36949897763E+02  0.10566000000E+00 0. -1.
         13    1    4    4    0    0  0.23512556059E+01 -0.24375708168E+01  0.26286528517E+01  0.42884885754E+01  0.10566000000E+00 0. -1.
        -13    1    4    4    0    0  0.81935751457E+01 -0.12592789260E+02  0.12727842113E+02  0.19690661338E+02  0.10566000000E+00 0.  1.
         14    1    4    4    0    0  0.77081831972E+01 -0.11860516004E+02  0.11886706962E+02  0.18476518354E+02  0.00000000000E+00 0. -1.
<mgrwt>
<rscale>  0 0.78815170E+02</rscale>
<asrwt>0</asrwt>
<pdfrwt beam="1">  1        1 0.53646565E-02 0.78815170E+02</pdfrwt>
<pdfrwt beam="2">  1       -2 0.68515844E-02 0.78815170E+02</pdfrwt>
<totfact> 0.12949827E+05</totfact>
</mgrwt>
</event>
<event>
 8    1  0.1319619E-024  0.8580698E+02  0.7818608E-02  0.1313336E+00
          1   -1    0    0  501    0  0.00000000000E+00  0.00000000000E+00  0.15131117772E+03  0.15131117780E+03  0.50400000000E-02 0. -1.
         -2   -1    0    0    0  501 -0.00000000000E+00 -0.00000000000E+00 -0.12165058153E+02  0.12165058420E+02  0.25500000000E-02 0.  1.
        -24    2    1    2    0    0  0.00000000000E+00 -0.35527136788E-14  0.13914611957E+03  0.16347623622E+03  0.85806976519E+02 0.  0.
         66    2    3    3    0    0 -0.92542983191E-01 -0.29303792030E+02  0.99702333158E+01  0.31018161557E+02  0.20000006243E+01 0.  0.
         13    1    3    3    0    0  0.92542983191E-01  0.29303792030E+02  0.12917588625E+03  0.13245807467E+03  0.10566000000E+00 0. -1.
         13    1    4    4    0    0 -0.15008839474E+00 -0.23053165014E+01  0.74998258363E+00  0.24311825537E+01  0.10566000000E+00 0. -1.
        -13    1    4    4    0    0 -0.77875330319E+00 -0.12775961777E+02  0.47895773678E+01  0.13666853019E+02  0.10566000000E+00 0.  1.
         14    1    4    4    0    0  0.83629871474E+00 -0.14222513752E+02  0.44306733644E+01  0.14920125985E+02  0.00000000000E+00 0. -1.
<mgrwt>
<rscale>  0 0.85806977E+02</rscale>
<asrwt>0</asrwt>
<pdfrwt beam="1">  1        1 0.23278641E-01 0.85806977E+02</pdfrwt>
<pdfrwt beam="2">  1       -2 0.18715476E-02 0.85806977E+02</pdfrwt>
<totfact> 0.13103815E+05</totfact>
</mgrwt>
</event>
<event>
 8    1  0.1319619E-024  0.7460756E+02  0.7818608E-02  0.1345091E+00
         -2   -1    0    0    0  501 -0.00000000000E+00  0.00000000000E+00  0.21945638844E+02  0.21945638992E+02  0.25500000000E-02 0.  1.
          1   -1    0    0  501    0  0.00000000000E+00 -0.00000000000E+00 -0.63409949975E+02  0.63409950176E+02  0.50400000000E-02 0. -1.
        -24    2    1    2    0    0 -0.44408920985E-15  0.00000000000E+00 -0.41464311132E+02  0.85355589168E+02  0.74607556618E+02 0.  0.
         66    2    3    3    0    0  0.32598669583E+01 -0.26936491377E+02  0.84963506456E+01  0.28502443349E+02  0.20000005753E+01 0.  0.
         13    1    3    3    0    0 -0.32598669583E+01  0.26936491377E+02 -0.49960661777E+02  0.56853145819E+02  0.10566000000E+00 0. -1.
         13    1    4    4    0    0  0.19922036232E+01 -0.14792113893E+02  0.51346357000E+01  0.15784522688E+02  0.10566000000E+00 0. -1.
        -13    1    4    4    0    0  0.12196575680E+01 -0.10758899765E+02  0.33389410805E+01  0.11331424460E+02  0.10566000000E+00 0.  1.
         14    1    4    4    0    0  0.48005767139E-01 -0.13854777192E+01  0.22773865139E-01  0.13864962001E+01  0.00000000000E+00 0. -1.
<mgrwt>
<rscale>  0 0.74607557E+02</rscale>
<asrwt>0</asrwt>
<pdfrwt beam="1">  1        1 0.97553769E-02 0.74607557E+02</pdfrwt>
<pdfrwt beam="2">  1       -2 0.33762522E-02 0.74607557E+02</pdfrwt>
<totfact> 0.16526861E+05</totfact>
</mgrwt>
</event>
<event>
 8    1  0.1319619E-024  0.7902693E+02  0.7818608E-02  0.1331836E+00
          1   -1    0    0  501    0  0.00000000000E+00  0.00000000000E+00  0.96458965375E+01  0.96458978542E+01  0.50400000000E-02 0. -1.
         -2   -1    0    0    0  501 -0.00000000000E+00 -0.00000000000E+00 -0.16186302113E+03  0.16186302115E+03  0.25500000000E-02 0.  1.
        -24    2    1    2    0    0  0.88817841970E-15  0.17763568394E-14 -0.15221712459E+03  0.17150891901E+03  0.79026933883E+02 0.  0.
         66    2    3    3    0    0  0.53363357178E+01  0.13345203470E+02 -0.15597840955E+03  0.15665195555E+03  0.19999990916E+01 0.  0.
         13    1    3    3    0    0 -0.53363357178E+01 -0.13345203470E+02  0.37612849595E+01  0.14856963456E+02  0.10566000000E+00 0. -1.
         13    1    4    4    0    0  0.25787634004E+01  0.75189603437E+01 -0.91771367521E+02  0.92115035939E+02  0.10566000000E+00 0. -1.
        -13    1    4    4    0    0  0.67698960022E+00  0.24407648013E+01 -0.23460109920E+02  0.23596685556E+02  0.10566000000E+00 0.  1.
         14    1    4    4    0    0  0.20805827172E+01  0.33854783244E+01 -0.40746932113E+02  0.40940234056E+02  0.00000000000E+00 0. -1.
<mgrwt>
<rscale>  0 0.79026934E+02</rscale>
<asrwt>0</asrwt>
<pdfrwt beam="1">  1        1 0.14839843E-02 0.79026934E+02</pdfrwt>
<pdfrwt beam="2">  1       -2 0.24902001E-01 0.79026934E+02</pdfrwt>
<totfact> 0.95060606E+04</totfact>
</mgrwt>
</event>
<event>
 8    1  0.1319619E-024  0.7743073E+02  0.7818608E-02  0.1336505E+00
         -2   -1    0    0    0  501 -0.00000000000E+00  0.00000000000E+00  0.14183375150E+03  0.14183375152E+03  0.25500000000E-02 0.  1.
          1   -1    0    0  501    0  0.00000000000E+00 -0.00000000000E+00 -0.10567861265E+02  0.10567862467E+02  0.50400000000E-02 0. -1.
        -24    2    1    2    0    0 -0.35527136788E-14  0.00000000000E+00  0.13126589023E+03  0.15240161399E+03  0.77430730382E+02 0.  0.
         66    2    3    3    0    0  0.30118516185E+02 -0.22905269221E+02  0.81556985004E+02  0.89929517830E+02  0.19999997382E+01 0.  0.
         13    1    3    3    0    0 -0.30118516185E+02  0.22905269221E+02  0.49708905231E+02  0.62472096159E+02  0.10566000000E+00 0. -1.
         13    1    4    4    0    0  0.10841648436E+02 -0.83648054762E+01  0.28120184636E+02  0.31277264258E+02  0.10566000000E+00 0. -1.
        -13    1    4    4    0    0  0.11582115719E+02 -0.83952295728E+01  0.30308081387E+02  0.33514418472E+02  0.10566000000E+00 0.  1.
         14    1    4    4    0    0  0.76947520299E+01 -0.61452341722E+01  0.23128718981E+02  0.25137835100E+02  0.00000000000E+00 0. -1.
<mgrwt>
<rscale>  0 0.77430730E+02</rscale>
<asrwt>0</asrwt>
<pdfrwt beam="1">  1        1 0.16258250E-02 0.77430730E+02</pdfrwt>
<pdfrwt beam="2">  1       -2 0.21820577E-01 0.77430730E+02</pdfrwt>
<totfact> 0.10465089E+05</totfact>
</mgrwt>
</event>
<event>
 8    1  0.1319619E-024  0.7937708E+02  0.7818608E-02  0.1330829E+00
         -2   -1    0    0    0  501 -0.00000000000E+00  0.00000000000E+00  0.11455707298E+02  0.11455707581E+02  0.25500000000E-02 0.  1.
          1   -1    0    0  501    0  0.00000000000E+00 -0.00000000000E+00 -0.13750179158E+03  0.13750179167E+03  0.50400000000E-02 0. -1.
        -24    2    1    2    0    0  0.00000000000E+00  0.00000000000E+00 -0.12604608428E+03  0.14895749925E+03  0.79377082468E+02 0.  0.
         66    2    3    3    0    0 -0.24308206724E+02  0.90411932013E+01 -0.67485299940E+01  0.26873308173E+02  0.19999866112E+01 0.  0.
         13    1    3    3    0    0  0.24308206724E+02 -0.90411932013E+01 -0.11929755429E+03  0.12208419108E+03  0.10566000000E+00 0. -1.
         13    1    4    4    0    0 -0.15412978247E+01  0.23025006958E+00 -0.61589877720E+00  0.16790203746E+01  0.10566000000E+00 0. -1.
        -13    1    4    4    0    0 -0.10121294310E+02  0.36609828208E+01 -0.22125089444E+01  0.10988619276E+02  0.10566000000E+00 0.  1.
        -14    1    4    4    0    0 -0.12645614589E+02  0.51499603110E+01 -0.39201222724E+01  0.14205668523E+02  0.00000000000E+00 0.  1.
<mgrwt>
<rscale>  0 0.79377082E+02</rscale>
<asrwt>0</asrwt>
<pdfrwt beam="1">  1        1 0.21154121E-01 0.79377082E+02</pdfrwt>
<pdfrwt beam="2">  1       -2 0.17624166E-02 0.79377082E+02</pdfrwt>
<totfact> 0.15867803E+05</totfact>
</mgrwt>
</event>
<event>
 8    1  0.1319619E-024  0.7836212E+02  0.7818608E-02  0.1333765E+00
         -2   -1    0    0    0  501 -0.00000000000E+00  0.00000000000E+00  0.72561135869E+02  0.72561135914E+02  0.25500000000E-02 0.  1.
          1   -1    0    0  501    0  0.00000000000E+00 -0.00000000000E+00 -0.21156719801E+02  0.21156720402E+02  0.50400000000E-02 0. -1.
        -24    2    1    2    0    0  0.00000000000E+00 -0.88817841970E-15  0.51404416068E+02  0.93717856316E+02  0.78362124787E+02 0.  0.
         66    2    3    3    0    0  0.82388445462E+01  0.77691049862E+01  0.70546028479E+02  0.71477126978E+02  0.19999987705E+01 0.  0.
         13    1    3    3    0    0 -0.82388445462E+01 -0.77691049862E+01 -0.19141612411E+02  0.22240729338E+02  0.10566000000E+00 0. -1.
         13    1    4    4    0    0  0.86750381338E-01  0.19981781663E+00  0.16319417147E+01  0.16498031956E+01  0.10566000000E+00 0.  1.
        -13    1    4    4    0    0  0.12876284571E+01  0.12314665685E+01  0.15484749700E+02  0.15587274754E+02  0.10566000000E+00 0.  1.
         14    1    4    4    0    0  0.68644657078E+01  0.63378206011E+01  0.53429337064E+02  0.54240049028E+02  0.00000000000E+00 0. -1.
<mgrwt>
<rscale>  0 0.78362125E+02</rscale>
<asrwt>0</asrwt>
<pdfrwt beam="1">  1        1 0.32548800E-02 0.78362125E+02</pdfrwt>
<pdfrwt beam="2">  1       -2 0.11163252E-01 0.78362125E+02</pdfrwt>
<totfact> 0.12023560E+05</totfact>
</mgrwt>
</event>
<event>
 8    1  0.1319619E-024  0.8387192E+02  0.7818608E-02  0.1318409E+00
         -2   -1    0    0    0  501 -0.00000000000E+00  0.00000000000E+00  0.17403691387E+03  0.17403691389E+03  0.25500000000E-02 0.  1.
          1   -1    0    0  501    0  0.00000000000E+00 -0.00000000000E+00 -0.10104893276E+02  0.10104894533E+02  0.50400000000E-02 0. -1.
        -24    2    1    2    0    0  0.00000000000E+00  0.00000000000E+00  0.16393202060E+03  0.18414180842E+03  0.83871915639E+02 0.  0.
         66    2    3    3    0    0 -0.86821478650E+01 -0.21267043651E+02  0.15897928749E+03  0.16064271128E+03  0.19999999358E+01 0.  0.
         13    1    3    3    0    0  0.86821478650E+01  0.21267043651E+02  0.49527331043E+01  0.23499097141E+02  0.10566000000E+00 0. -1.
         13    1    4    4    0    0 -0.25342483316E+01 -0.77665305731E+01  0.58428065206E+02  0.58996537012E+02  0.10566000000E+00 0. -1.
        -13    1    4    4    0    0 -0.28040582911E+01 -0.69794088999E+01  0.54078042640E+02  0.54598724814E+02  0.10566000000E+00 0.  1.
        -14    1    4    4    0    0 -0.33438412423E+01 -0.65211041781E+01  0.46473179646E+02  0.47047449457E+02  0.00000000000E+00 0.  1.
<mgrwt>
<rscale>  0 0.83871916E+02</rscale>
<asrwt>0</asrwt>
<pdfrwt beam="1">  1        1 0.15545992E-02 0.83871916E+02</pdfrwt>
<pdfrwt beam="2">  1       -2 0.26774908E-01 0.83871916E+02</pdfrwt>
<totfact> 0.79456241E+04</totfact>
</mgrwt>
</event>
<event>
 8    1  0.1319619E-024  0.7992610E+02  0.7818608E-02  0.1329261E+00
         -2   -1    0    0    0  501 -0.00000000000E+00  0.00000000000E+00  0.60551011131E+02  0.60551011185E+02  0.25500000000E-02 0.  1.
          1   -1    0    0  501    0  0.00000000000E+00 -0.00000000000E+00 -0.26375205692E+02  0.26375206174E+02  0.50400000000E-02 0. -1.
        -24    2    1    2    0    0  0.00000000000E+00  0.00000000000E+00  0.34175805439E+02  0.86926217358E+02  0.79926100786E+02 0.  0.
         66    2    3    3    0    0 -0.39165819707E+02  0.35280426773E+01  0.95141439766E+01  0.40508362727E+02  0.19999991775E+01 0.  0.
         13    1    3    3    0    0  0.39165819707E+02 -0.35280426773E+01  0.24661661462E+02  0.46417854632E+02  0.10566000000E+00 0. -1.
         13    1    4    4    0    0 -0.34805139284E+02  0.30671781274E+01  0.88372011675E+01  0.36040429947E+02  0.10566000000E+00 0. -1.
        -13    1    4    4    0    0 -0.35117293564E+01  0.48386263904E+00  0.37353037721E+00  0.35660980222E+01  0.10566000000E+00 0.  1.
         14    1    4    4    0    0 -0.84895106714E+00 -0.22998089140E-01  0.30341243195E+00  0.90183475779E+00  0.00000000000E+00 0. -1.
<mgrwt>
<rscale>  0 0.79926101E+02</rscale>
<asrwt>0</asrwt>
<pdfrwt beam="1">  1        1 0.40577240E-02 0.79926101E+02</pdfrwt>
<pdfrwt beam="2">  1       -2 0.93155402E-02 0.79926101E+02</pdfrwt>
<totfact> 0.11846398E+05</totfact>
</mgrwt>
</event>
<event>
 8    1  0.1319619E-024  0.7869428E+02  0.7818608E-02  0.1332798E+00
          1   -1    0    0  501    0  0.00000000000E+00  0.00000000000E+00  0.17779984478E+03  0.17779984485E+03  0.50400000000E-02 0. -1.
         -2   -1    0    0    0  501 -0.00000000000E+00 -0.00000000000E+00 -0.87075296187E+01  0.87075299921E+01  0.25500000000E-02 0.  1.
        -24    2    1    2    0    0  0.88817841970E-15  0.71054273576E-14  0.16909231516E+03  0.18650737485E+03  0.78694280761E+02 0.  0.
         66    2    3    3    0    0  0.41026223636E+01  0.39068816309E+02  0.80503424274E+02  0.89599136439E+02  0.20000031664E+01 0.  0.
         13    1    3    3    0    0 -0.41026223636E+01 -0.39068816309E+02  0.88588890889E+02  0.96908238407E+02  0.10566000000E+00 0. -1.
         13    1    4    4    0    0  0.12446594306E+01  0.93510644245E+01  0.18306972392E+02  0.20594853366E+02  0.10566000000E+00 0. -1.
        -13    1    4    4    0    0  0.16315835273E+01  0.10247208145E+02  0.21431783467E+02  0.23811758570E+02  0.10566000000E+00 0.  1.
         14    1    4    4    0    0  0.12263794057E+01  0.19470543740E+02  0.40764668414E+02  0.45192524502E+02  0.00000000000E+00 0. -1.
<mgrwt>
<rscale>  0 0.78694281E+02</rscale>
<asrwt>0</asrwt>
<pdfrwt beam="1">  1        1 0.27353824E-01 0.78694281E+02</pdfrwt>
<pdfrwt beam="2">  1       -2 0.13396199E-02 0.78694281E+02</pdfrwt>
<totfact> 0.17029044E+05</totfact>
</mgrwt>
</event>
<event>
 8    1  0.1319619E-024  0.8251747E+02  0.7818608E-02  0.1322055E+00
          1   -1    0    0  501    0  0.00000000000E+00  0.00000000000E+00  0.30618420369E+02  0.30618420783E+02  0.50400000000E-02 0. -1.
         -2   -1    0    0    0  501 -0.00000000000E+00 -0.00000000000E+00 -0.55596696567E+02  0.55596696626E+02  0.25500000000E-02 0.  1.
        -24    2    1    2    0    0 -0.35527136788E-14 -0.35527136788E-14 -0.24978276199E+02  0.86215117409E+02  0.82517465957E+02 0.  0.
         66    2    3    3    0    0  0.30188914958E+02  0.27626168528E+02 -0.71995345818E+01  0.41598185742E+02  0.19999962291E+01 0.  0.
         13    1    3    3    0    0 -0.30188914958E+02 -0.27626168528E+02 -0.17778741617E+02  0.44616931667E+02  0.10566000000E+00 0. -1.
         13    1    4    4    0    0  0.99468885280E+01  0.90299339333E+01 -0.22656605070E+01  0.13624414842E+02  0.10566000000E+00 0. -1.
        -13    1    4    4    0    0  0.18768905124E+02  0.17763115856E+02 -0.46815932931E+01  0.26262683874E+02  0.10566000000E+00 0.  1.
         14    1    4    4    0    0  0.14731213065E+01  0.83311873895E+00 -0.25228078169E+00  0.17110870257E+01  0.00000000000E+00 0. -1.
<mgrwt>
<rscale>  0 0.82517466E+02</rscale>
<asrwt>0</asrwt>
<pdfrwt beam="1">  1        1 0.47105262E-02 0.82517466E+02</pdfrwt>
<pdfrwt beam="2">  1       -2 0.85533380E-02 0.82517466E+02</pdfrwt>
<totfact> 0.11102414E+05</totfact>
</mgrwt>
</event>
<event>
 8    1  0.1319619E-024  0.8388804E+02  0.7818608E-02  0.1318366E+00
          1   -1    0    0  501    0  0.00000000000E+00  0.00000000000E+00  0.18530855840E+02  0.18530856526E+02  0.50400000000E-02 0. -1.
         -2   -1    0    0    0  501 -0.00000000000E+00 -0.00000000000E+00 -0.94938990425E+02  0.94938990459E+02  0.25500000000E-02 0.  1.
        -24    2    1    2    0    0  0.00000000000E+00  0.17763568394E-14 -0.76408134585E+02  0.11346984699E+03  0.83888039339E+02 0.  0.
         66    2    3    3    0    0  0.31283121504E+02 -0.13466725410E+02 -0.71283990035E+02  0.79027802829E+02  0.20000000799E+01 0.  0.
         13    1    3    3    0    0 -0.31283121504E+02  0.13466725410E+02 -0.51241445496E+01  0.34442044156E+02  0.10566000000E+00 0. -1.
         13    1    4    4    0    0  0.71553668767E+00 -0.41216853037E+00 -0.17173790258E+01  0.19085152351E+01  0.10566000000E+00 0.  1.
        -13    1    4    4    0    0  0.24517620092E+01 -0.11070175067E+01 -0.46316857052E+01  0.53572662074E+01  0.10566000000E+00 0.  1.
        -14    1    4    4    0    0  0.28115822807E+02 -0.11947539373E+02 -0.64934925304E+02  0.71762021386E+02  0.00000000000E+00 0.  1.
<mgrwt>
<rscale>  0 0.83888039E+02</rscale>
<asrwt>0</asrwt>
<pdfrwt beam="1">  1        1 0.28509010E-02 0.83888039E+02</pdfrwt>
<pdfrwt beam="2">  1       -2 0.14605998E-01 0.83888039E+02</pdfrwt>
<totfact> 0.95190495E+04</totfact>
</mgrwt>
</event>
<event>
 8    1  0.1319619E-024  0.8104888E+02  0.7818608E-02  0.1326101E+00
         -2   -1    0    0    0  501 -0.00000000000E+00  0.00000000000E+00  0.81090574656E+02  0.81090574696E+02  0.25500000000E-02 0.  1.
          1   -1    0    0  501    0  0.00000000000E+00 -0.00000000000E+00 -0.20251801361E+02  0.20251801988E+02  0.50400000000E-02 0. -1.
        -24    2    1    2    0    0  0.00000000000E+00  0.00000000000E+00  0.60838773295E+02  0.10134237668E+03  0.81048880164E+02 0.  0.
         66    2    3    3    0    0 -0.19289995920E+02  0.16123432952E+02  0.70139456033E+02  0.74535980130E+02  0.20000021388E+01 0.  0.
         13    1    3    3    0    0  0.19289995920E+02 -0.16123432952E+02 -0.93006827382E+01  0.26806396554E+02  0.10566000000E+00 0. -1.
         13    1    4    4    0    0 -0.94424462609E+01  0.69567633538E+01  0.31298585771E+02  0.33424077894E+02  0.10566000000E+00 0. -1.
        -13    1    4    4    0    0 -0.58543136444E+01  0.53463903962E+01  0.21784497996E+02  0.23182588196E+02  0.10566000000E+00 0.  1.
         14    1    4    4    0    0 -0.39932360147E+01  0.38202792022E+01  0.17056372267E+02  0.17929314040E+02  0.00000000000E+00 0. -1.
<mgrwt>
<rscale>  0 0.81048880E+02</rscale>
<asrwt>0</asrwt>
<pdfrwt beam="1">  1        1 0.31156618E-02 0.81048880E+02</pdfrwt>
<pdfrwt beam="2">  1       -2 0.12475473E-01 0.81048880E+02</pdfrwt>
<totfact> 0.10779247E+05</totfact>
</mgrwt>
</event>
<event>
 8    1  0.1319619E-024  0.8109768E+02  0.7818608E-02  0.1325965E+00
         -2   -1    0    0    0  501 -0.00000000000E+00  0.00000000000E+00  0.21978455700E+02  0.21978455848E+02  0.25500000000E-02 0.  1.
          1   -1    0    0  501    0  0.00000000000E+00 -0.00000000000E+00 -0.74810008024E+02  0.74810008194E+02  0.50400000000E-02 0. -1.
        -24    2    1    2    0    0  0.00000000000E+00 -0.88817841970E-15 -0.52831552324E+02  0.96788464042E+02  0.81097680920E+02 0.  0.
         66    2    3    3    0    0  0.40257680352E+02 -0.46034386784E+01 -0.27118451144E+02  0.48798389951E+02  0.19999985841E+01 0.  0.
         13    1    3    3    0    0 -0.40257680352E+02  0.46034386784E+01 -0.25713101180E+02  0.47990074091E+02  0.10566000000E+00 0. -1.
         13    1    4    4    0    0  0.15976239779E+02 -0.16694543993E+01 -0.97631817648E+01  0.18797824280E+02  0.10566000000E+00 0. -1.
        -13    1    4    4    0    0  0.10872989136E+02 -0.92562486064E+00 -0.76932079837E+01  0.13351976904E+02  0.10566000000E+00 0.  1.
         14    1    4    4    0    0  0.13408451438E+02 -0.20083594185E+01 -0.96620613954E+01  0.16648588766E+02  0.00000000000E+00 0. -1.
<mgrwt>
<rscale>  0 0.81097681E+02</rscale>
<asrwt>0</asrwt>
<pdfrwt beam="1">  1        1 0.11509232E-01 0.81097681E+02</pdfrwt>
<pdfrwt beam="2">  1       -2 0.33813009E-02 0.81097681E+02</pdfrwt>
<totfact> 0.13505269E+05</totfact>
</mgrwt>
</event>
<event>
 8    1  0.1319619E-024  0.8443057E+02  0.7818608E-02  0.1316928E+00
          1   -1    0    0  501    0  0.00000000000E+00  0.00000000000E+00  0.10775233997E+02  0.10775235175E+02  0.50400000000E-02 0. -1.
         -2   -1    0    0    0  501 -0.00000000000E+00 -0.00000000000E+00 -0.16539131506E+03  0.16539131507E+03  0.25500000000E-02 0.  1.
        -24    2    1    2    0    0 -0.11102230246E-15  0.00000000000E+00 -0.15461608106E+03  0.17616655025E+03  0.84430568547E+02 0.  0.
         66    2    3    3    0    0  0.84381752027E+00 -0.35411168548E+02 -0.12518065421E+03  0.13011094903E+03  0.19999958164E+01 0.  0.
         13    1    3    3    0    0 -0.84381752027E+00  0.35411168548E+02 -0.29435426851E+02  0.46055601222E+02  0.10566000000E+00 0. -1.
         13    1    4    4    0    0  0.14833750678E+00 -0.34173458491E+01 -0.10801693866E+02  0.11330843353E+02  0.10566000000E+00 0. -1.
        -13    1    4    4    0    0  0.84855117749E+00 -0.22589249540E+02 -0.78705868069E+02  0.81887844436E+02  0.10566000000E+00 0.  1.
        -14    1    4    4    0    0 -0.15307116400E+00 -0.94045731592E+01 -0.35673092272E+02  0.36892261240E+02  0.00000000000E+00 0.  1.
<mgrwt>
<rscale>  0 0.84430569E+02</rscale>
<asrwt>0</asrwt>
<pdfrwt beam="1">  1        1 0.16577285E-02 0.84430569E+02</pdfrwt>
<pdfrwt beam="2">  1       -2 0.25444816E-01 0.84430569E+02</pdfrwt>
<totfact> 0.79551418E+04</totfact>
</mgrwt>
</event>
<event>
 8    1  0.1319619E-024  0.8056203E+02  0.7818608E-02  0.1327464E+00
         -2   -1    0    0    0  501 -0.00000000000E+00  0.00000000000E+00  0.20562835894E+02  0.20562836052E+02  0.25500000000E-02 0.  1.
          1   -1    0    0  501    0  0.00000000000E+00 -0.00000000000E+00 -0.78907404943E+02  0.78907405104E+02  0.50400000000E-02 0. -1.
        -24    2    1    2    0    0  0.35527136788E-14  0.00000000000E+00 -0.58344569049E+02  0.99470241156E+02  0.80562026652E+02 0.  0.
         66    2    3    3    0    0  0.29089613081E+02  0.13469293146E+02  0.87495416188E+00  0.32130872728E+02  0.19999975979E+01 0.  0.
         13    1    3    3    0    0 -0.29089613081E+02 -0.13469293146E+02 -0.59219523210E+02  0.67339368429E+02  0.10566000000E+00 0. -1.
         13    1    4    4    0    0  0.94014757406E+01  0.49649712060E+01  0.60004070030E-01  0.10632659578E+02  0.10566000000E+00 0. -1.
        -13    1    4    4    0    0  0.15930471972E+02  0.71816508593E+01  0.26493396583E+00  0.17476767446E+02  0.10566000000E+00 0.  1.
        -14    1    4    4    0    0  0.37576653688E+01  0.13226710809E+01  0.55001612602E+00  0.40214457041E+01  0.00000000000E+00 0.  1.
<mgrwt>
<rscale>  0 0.80562027E+02</rscale>
<asrwt>0</asrwt>
<pdfrwt beam="1">  1        1 0.12139601E-01 0.80562027E+02</pdfrwt>
<pdfrwt beam="2">  1       -2 0.31635133E-02 0.80562027E+02</pdfrwt>
<totfact> 0.13870758E+05</totfact>
</mgrwt>
</event>
<event>
 8    1  0.1319619E-024  0.8028767E+02  0.7818608E-02  0.1328237E+00
         -2   -1    0    0    0  501 -0.00000000000E+00  0.00000000000E+00  0.28446036689E+03  0.28446036690E+03  0.25500000000E-02 0.  1.
          1   -1    0    0  501    0  0.00000000000E+00 -0.00000000000E+00 -0.56652077176E+01  0.56652099595E+01  0.50400000000E-02 0. -1.
        -24    2    1    2    0    0 -0.88817841970E-15  0.00000000000E+00  0.27879515917E+03  0.29012557686E+03  0.80287667614E+02 0.  0.
         66    2    3    3    0    0 -0.56171301575E+01  0.38852499581E+02  0.16938135884E+03  0.17388247065E+03  0.20000002726E+01 0.  0.
         13    1    3    3    0    0  0.56171301575E+01 -0.38852499581E+02  0.10941380033E+03  0.11624310621E+03  0.10566000000E+00 0. -1.
         13    1    4    4    0    0 -0.29111803005E+01  0.20000523750E+02  0.89941309829E+02  0.92184306141E+02  0.10566000000E+00 0. -1.
        -13    1    4    4    0    0 -0.14435833527E+01  0.11270095632E+02  0.49473825527E+02  0.50761890871E+02  0.10566000000E+00 0.  1.
         14    1    4    4    0    0 -0.12623665043E+01  0.75818801993E+01  0.29966223489E+02  0.30936273640E+02  0.00000000000E+00 0. -1.
<mgrwt>
<rscale>  0 0.80287668E+02</rscale>
<asrwt>0</asrwt>
<pdfrwt beam="1">  1        1 0.87157066E-03 0.80287668E+02</pdfrwt>
<pdfrwt beam="2">  1       -2 0.43763130E-01 0.80287668E+02</pdfrwt>
<totfact> 0.71625727E+04</totfact>
</mgrwt>
</event>
<event>
 8    1  0.1319619E-024  0.8351869E+02  0.7818608E-02  0.1319352E+00
         -2   -1    0    0    0  501 -0.00000000000E+00  0.00000000000E+00  0.56913695409E+03  0.56913695409E+03  0.25500000000E-02 0.  1.
          1   -1    0    0  501    0  0.00000000000E+00 -0.00000000000E+00 -0.30640109236E+01  0.30640150688E+01  0.50400000000E-02 0. -1.
        -24    2    1    2    0    0  0.00000000000E+00  0.17763568394E-14  0.56607294316E+03  0.57220096916E+03  0.83518693283E+02 0.  0.
         66    2    3    3    0    0 -0.19445255554E+02  0.13776303051E+02  0.51793808250E+03  0.51848988590E+03  0.19999986213E+01 0.  0.
         13    1    3    3    0    0  0.19445255554E+02 -0.13776303051E+02  0.48134860666E+02  0.53711083258E+02  0.10566000000E+00 0. -1.
         13    1    4    4    0    0 -0.79280240894E+01  0.57641995542E+01  0.20777277081E+03  0.20800388221E+03  0.10566000000E+00 0. -1.
        -13    1    4    4    0    0 -0.56614043186E+01  0.42125553293E+01  0.14046990094E+03  0.14064708086E+03  0.10566000000E+00 0.  1.
         14    1    4    4    0    0 -0.58558271462E+01  0.37995481673E+01  0.16969541075E+03  0.16983892283E+03  0.00000000000E+00 0. -1.
<mgrwt>
<rscale>  0 0.83518693E+02</rscale>
<asrwt>0</asrwt>
<pdfrwt beam="1">  1        1 0.47138612E-03 0.83518693E+02</pdfrwt>
<pdfrwt beam="2">  1       -2 0.87559624E-01 0.83518693E+02</pdfrwt>
<totfact> 0.40653851E+04</totfact>
</mgrwt>
</event>
<event>
 8    1  0.1319619E-024  0.8539187E+02  0.7818608E-02  0.1314411E+00
          1   -1    0    0  501    0  0.00000000000E+00  0.00000000000E+00  0.80678085551E+02  0.80678085708E+02  0.50400000000E-02 0. -1.
         -2   -1    0    0    0  501 -0.00000000000E+00 -0.00000000000E+00 -0.22595266361E+02  0.22595266505E+02  0.25500000000E-02 0.  1.
        -24    2    1    2    0    0  0.00000000000E+00  0.17763568394E-14  0.58082819190E+02  0.10327335221E+03  0.85391869591E+02 0.  0.
         66    2    3    3    0    0  0.38966081437E+02  0.10682897409E+02  0.12454583399E+02  0.42327254183E+02  0.19999998579E+01 0.  0.
         13    1    3    3    0    0 -0.38966081437E+02 -0.10682897409E+02  0.45628235791E+02  0.60946098030E+02  0.10566000000E+00 0. -1.
         13    1    4    4    0    0  0.13444284649E+02  0.36251187351E+01  0.34318930700E+01  0.14341524662E+02  0.10566000000E+00 0. -1.
        -13    1    4    4    0    0  0.25819521461E+01  0.78007699712E+00  0.70421784613E+00  0.27896386534E+01  0.10566000000E+00 0.  1.
        -14    1    4    4    0    0  0.22939844642E+02  0.62777016772E+01  0.83184724830E+01  0.25196090867E+02  0.00000000000E+00 0.  1.
<mgrwt>
<rscale>  0 0.85391870E+02</rscale>
<asrwt>0</asrwt>
<pdfrwt beam="1">  1        1 0.12412013E-01 0.85391870E+02</pdfrwt>
<pdfrwt beam="2">  1       -2 0.34761948E-02 0.85391870E+02</pdfrwt>
<totfact> 0.11869893E+05</totfact>
</mgrwt>
</event>
<event>
 8    1  0.1319619E-024  0.8030897E+02  0.7818608E-02  0.1328177E+00
         -2   -1    0    0    0  501 -0.00000000000E+00  0.00000000000E+00  0.12876072148E+04  0.12876072148E+04  0.25500000000E-02 0.  1.
          1   -1    0    0  501    0  0.00000000000E+00 -0.00000000000E+00 -0.12522268247E+01  0.12522369673E+01  0.50400000000E-02 0. -1.
        -24    2    1    2    0    0  0.00000000000E+00 -0.88817841970E-15  0.12863549880E+04  0.12888594518E+04  0.80308974140E+02 0.  0.
         66    2    3    3    0    0  0.17838743036E+02  0.62524840108E+01  0.12116795217E+04  0.12118286090E+04  0.19999977712E+01 0.  0.
         13    1    3    3    0    0 -0.17838743036E+02 -0.62524840108E+01  0.74675466299E+02  0.77030842786E+02  0.10566000000E+00 0. -1.
         13    1    4    4    0    0  0.67942076529E+01  0.17835228660E+01  0.41948708804E+03  0.41954590977E+03  0.10566000000E+00 0. -1.
        -13    1    4    4    0    0  0.71215669314E+01  0.33392733736E+01  0.50551989372E+03  0.50558109298E+03  0.10566000000E+00 0.  1.
         14    1    4    4    0    0  0.39229684516E+01  0.11296877712E+01  0.28667253991E+03  0.28670160623E+03  0.00000000000E+00 0. -1.
<mgrwt>
<rscale>  0 0.80308974E+02</rscale>
<asrwt>0</asrwt>
<pdfrwt beam="1">  1        1 0.19265165E-03 0.80308974E+02</pdfrwt>
<pdfrwt beam="2">  1       -2 0.19809282E+00 0.80308974E+02</pdfrwt>
<totfact> 0.18643386E+04</totfact>
</mgrwt>
</event>
<event>
 8    1  0.1319619E-024  0.7898185E+02  0.7818608E-02  0.1331966E+00
         -2   -1    0    0    0  501 -0.00000000000E+00  0.00000000000E+00  0.12198519107E+02  0.12198519374E+02  0.25500000000E-02 0.  1.
          1   -1    0    0  501    0  0.00000000000E+00 -0.00000000000E+00 -0.12784610616E+03  0.12784610626E+03  0.50400000000E-02 0. -1.
        -24    2    1    2    0    0  0.00000000000E+00  0.00000000000E+00 -0.11564758706E+03  0.14004462564E+03  0.78981850939E+02 0.  0.
         66    2    3    3    0    0 -0.15396189235E+02  0.24568962897E+02 -0.10386990322E+02  0.30863670477E+02  0.20000016327E+01 0.  0.
         13    1    3    3    0    0  0.15396189235E+02 -0.24568962897E+02 -0.10526059673E+03  0.10918095516E+03  0.10566000000E+00 0. -1.
         13    1    4    4    0    0 -0.98737161480E+01  0.15748958191E+02 -0.66684244695E+01  0.19748392431E+02  0.10566000000E+00 0. -1.
        -13    1    4    4    0    0 -0.35352038730E+01  0.45344372368E+01 -0.20030612800E+01  0.60895160732E+01  0.10566000000E+00 0.  1.
         14    1    4    4    0    0 -0.19872692144E+01  0.42855674695E+01 -0.17155045729E+01  0.50257619726E+01  0.00000000000E+00 0. -1.
<mgrwt>
<rscale>  0 0.78981851E+02</rscale>
<asrwt>0</asrwt>
<pdfrwt beam="1">  1        1 0.19668631E-01 0.78981851E+02</pdfrwt>
<pdfrwt beam="2">  1       -2 0.18766954E-02 0.78981851E+02</pdfrwt>
<totfact> 0.15873037E+05</totfact>
</mgrwt>
</event>
<event>
 8    1  0.1319619E-024  0.8012918E+02  0.7818608E-02  0.1328685E+00
         -2   -1    0    0    0  501 -0.00000000000E+00  0.00000000000E+00  0.20785001019E+02  0.20785001175E+02  0.25500000000E-02 0.  1.
          1   -1    0    0  501    0  0.00000000000E+00 -0.00000000000E+00 -0.77227384841E+02  0.77227385006E+02  0.50400000000E-02 0. -1.
        -24    2    1    2    0    0  0.00000000000E+00  0.00000000000E+00 -0.56442383823E+02  0.98012386181E+02  0.80129177914E+02 0.  0.
         66    2    3    3    0    0 -0.14427679508E+02 -0.11817572603E+02  0.15099715450E+02  0.24079334772E+02  0.19999995550E+01 0.  0.
         13    1    3    3    0    0  0.14427679508E+02  0.11817572603E+02 -0.71542099273E+02  0.73933051408E+02  0.10566000000E+00 0. -1.
         13    1    4    4    0    0 -0.87800145898E+00 -0.37165774271E+00  0.11328986281E+01  0.14844660242E+01  0.10566000000E+00 0. -1.
        -13    1    4    4    0    0 -0.22019007665E+01 -0.22557422579E+01  0.26800525659E+01  0.41389111988E+01  0.10566000000E+00 0.  1.
         14    1    4    4    0    0 -0.11347777282E+02 -0.91901726020E+01  0.11286764256E+02  0.18455957549E+02  0.00000000000E+00 0. -1.
<mgrwt>
<rscale>  0 0.80129178E+02</rscale>
<asrwt>0</asrwt>
<pdfrwt beam="1">  1        1 0.11881136E-01 0.80129178E+02</pdfrwt>
<pdfrwt beam="2">  1       -2 0.31976925E-02 0.80129178E+02</pdfrwt>
<totfact> 0.14027446E+05</totfact>
</mgrwt>
</event>
<event>
 8    1  0.1319619E-024  0.7911517E+02  0.7818608E-02  0.1331581E+00
          1   -1    0    0  501    0  0.00000000000E+00  0.00000000000E+00  0.44078918250E+01  0.44078947064E+01  0.50400000000E-02 0. -1.
         -2   -1    0    0    0  501 -0.00000000000E+00 -0.00000000000E+00 -0.35500008866E+03  0.35500008867E+03  0.25500000000E-02 0.  1.
        -24    2    1    2    0    0  0.00000000000E+00  0.00000000000E+00 -0.35059219683E+03  0.35940798338E+03  0.79115169421E+02 0.  0.
         66    2    3    3    0    0 -0.11937041313E+02 -0.26867590339E+02 -0.29546595749E+03  0.29693179755E+03  0.19999999607E+01 0.  0.
         13    1    3    3    0    0  0.11937041313E+02  0.26867590339E+02 -0.55126239350E+02  0.62476185822E+02  0.10566000000E+00 0. -1.
         13    1    4    4    0    0 -0.21712841247E+01 -0.61823247727E+01 -0.62143152055E+02  0.62487743804E+02  0.10566000000E+00 0. -1.
        -13    1    4    4    0    0 -0.13481356142E+01 -0.33087748696E+01 -0.33098433068E+02  0.33290883082E+02  0.10566000000E+00 0.  1.
         14    1    4    4    0    0 -0.84176215743E+01 -0.17376490697E+02 -0.20022437236E+03  0.20115317067E+03  0.00000000000E+00 0. -1.
<mgrwt>
<rscale>  0 0.79115169E+02</rscale>
<asrwt>0</asrwt>
<pdfrwt beam="1">  1        1 0.67813771E-03 0.79115169E+02</pdfrwt>
<pdfrwt beam="2">  1       -2 0.54615376E-01 0.79115169E+02</pdfrwt>
<totfact> 0.65619765E+04</totfact>
</mgrwt>
</event>
<event>
 8    1  0.1319619E-024  0.7804739E+02  0.7818608E-02  0.1334686E+00
          1   -1    0    0  501    0  0.00000000000E+00  0.00000000000E+00  0.99726350614E+01  0.99726363350E+01  0.50400000000E-02 0. -1.
         -2   -1    0    0    0  501 -0.00000000000E+00 -0.00000000000E+00 -0.15270272594E+03  0.15270272596E+03  0.25500000000E-02 0.  1.
        -24    2    1    2    0    0  0.35527136788E-14 -0.35527136788E-14 -0.14273009088E+03  0.16267536229E+03  0.78047387246E+02 0.  0.
         66    2    3    3    0    0  0.22071519809E+02 -0.24246011997E+02 -0.27402475737E+02  0.42777526358E+02  0.20000000869E+01 0.  0.
         13    1    3    3    0    0 -0.22071519809E+02  0.24246011997E+02 -0.11532761514E+03  0.11989783594E+03  0.10566000000E+00 0. -1.
         13    1    4    4    0    0  0.39569326877E+01 -0.49510086484E+01 -0.60390027446E+01  0.87550283333E+01  0.10566000000E+00 0. -1.
        -13    1    4    4    0    0  0.34592905355E+01 -0.40427754987E+01 -0.40307039138E+01  0.66759615650E+01  0.10566000000E+00 0.  1.
         14    1    4    4    0    0  0.14655296586E+02 -0.15252227850E+02 -0.17332769078E+02  0.27346536459E+02  0.00000000000E+00 0. -1.
<mgrwt>
<rscale>  0 0.78047387E+02</rscale>
<asrwt>0</asrwt>
<pdfrwt beam="1">  1        1 0.15342518E-02 0.78047387E+02</pdfrwt>
<pdfrwt beam="2">  1       -2 0.23492725E-01 0.78047387E+02</pdfrwt>
<totfact> 0.10011970E+05</totfact>
</mgrwt>
</event>
<event>
 8    1  0.1319619E-024  0.8008059E+02  0.7818608E-02  0.1328823E+00
          1   -1    0    0  501    0  0.00000000000E+00  0.00000000000E+00  0.84277651942E+02  0.84277652093E+02  0.50400000000E-02 0. -1.
         -2   -1    0    0    0  501 -0.00000000000E+00 -0.00000000000E+00 -0.19023135066E+02  0.19023135237E+02  0.25500000000E-02 0.  1.
        -24    2    1    2    0    0  0.00000000000E+00  0.35527136788E-14  0.65254516877E+02  0.10330078733E+03  0.80080588722E+02 0.  0.
         66    2    3    3    0    0 -0.28210537382E+02 -0.17966175583E+02  0.43094293856E+01  0.33781489737E+02  0.19999956847E+01 0.  0.
         13    1    3    3    0    0  0.28210537382E+02  0.17966175583E+02  0.60945087491E+02  0.69519297593E+02  0.10566000000E+00 0. -1.
         13    1    4    4    0    0 -0.78548817565E+01 -0.56709479286E+01  0.15959849356E+01  0.98192234809E+01  0.10566000000E+00 0. -1.
        -13    1    4    4    0    0 -0.11885421397E+02 -0.75475172050E+01  0.20673208749E+01  0.14230714577E+02  0.10566000000E+00 0.  1.
         14    1    4    4    0    0 -0.84702342290E+01 -0.47477104494E+01  0.64612357511E+00  0.97315516789E+01  0.00000000000E+00 0. -1.
<mgrwt>
<rscale>  0 0.80080589E+02</rscale>
<asrwt>0</asrwt>
<pdfrwt beam="1">  1        1 0.12965793E-01 0.80080589E+02</pdfrwt>
<pdfrwt beam="2">  1       -2 0.29266362E-02 0.80080589E+02</pdfrwt>
<totfact> 0.14250287E+05</totfact>
</mgrwt>
</event>
<event>
 8    1  0.1319619E-024  0.7767583E+02  0.7818608E-02  0.1335780E+00
         -2   -1    0    0    0  501 -0.00000000000E+00  0.00000000000E+00  0.11061204952E+02  0.11061205246E+02  0.25500000000E-02 0.  1.
          1   -1    0    0  501    0  0.00000000000E+00 -0.00000000000E+00 -0.13636703646E+03  0.13636703655E+03  0.50400000000E-02 0. -1.
        -24    2    1    2    0    0  0.71054273576E-14 -0.88817841970E-15 -0.12530583150E+03  0.14742824180E+03  0.77675833242E+02 0.  0.
         66    2    3    3    0    0 -0.34290194837E+02 -0.70220292301E+01 -0.30863873355E+02  0.46708725417E+02  0.19999987818E+01 0.  0.
         13    1    3    3    0    0  0.34290194837E+02  0.70220292301E+01 -0.94441958150E+02  0.10071951638E+03  0.10566000000E+00 0. -1.
         13    1    4    4    0    0 -0.23668908503E+01 -0.17913997832E+00 -0.20591662640E+01  0.31441363151E+01  0.10566000000E+00 0. -1.
        -13    1    4    4    0    0 -0.31137011577E+02 -0.69039552058E+01 -0.28065672469E+02  0.42483775993E+02  0.10566000000E+00 0.  1.
        -14    1    4    4    0    0 -0.78629240892E+00  0.61065953942E-01 -0.73903462190E+00  0.10808131085E+01  0.00000000000E+00 0.  1.
<mgrwt>
<rscale>  0 0.77675833E+02</rscale>
<asrwt>0</asrwt>
<pdfrwt beam="1">  1        1 0.20979543E-01 0.77675833E+02</pdfrwt>
<pdfrwt beam="2">  1       -2 0.17017240E-02 0.77675833E+02</pdfrwt>
<totfact> 0.16788515E+05</totfact>
</mgrwt>
</event>
<event>
 8    1  0.1319619E-024  0.8350294E+02  0.7818608E-02  0.1319395E+00
          1   -1    0    0  501    0  0.00000000000E+00  0.00000000000E+00  0.15345218999E+03  0.15345219007E+03  0.50400000000E-02 0. -1.
         -2   -1    0    0    0  501 -0.00000000000E+00 -0.00000000000E+00 -0.11359793509E+02  0.11359793795E+02  0.25500000000E-02 0.  1.
        -24    2    1    2    0    0  0.00000000000E+00  0.00000000000E+00  0.14209239648E+03  0.16481198386E+03  0.83502939400E+02 0.  0.
         66    2    3    3    0    0  0.12334794338E+02  0.22371765957E+02  0.59677016650E+01  0.26310768111E+02  0.19999980028E+01 0.  0.
         13    1    3    3    0    0 -0.12334794338E+02 -0.22371765957E+02  0.13612469481E+03  0.13850121575E+03  0.10566000000E+00 0. -1.
         13    1    4    4    0    0  0.22254111511E+01  0.56477436233E+01  0.11466828203E+01  0.61786332107E+01  0.10566000000E+00 0. -1.
        -13    1    4    4    0    0  0.53237579860E+01  0.91761341376E+01  0.26300955885E+01  0.10930343254E+02  0.10566000000E+00 0.  1.
         14    1    4    4    0    0  0.47856252014E+01  0.75478881958E+01  0.21909232561E+01  0.92017916461E+01  0.00000000000E+00 0. -1.
<mgrwt>
<rscale>  0 0.83502939E+02</rscale>
<asrwt>0</asrwt>
<pdfrwt beam="1">  1        1 0.23608029E-01 0.83502939E+02</pdfrwt>
<pdfrwt beam="2">  1       -2 0.17476606E-02 0.83502939E+02</pdfrwt>
<totfact> 0.14136313E+05</totfact>
</mgrwt>
</event>
<event>
 8    1  0.1319619E-024  0.7986626E+02  0.7818608E-02  0.1329431E+00
         -2   -1    0    0    0  501 -0.00000000000E+00  0.00000000000E+00  0.94362103720E+02  0.94362103754E+02  0.25500000000E-02 0.  1.
          1   -1    0    0  501    0  0.00000000000E+00 -0.00000000000E+00 -0.16899314854E+02  0.16899315606E+02  0.50400000000E-02 0. -1.
        -24    2    1    2    0    0 -0.35527136788E-14 -0.35527136788E-14  0.77462788866E+02  0.11126141936E+03  0.79866261834E+02 0.  0.
         66    2    3    3    0    0 -0.19385731406E+02 -0.21943224777E+02  0.76532385542E+02  0.81966564690E+02  0.19999986726E+01 0.  0.
         13    1    3    3    0    0  0.19385731406E+02  0.21943224777E+02  0.93040332394E+00  0.29294854670E+02  0.10566000000E+00 0. -1.
         13    1    4    4    0    0 -0.62802206683E+01 -0.78818955032E+01  0.28173248580E+02  0.29921706969E+02  0.10566000000E+00 0. -1.
        -13    1    4    4    0    0 -0.10281561118E+02 -0.11409225791E+02  0.38179298600E+02  0.41152775578E+02  0.10566000000E+00 0.  1.
        -14    1    4    4    0    0 -0.28239496196E+01 -0.26521034826E+01  0.10179838362E+02  0.10892082143E+02  0.00000000000E+00 0.  1.
<mgrwt>
<rscale>  0 0.79866262E+02</rscale>
<asrwt>0</asrwt>
<pdfrwt beam="1">  1        1 0.25998947E-02 0.79866262E+02</pdfrwt>
<pdfrwt beam="2">  1       -2 0.14517247E-01 0.79866262E+02</pdfrwt>
<totfact> 0.10810138E+05</totfact>
</mgrwt>
</event>
<event>
 8    1  0.1319619E-024  0.8233275E+02  0.7818608E-02  0.1322559E+00
         -2   -1    0    0    0  501 -0.00000000000E+00  0.00000000000E+00  0.28634422015E+02  0.28634422128E+02  0.25500000000E-02 0.  1.
          1   -1    0    0  501    0  0.00000000000E+00 -0.00000000000E+00 -0.59182977475E+02  0.59182977689E+02  0.50400000000E-02 0. -1.
        -24    2    1    2    0    0 -0.35527136788E-14  0.00000000000E+00 -0.30548555460E+02  0.87817399817E+02  0.82332748466E+02 0.  0.
         66    2    3    3    0    0  0.25627490465E+02 -0.19996023187E+02  0.11616945593E+02  0.34576909081E+02  0.20000014617E+01 0.  0.
         13    1    3    3    0    0 -0.25627490465E+02  0.19996023187E+02 -0.42165501053E+02  0.53240490737E+02  0.10566000000E+00 0. -1.
         13    1    4    4    0    0  0.39354566004E+01 -0.28471549086E+01  0.21585164846E+01  0.53164336897E+01  0.10566000000E+00 0. -1.
        -13    1    4    4    0    0  0.20915138641E+02 -0.16768685221E+02  0.89773608066E+01  0.28270762273E+02  0.10566000000E+00 0.  1.
        -14    1    4    4    0    0  0.77689522303E+00 -0.38018305820E+00  0.48106830146E+00  0.98971311802E+00  0.00000000000E+00 0.  1.
<mgrwt>
<rscale>  0 0.82332748E+02</rscale>
<asrwt>0</asrwt>
<pdfrwt beam="1">  1        1 0.91050735E-02 0.82332748E+02</pdfrwt>
<pdfrwt beam="2">  1       -2 0.44052957E-02 0.82332748E+02</pdfrwt>
<totfact> 0.12477423E+05</totfact>
</mgrwt>
</event>
<event>
 8    1  0.1319619E-024  0.7906378E+02  0.7818608E-02  0.1331729E+00
         -2   -1    0    0    0  501 -0.00000000000E+00  0.00000000000E+00  0.22281027618E+02  0.22281027764E+02  0.25500000000E-02 0.  1.
          1   -1    0    0  501    0  0.00000000000E+00 -0.00000000000E+00 -0.70139065360E+02  0.70139065541E+02  0.50400000000E-02 0. -1.
        -24    2    1    2    0    0  0.35527136788E-14  0.17763568394E-14 -0.47858037742E+02  0.92420093305E+02  0.79063783555E+02 0.  0.
         66    2    3    3    0    0  0.22761293687E+02  0.59877818247E+01  0.13146671542E+02  0.27032665306E+02  0.19999998585E+01 0.  0.
         13    1    3    3    0    0 -0.22761293687E+02 -0.59877818247E+01 -0.61004709284E+02  0.65387427999E+02  0.10566000000E+00 0. -1.
         13    1    4    4    0    0  0.43332021759E+01  0.68675905833E+00  0.22761991780E+01  0.49437360199E+01  0.10566000000E+00 0. -1.
        -13    1    4    4    0    0  0.12774880027E+02  0.30549303782E+01  0.70895218733E+01  0.14926575084E+02  0.10566000000E+00 0.  1.
         14    1    4    4    0    0  0.56532114841E+01  0.22460923881E+01  0.37809504904E+01  0.71623542017E+01  0.00000000000E+00 0. -1.
<mgrwt>
<rscale>  0 0.79063784E+02</rscale>
<asrwt>0</asrwt>
<pdfrwt beam="1">  1        1 0.10790625E-01 0.79063784E+02</pdfrwt>
<pdfrwt beam="2">  1       -2 0.34278504E-02 0.79063784E+02</pdfrwt>
<totfact> 0.14329050E+05</totfact>
</mgrwt>
</event>
<event>
 8    1  0.1319619E-024  0.8455551E+02  0.7818608E-02  0.1316599E+00
         -2   -1    0    0    0  501 -0.00000000000E+00  0.00000000000E+00  0.43623853094E+03  0.43623853094E+03  0.25500000000E-02 0.  1.
          1   -1    0    0  501    0  0.00000000000E+00 -0.00000000000E+00 -0.40973180258E+01  0.40973211256E+01  0.50400000000E-02 0. -1.
        -24    2    1    2    0    0  0.00000000000E+00  0.00000000000E+00  0.43214121291E+03  0.44033585207E+03  0.84555512664E+02 0.  0.
         66    2    3    3    0    0 -0.17453746874E+02  0.13486601691E+01  0.41646262354E+03  0.41683518202E+03  0.19999992235E+01 0.  0.
         13    1    3    3    0    0  0.17453746874E+02 -0.13486601691E+01  0.15678589367E+02  0.23500670050E+02  0.10566000000E+00 0. -1.
         13    1    4    4    0    0 -0.69739982328E+01  0.34055940315E+00  0.15713657104E+03  0.15729165825E+03  0.10566000000E+00 0. -1.
        -13    1    4    4    0    0 -0.10255186127E+02  0.11768196672E+01  0.24951813060E+03  0.24973158072E+03  0.10566000000E+00 0.  1.
         14    1    4    4    0    0 -0.22456251435E+00 -0.16871890120E+00  0.98079219064E+01  0.98119430549E+01  0.00000000000E+00 0. -1.
<mgrwt>
<rscale>  0 0.84555513E+02</rscale>
<asrwt>0</asrwt>
<pdfrwt beam="1">  1        1 0.63035704E-03 0.84555513E+02</pdfrwt>
<pdfrwt beam="2">  1       -2 0.67113601E-01 0.84555513E+02</pdfrwt>
<totfact> 0.48256628E+04</totfact>
</mgrwt>
</event>
<event>
 8    1  0.1319619E-024  0.8408077E+02  0.7818608E-02  0.1317854E+00
         -2   -1    0    0    0  501 -0.00000000000E+00  0.00000000000E+00  0.72430142205E+02  0.72430142250E+02  0.25500000000E-02 0.  1.
          1   -1    0    0  501    0  0.00000000000E+00 -0.00000000000E+00 -0.24401358270E+02  0.24401358791E+02  0.50400000000E-02 0. -1.
        -24    2    1    2    0    0  0.00000000000E+00  0.00000000000E+00  0.48028783935E+02  0.96831501041E+02  0.84080767763E+02 0.  0.
         66    2    3    3    0    0  0.16642202790E+01 -0.22242695308E+02  0.65035070902E+02  0.68782756254E+02  0.19999967391E+01 0.  0.
         13    1    3    3    0    0 -0.16642202790E+01  0.22242695308E+02 -0.17006286967E+02  0.28048744787E+02  0.10566000000E+00 0. -1.
         13    1    4    4    0    0  0.18879032016E+01 -0.21187393580E+02  0.61142846130E+02  0.64737381953E+02  0.10566000000E+00 0. -1.
        -13    1    4    4    0    0 -0.23321817601E-01 -0.26990209815E+00  0.11136977542E+01  0.11510333501E+01  0.10566000000E+00 0.  1.
         14    1    4    4    0    0 -0.20036110503E+00 -0.78539962948E+00  0.27785270172E+01  0.28943409501E+01  0.00000000000E+00 0. -1.
<mgrwt>
<rscale>  0 0.84080768E+02</rscale>
<asrwt>0</asrwt>
<pdfrwt beam="1">  1        1 0.37540552E-02 0.84080768E+02</pdfrwt>
<pdfrwt beam="2">  1       -2 0.11143099E-01 0.84080768E+02</pdfrwt>
<totfact> 0.10055348E+05</totfact>
</mgrwt>
</event>
<event>
 8    1  0.1319619E-024  0.8048722E+02  0.7818608E-02  0.1327674E+00
         -2   -1    0    0    0  501 -0.00000000000E+00  0.00000000000E+00  0.66022319308E+01  0.66022324233E+01  0.25500000000E-02 0.  1.
          1   -1    0    0  501    0  0.00000000000E+00 -0.00000000000E+00 -0.24530314002E+03  0.24530314008E+03  0.50400000000E-02 0. -1.
        -24    2    1    2    0    0  0.00000000000E+00 -0.71054273576E-14 -0.23870090809E+03  0.25190537250E+03  0.80487223641E+02 0.  0.
         66    2    3    3    0    0 -0.26742767456E+01 -0.39788033119E+02 -0.10306996045E+03  0.11053350663E+03  0.20000015176E+01 0.  0.
         13    1    3    3    0    0  0.26742767456E+01  0.39788033119E+02 -0.13563094764E+03  0.14137186587E+03  0.10566000000E+00 0. -1.
         13    1    4    4    0    0 -0.95032386405E+00 -0.95230755953E+01 -0.23709331168E+02  0.25568254393E+02  0.10566000000E+00 0. -1.
        -13    1    4    4    0    0 -0.15951491924E+01 -0.17865053550E+02 -0.45806025498E+02  0.49192558128E+02  0.10566000000E+00 0.  1.
         14    1    4    4    0    0 -0.12880368917E+00 -0.12399903974E+02 -0.33554603783E+02  0.35772694111E+02  0.00000000000E+00 0. -1.
<mgrwt>
<rscale>  0 0.80487224E+02</rscale>
<asrwt>0</asrwt>
<pdfrwt beam="1">  1        1 0.37738938E-01 0.80487224E+02</pdfrwt>
<pdfrwt beam="2">  1       -2 0.10157282E-02 0.80487224E+02</pdfrwt>
<totfact> 0.17074522E+05</totfact>
</mgrwt>
</event>
<event>
 8    1  0.1319619E-024  0.8032193E+02  0.7818608E-02  0.1328140E+00
          1   -1    0    0  501    0  0.00000000000E+00  0.00000000000E+00  0.44103016245E+03  0.44103016248E+03  0.50400000000E-02 0. -1.
         -2   -1    0    0    0  501 -0.00000000000E+00 -0.00000000000E+00 -0.36571259053E+01  0.36571267944E+01  0.25500000000E-02 0.  1.
        -24    2    1    2    0    0 -0.17763568394E-14 -0.71054273576E-14  0.43737303655E+03  0.44468728928E+03  0.80321928169E+02 0.  0.
         66    2    3    3    0    0  0.11136551092E+02  0.38406987705E+02  0.19982112500E+03  0.20379303589E+03  0.20000006400E+01 0.  0.
         13    1    3    3    0    0 -0.11136551092E+02 -0.38406987705E+02  0.23755191154E+03  0.24089425339E+03  0.10566000000E+00 0. -1.
         13    1    4    4    0    0  0.15357791250E+00  0.25438591282E+00  0.12240599205E+01  0.12640352418E+01  0.10566000000E+00 0. -1.
        -13    1    4    4    0    0  0.74955008687E+01  0.27419701198E+02  0.14323450055E+03  0.14602792836E+03  0.10566000000E+00 0.  1.
         14    1    4    4    0    0  0.34874723104E+01  0.10732900594E+02  0.55362564529E+02  0.56501072287E+02  0.00000000000E+00 0. -1.
<mgrwt>
<rscale>  0 0.80321928E+02</rscale>
<asrwt>0</asrwt>
<pdfrwt beam="1">  1        1 0.67850778E-01 0.80321928E+02</pdfrwt>
<pdfrwt beam="2">  1       -2 0.56263496E-03 0.80321928E+02</pdfrwt>
<totfact> 0.19081806E+05</totfact>
</mgrwt>
</event>
<event>
 8    1  0.1319619E-024  0.7795460E+02  0.7818608E-02  0.1334958E+00
          1   -1    0    0  501    0  0.00000000000E+00  0.00000000000E+00  0.25271354048E+02  0.25271354551E+02  0.50400000000E-02 0. -1.
         -2   -1    0    0    0  501 -0.00000000000E+00 -0.00000000000E+00 -0.60116684347E+02  0.60116684402E+02  0.25500000000E-02 0.  1.
        -24    2    1    2    0    0  0.00000000000E+00  0.00000000000E+00 -0.34845330299E+02  0.85388038952E+02  0.77954603151E+02 0.  0.
         66    2    3    3    0    0  0.16469013836E+01 -0.26480965928E+02  0.13803162866E+02  0.29974675114E+02  0.20000006081E+01 0.  0.
         13    1    3    3    0    0 -0.16469013836E+01  0.26480965928E+02 -0.48648493165E+02  0.55413363838E+02  0.10566000000E+00 0. -1.
         13    1    4    4    0    0  0.21972787491E+00 -0.30596957753E+01  0.93788257008E+00  0.32094869259E+01  0.10566000000E+00 0. -1.
        -13    1    4    4    0    0  0.73067694503E+00 -0.14113893803E+02  0.79840751382E+01  0.16232452277E+02  0.10566000000E+00 0.  1.
        -14    1    4    4    0    0  0.69649656367E+00 -0.93073763501E+01  0.48812051573E+01  0.10532735911E+02  0.00000000000E+00 0.  1.
<mgrwt>
<rscale>  0 0.77954603E+02</rscale>
<asrwt>0</asrwt>
<pdfrwt beam="1">  1        1 0.38879007E-02 0.77954603E+02</pdfrwt>
<pdfrwt beam="2">  1       -2 0.92487206E-02 0.77954603E+02</pdfrwt>
<totfact> 0.12635727E+05</totfact>
</mgrwt>
</event>
<event>
 8    1  0.1319619E-024  0.8012460E+02  0.7818608E-02  0.1328698E+00
         -2   -1    0    0    0  501 -0.00000000000E+00  0.00000000000E+00  0.26608471751E+02  0.26608471874E+02  0.25500000000E-02 0.  1.
          1   -1    0    0  501    0  0.00000000000E+00 -0.00000000000E+00 -0.60318676589E+02  0.60318676800E+02  0.50400000000E-02 0. -1.
        -24    2    1    2    0    0  0.71054273576E-14  0.00000000000E+00 -0.33710204838E+02  0.86927148674E+02  0.80124598385E+02 0.  0.
         66    2    3    3    0    0 -0.39112511425E+02 -0.85233703463E+01 -0.17667564299E+02  0.43801589297E+02  0.20000011658E+01 0.  0.
         13    1    3    3    0    0  0.39112511425E+02  0.85233703463E+01 -0.16042640539E+02  0.43125559377E+02  0.10566000000E+00 0. -1.
         13    1    4    4    0    0 -0.48945611934E+01 -0.76653013924E+00 -0.17842351086E+01  0.52667785874E+01  0.10566000000E+00 0. -1.
        -13    1    4    4    0    0 -0.44419155281E+01 -0.14189441209E+01 -0.19779480097E+01  0.50663061832E+01  0.10566000000E+00 0.  1.
        -14    1    4    4    0    0 -0.29776034704E+02 -0.63378960861E+01 -0.13905381180E+02  0.33468504526E+02  0.00000000000E+00 0.  1.
<mgrwt>
<rscale>  0 0.80124598E+02</rscale>
<asrwt>0</asrwt>
<pdfrwt beam="1">  1        1 0.92797964E-02 0.80124598E+02</pdfrwt>
<pdfrwt beam="2">  1       -2 0.40936111E-02 0.80124598E+02</pdfrwt>
<totfact> 0.13491703E+05</totfact>
</mgrwt>
</event>
<event>
 8    1  0.1319619E-024  0.8222536E+02  0.7818608E-02  0.1322852E+00
         -2   -1    0    0    0  501 -0.00000000000E+00  0.00000000000E+00  0.64461675894E+01  0.64461680937E+01  0.25500000000E-02 0.  1.
          1   -1    0    0  501    0  0.00000000000E+00 -0.00000000000E+00 -0.26221043239E+03  0.26221043244E+03  0.50400000000E-02 0. -1.
        -24    2    1    2    0    0  0.35527136788E-14  0.00000000000E+00 -0.25576426480E+03  0.26865660053E+03  0.82225360203E+02 0.  0.
         66    2    3    3    0    0 -0.25140003482E+02  0.29743150227E+02 -0.85160332308E+02  0.93664064387E+02  0.19999995571E+01 0.  0.
         13    1    3    3    0    0  0.25140003482E+02 -0.29743150227E+02 -0.17060393249E+03  0.17499253614E+03  0.10566000000E+00 0. -1.
         13    1    4    4    0    0 -0.28573991628E+01  0.39685406696E+01 -0.10522653368E+02  0.11603940838E+02  0.10566000000E+00 0. -1.
        -13    1    4    4    0    0 -0.19340550469E+02  0.22916067951E+02 -0.64838962603E+02  0.71437422253E+02  0.10566000000E+00 0.  1.
        -14    1    4    4    0    0 -0.29420538500E+01  0.28585416066E+01 -0.97987163365E+01  0.10622701296E+02  0.00000000000E+00 0.  1.
<mgrwt>
<rscale>  0 0.82225360E+02</rscale>
<asrwt>0</asrwt>
<pdfrwt beam="1">  1        1 0.40340058E-01 0.82225360E+02</pdfrwt>
<pdfrwt beam="2">  1       -2 0.99171833E-03 0.82225360E+02</pdfrwt>
<totfact> 0.16347201E+05</totfact>
</mgrwt>
</event>
<event>
 8    1  0.1319619E-024  0.7981008E+02  0.7818608E-02  0.1329591E+00
          1   -1    0    0  501    0  0.00000000000E+00  0.00000000000E+00  0.71476803769E+02  0.71476803947E+02  0.50400000000E-02 0. -1.
         -2   -1    0    0    0  501 -0.00000000000E+00 -0.00000000000E+00 -0.22278727490E+02  0.22278727636E+02  0.25500000000E-02 0.  1.
        -24    2    1    2    0    0  0.00000000000E+00 -0.17763568394E-14  0.49198076279E+02  0.93755531583E+02  0.79810080773E+02 0.  0.
         66    2    3    3    0    0  0.21297317179E+02  0.14716003396E+02 -0.11022215745E+02  0.28206838153E+02  0.20000009327E+01 0.  0.
         13    1    3    3    0    0 -0.21297317179E+02 -0.14716003396E+02  0.60220292023E+02  0.65548693430E+02  0.10566000000E+00 0. -1.
         13    1    4    4    0    0  0.14543085474E+02  0.10062795530E+02 -0.81858053199E+01  0.19487938879E+02  0.10566000000E+00 0.  1.
        -13    1    4    4    0    0  0.62933504706E+01  0.45226425893E+01 -0.25427885691E+01  0.81570517884E+01  0.10566000000E+00 0. -1.
         14    1    4    4    0    0  0.46088123395E+00  0.13056527693E+00 -0.29362185574E+00  0.56184748599E+00  0.00000000000E+00 0. -1.
<mgrwt>
<rscale>  0 0.79810081E+02</rscale>
<asrwt>0</asrwt>
<pdfrwt beam="1">  1        1 0.10996431E-01 0.79810081E+02</pdfrwt>
<pdfrwt beam="2">  1       -2 0.34274966E-02 0.79810081E+02</pdfrwt>
<totfact> 0.14007360E+05</totfact>
</mgrwt>
</event>
<event>
 8    1  0.1319619E-024  0.8784996E+02  0.7818608E-02  0.1308143E+00
         -2   -1    0    0    0  501 -0.00000000000E+00  0.00000000000E+00  0.24874767311E+03  0.24874767312E+03  0.25500000000E-02 0.  1.
          1   -1    0    0  501    0  0.00000000000E+00 -0.00000000000E+00 -0.77564683612E+01  0.77564699987E+01  0.50400000000E-02 0. -1.
        -24    2    1    2    0    0 -0.17763568394E-14  0.00000000000E+00  0.24099120474E+03  0.25650414312E+03  0.87849955448E+02 0.  0.
         66    2    3    3    0    0 -0.99188789890E+01 -0.10722352998E+02  0.24144054446E+03  0.24189024273E+03  0.20000016773E+01 0.  0.
         13    1    3    3    0    0  0.99188789890E+01  0.10722352998E+02 -0.44933971452E+00  0.14613900384E+02  0.10566000000E+00 0. -1.
         13    1    4    4    0    0 -0.17404204904E+01 -0.12158157254E+01  0.32922767230E+02  0.32991317608E+02  0.10566000000E+00 0.  1.
        -13    1    4    4    0    0 -0.64396278538E+01 -0.78879979842E+01  0.16089968717E+03  0.16122161708E+03  0.10566000000E+00 0. -1.
         14    1    4    4    0    0 -0.17388306448E+01 -0.16185392888E+01  0.47618090063E+02  0.47677308048E+02  0.00000000000E+00 0. -1.
<mgrwt>
<rscale>  0 0.87849955E+02</rscale>
<asrwt>0</asrwt>
<pdfrwt beam="1">  1        1 0.11933031E-02 0.87849955E+02</pdfrwt>
<pdfrwt beam="2">  1       -2 0.38268869E-01 0.87849955E+02</pdfrwt>
<totfact> 0.60656467E+04</totfact>
</mgrwt>
</event>
<event>
 8    1  0.1319619E-024  0.7999269E+02  0.7818608E-02  0.1329072E+00
         -2   -1    0    0    0  501 -0.00000000000E+00  0.00000000000E+00  0.26810153689E+03  0.26810153690E+03  0.25500000000E-02 0.  1.
          1   -1    0    0  501    0  0.00000000000E+00 -0.00000000000E+00 -0.59667971491E+01  0.59667992777E+01  0.50400000000E-02 0. -1.
        -24    2    1    2    0    0  0.00000000000E+00 -0.71054273576E-14  0.26213473974E+03  0.27406833618E+03  0.79992694150E+02 0.  0.
         66    2    3    3    0    0  0.14137453352E+01  0.38431929716E+02  0.16847557523E+03  0.17282080704E+03  0.19999991549E+01 0.  0.
         13    1    3    3    0    0 -0.14137453352E+01 -0.38431929716E+02  0.93659164505E+02  0.10124752914E+03  0.10566000000E+00 0. -1.
         13    1    4    4    0    0  0.26782237068E+00  0.48826169859E+01  0.20400495754E+02  0.20978633618E+02  0.10566000000E+00 0. -1.
        -13    1    4    4    0    0  0.13254453542E+01  0.27958137617E+02  0.12567431178E+03  0.12875347789E+03  0.10566000000E+00 0.  1.
        -14    1    4    4    0    0 -0.17952238964E+00  0.55911751130E+01  0.22400767703E+02  0.23088695527E+02  0.00000000000E+00 0.  1.
<mgrwt>
<rscale>  0 0.79992694E+02</rscale>
<asrwt>0</asrwt>
<pdfrwt beam="1">  1        1 0.91796915E-03 0.79992694E+02</pdfrwt>
<pdfrwt beam="2">  1       -2 0.41246382E-01 0.79992694E+02</pdfrwt>
<totfact> 0.74539667E+04</totfact>
</mgrwt>
</event>
<event>
 8    1  0.1319619E-024  0.7887192E+02  0.7818608E-02  0.1332284E+00
          1   -1    0    0  501    0  0.00000000000E+00  0.00000000000E+00  0.22577030103E+03  0.22577030109E+03  0.50400000000E-02 0. -1.
         -2   -1    0    0    0  501 -0.00000000000E+00 -0.00000000000E+00 -0.68883940749E+01  0.68883945469E+01  0.25500000000E-02 0.  1.
        -24    2    1    2    0    0 -0.35527136788E-14  0.00000000000E+00  0.21888190696E+03  0.23265869563E+03  0.78871918079E+02 0.  0.
         66    2    3    3    0    0  0.28305043368E+02  0.15329269341E+02  0.42437176385E+02  0.53301744030E+02  0.19999996152E+01 0.  0.
         13    1    3    3    0    0 -0.28305043368E+02 -0.15329269341E+02  0.17644473057E+03  0.17935695161E+03  0.10566000000E+00 0. -1.
         13    1    4    4    0    0  0.22773509744E+01  0.12737047151E+01  0.39120262851E+01  0.47035906340E+01  0.10566000000E+00 0. -1.
        -13    1    4    4    0    0  0.24184692503E+02  0.12976072824E+02  0.35022726674E+02  0.44495846605E+02  0.10566000000E+00 0.  1.
        -14    1    4    4    0    0  0.18429998910E+01  0.10794918025E+01  0.35024234260E+01  0.41023067907E+01  0.00000000000E+00 0.  1.
<mgrwt>
<rscale>  0 0.78871918E+02</rscale>
<asrwt>0</asrwt>
<pdfrwt beam="1">  1        1 0.34733890E-01 0.78871918E+02</pdfrwt>
<pdfrwt beam="2">  1       -2 0.10597531E-02 0.78871918E+02</pdfrwt>
<totfact> 0.17726265E+05</totfact>
</mgrwt>
</event>
<event>
 8    1  0.1319619E-024  0.8040876E+02  0.7818608E-02  0.1327895E+00
          1   -1    0    0  501    0  0.00000000000E+00  0.00000000000E+00  0.29476443450E+02  0.29476443881E+02  0.50400000000E-02 0. -1.
         -2   -1    0    0    0  501 -0.00000000000E+00 -0.00000000000E+00 -0.54836748391E+02  0.54836748451E+02  0.25500000000E-02 0.  1.
        -24    2    1    2    0    0  0.00000000000E+00  0.00000000000E+00 -0.25360304941E+02  0.84313192331E+02  0.80408764040E+02 0.  0.
         66    2    3    3    0    0  0.14432370220E+01  0.11739144812E+02 -0.52951712310E+02  0.54293409211E+02  0.19999982949E+01 0.  0.
         13    1    3    3    0    0 -0.14432370220E+01 -0.11739144812E+02  0.27591407368E+02  0.30019783121E+02  0.10566000000E+00 0. -1.
         13    1    4    4    0    0 -0.17112774258E+00  0.21302926219E+01 -0.70902591014E+01  0.74061035316E+01  0.10566000000E+00 0. -1.
        -13    1    4    4    0    0  0.77206572976E+00  0.49467256382E+01 -0.24570306740E+02  0.25075432546E+02  0.10566000000E+00 0.  1.
         14    1    4    4    0    0  0.84229903478E+00  0.46621265517E+01 -0.21291146468E+02  0.21811873133E+02  0.00000000000E+00 0. -1.
<mgrwt>
<rscale>  0 0.80408764E+02</rscale>
<asrwt>0</asrwt>
<pdfrwt beam="1">  1        1 0.45348375E-02 0.80408764E+02</pdfrwt>
<pdfrwt beam="2">  1       -2 0.84364228E-02 0.80408764E+02</pdfrwt>
<totfact> 0.11881371E+05</totfact>
</mgrwt>
</event>
<event>
 8    1  0.1319619E-024  0.7883724E+02  0.7818608E-02  0.1332384E+00
          1   -1    0    0  501    0  0.00000000000E+00  0.00000000000E+00  0.13713716471E+02  0.13713717397E+02  0.50400000000E-02 0. -1.
         -2   -1    0    0    0  501 -0.00000000000E+00 -0.00000000000E+00 -0.11330462875E+03  0.11330462877E+03  0.25500000000E-02 0.  1.
        -24    2    1    2    0    0  0.00000000000E+00  0.00000000000E+00 -0.99590912274E+02  0.12701834617E+03  0.78837240290E+02 0.  0.
         66    2    3    3    0    0 -0.37410898252E+01 -0.23212634975E+02 -0.10075087230E+03  0.10347734265E+03  0.19999990262E+01 0.  0.
         13    1    3    3    0    0  0.37410898252E+01  0.23212634975E+02  0.11599600297E+01  0.23541003523E+02  0.10566000000E+00 0. -1.
         13    1    4    4    0    0 -0.44431114187E-01 -0.44772455877E+01 -0.19245500796E+02  0.19759761312E+02  0.10566000000E+00 0. -1.
        -13    1    4    4    0    0 -0.86130757800E+00 -0.50298499369E+01 -0.20194140686E+02  0.20829203615E+02  0.10566000000E+00 0.  1.
         14    1    4    4    0    0 -0.28353511330E+01 -0.13705539450E+02 -0.61311230822E+02  0.62888377722E+02  0.00000000000E+00 0. -1.
<mgrwt>
<rscale>  0 0.78837240E+02</rscale>
<asrwt>0</asrwt>
<pdfrwt beam="1">  1        1 0.21098027E-02 0.78837240E+02</pdfrwt>
<pdfrwt beam="2">  1       -2 0.17431481E-01 0.78837240E+02</pdfrwt>
<totfact> 0.10668412E+05</totfact>
</mgrwt>
</event>
<event>
 8    1  0.1319619E-024  0.8011657E+02  0.7818608E-02  0.1328721E+00
          1   -1    0    0  501    0  0.00000000000E+00  0.00000000000E+00  0.80700193656E+01  0.80700209395E+01  0.50400000000E-02 0. -1.
         -2   -1    0    0    0  501 -0.00000000000E+00 -0.00000000000E+00 -0.19884287994E+03  0.19884287996E+03  0.25500000000E-02 0.  1.
        -24    2    1    2    0    0 -0.35527136788E-14  0.00000000000E+00 -0.19077286058E+03  0.20691290090E+03  0.80116566486E+02 0.  0.
         66    2    3    3    0    0  0.26208439032E+02  0.11986524309E+02 -0.16720903941E+03  0.16968624548E+03  0.20000009877E+01 0.  0.
         13    1    3    3    0    0 -0.26208439032E+02 -0.11986524309E+02 -0.23563821168E+02  0.37226655417E+02  0.10566000000E+00 0. -1.
         13    1    4    4    0    0  0.11821625408E+02  0.58478191922E+01 -0.75709357169E+02  0.76849630731E+02  0.10566000000E+00 0. -1.
        -13    1    4    4    0    0  0.84582479301E+01  0.43105632834E+01 -0.55748584261E+02  0.56551204452E+02  0.10566000000E+00 0.  1.
         14    1    4    4    0    0  0.59285656935E+01  0.18281418332E+01 -0.35751097981E+02  0.36285410300E+02  0.00000000000E+00 0. -1.
<mgrwt>
<rscale>  0 0.80116566E+02</rscale>
<asrwt>0</asrwt>
<pdfrwt beam="1">  1        1 0.12415417E-02 0.80116566E+02</pdfrwt>
<pdfrwt beam="2">  1       -2 0.30591209E-01 0.80116566E+02</pdfrwt>
<totfact> 0.84956494E+04</totfact>
</mgrwt>
</event>
<event>
 8    1  0.1319619E-024  0.7924911E+02  0.7818608E-02  0.1331196E+00
         -2   -1    0    0    0  501 -0.00000000000E+00  0.00000000000E+00  0.81237267068E+02  0.81237267108E+02  0.25500000000E-02 0.  1.
          1   -1    0    0  501    0  0.00000000000E+00 -0.00000000000E+00 -0.19327402447E+02  0.19327403104E+02  0.50400000000E-02 0. -1.
        -24    2    1    2    0    0  0.00000000000E+00  0.35527136788E-14  0.61909864621E+02  0.10056467021E+03  0.79249110768E+02 0.  0.
         66    2    3    3    0    0 -0.31603564580E+02  0.19096254029E+02  0.12821315571E+02  0.39138706452E+02  0.19999994150E+01 0.  0.
         13    1    3    3    0    0  0.31603564580E+02 -0.19096254029E+02  0.49088549050E+02  0.61425963761E+02  0.10566000000E+00 0. -1.
         13    1    4    4    0    0 -0.34078440752E+01  0.23463947223E+01  0.10180531336E+01  0.42622254342E+01  0.10566000000E+00 0. -1.
        -13    1    4    4    0    0 -0.26599383371E+02  0.16081780201E+02  0.11312980948E+02  0.33077871034E+02  0.10566000000E+00 0.  1.
        -14    1    4    4    0    0 -0.15963371332E+01  0.66807910529E+00  0.49028148949E+00  0.17986099835E+01  0.00000000000E+00 0.  1.
<mgrwt>
<rscale>  0 0.79249111E+02</rscale>
<asrwt>0</asrwt>
<pdfrwt beam="1">  1        1 0.29734466E-02 0.79249111E+02</pdfrwt>
<pdfrwt beam="2">  1       -2 0.12498041E-01 0.79249111E+02</pdfrwt>
<totfact> 0.11409847E+05</totfact>
</mgrwt>
</event>
<event>
 8    1  0.1319619E-024  0.8024957E+02  0.7818608E-02  0.1328345E+00
         -2   -1    0    0    0  501 -0.00000000000E+00  0.00000000000E+00  0.96598321497E+02  0.96598321531E+02  0.25500000000E-02 0.  1.
          1   -1    0    0  501    0  0.00000000000E+00 -0.00000000000E+00 -0.16666939892E+02  0.16666940654E+02  0.50400000000E-02 0. -1.
        -24    2    1    2    0    0  0.00000000000E+00 -0.35527136788E-14  0.79931381605E+02  0.11326526219E+03  0.80249572289E+02 0.  0.
         66    2    3    3    0    0  0.26198690838E+02  0.26478390105E+02  0.60949659072E+02  0.71458641914E+02  0.20000047404E+01 0.  0.
         13    1    3    3    0    0 -0.26198690838E+02 -0.26478390105E+02  0.18981722533E+02  0.41806620272E+02  0.10566000000E+00 0. -1.
         13    1    4    4    0    0  0.40300577275E+01  0.40487062636E+01  0.99129696317E+01  0.11441657164E+02  0.10566000000E+00 0.  1.
        -13    1    4    4    0    0  0.45129909356E+01  0.36626413288E+01  0.94433075530E+01  0.11089150115E+02  0.10566000000E+00 0.  1.
        -14    1    4    4    0    0  0.17655642175E+02  0.18767042512E+02  0.41593381887E+02  0.48927834635E+02  0.00000000000E+00 0.  1.
<mgrwt>
<rscale>  0 0.80249572E+02</rscale>
<asrwt>0</asrwt>
<pdfrwt beam="1">  1        1 0.25641447E-02 0.80249572E+02</pdfrwt>
<pdfrwt beam="2">  1       -2 0.14861280E-01 0.80249572E+02</pdfrwt>
<totfact> 0.10618428E+05</totfact>
</mgrwt>
</event>
<event>
 8    1  0.1319619E-024  0.8265366E+02  0.7818608E-02  0.1321685E+00
         -2   -1    0    0    0  501 -0.00000000000E+00  0.00000000000E+00  0.47976906545E+03  0.47976906546E+03  0.25500000000E-02 0.  1.
          1   -1    0    0  501    0  0.00000000000E+00 -0.00000000000E+00 -0.35598500787E+01  0.35598536465E+01  0.50400000000E-02 0. -1.
        -24    2    1    2    0    0  0.00000000000E+00  0.35527136788E-14  0.47620921537E+03  0.48332891911E+03  0.82653658341E+02 0.  0.
         66    2    3    3    0    0 -0.94362489169E+01  0.20518427311E+02  0.44046154645E+03  0.44104469450E+03  0.19999984250E+01 0.  0.
         13    1    3    3    0    0  0.94362489169E+01 -0.20518427311E+02  0.35747668927E+02  0.42284224608E+02  0.10566000000E+00 0. -1.
         13    1    4    4    0    0 -0.79922174849E+01  0.16934340923E+02  0.36478278042E+03  0.36526310448E+03  0.10566000000E+00 0. -1.
        -13    1    4    4    0    0 -0.15220881289E+01  0.33160155640E+01  0.71847795584E+02  0.71940458755E+02  0.10566000000E+00 0.  1.
         14    1    4    4    0    0  0.78056696980E-01  0.26807082413E+00  0.38309704471E+01  0.38411312633E+01  0.00000000000E+00 0. -1.
<mgrwt>
<rscale>  0 0.82653658E+02</rscale>
<asrwt>0</asrwt>
<pdfrwt beam="1">  1        1 0.54766931E-03 0.82653658E+02</pdfrwt>
<pdfrwt beam="2">  1       -2 0.73810654E-01 0.82653658E+02</pdfrwt>
<totfact> 0.47779802E+04</totfact>
</mgrwt>
</event>
<event>
 8    1  0.1319619E-024  0.7713041E+02  0.7818608E-02  0.1337398E+00
          1   -1    0    0  501    0  0.00000000000E+00  0.00000000000E+00  0.20789932805E+02  0.20789933415E+02  0.50400000000E-02 0. -1.
         -2   -1    0    0    0  501 -0.00000000000E+00 -0.00000000000E+00 -0.71538226602E+02  0.71538226648E+02  0.25500000000E-02 0.  1.
        -24    2    1    2    0    0  0.00000000000E+00  0.00000000000E+00 -0.50748293798E+02  0.92328160063E+02  0.77130407864E+02 0.  0.
         66    2    3    3    0    0  0.26373704884E+02 -0.27053172940E+02 -0.16288653895E+02  0.41191828344E+02  0.20000002896E+01 0.  0.
         13    1    3    3    0    0 -0.26373704884E+02  0.27053172940E+02 -0.34459639903E+02  0.51136331719E+02  0.10566000000E+00 0. -1.
         13    1    4    4    0    0  0.21788171987E+02 -0.22774912828E+02 -0.13299209595E+02  0.34209665780E+02  0.10566000000E+00 0. -1.
        -13    1    4    4    0    0  0.23782210003E+01 -0.26391151365E+01 -0.18398083037E+01  0.40021147485E+01  0.10566000000E+00 0.  1.
         14    1    4    4    0    0  0.22073118967E+01 -0.16391449753E+01 -0.11496359957E+01  0.29800478154E+01  0.00000000000E+00 0. -1.
<mgrwt>
<rscale>  0 0.77130408E+02</rscale>
<asrwt>0</asrwt>
<pdfrwt beam="1">  1        1 0.31984513E-02 0.77130408E+02</pdfrwt>
<pdfrwt beam="2">  1       -2 0.11005881E-01 0.77130408E+02</pdfrwt>
<totfact> 0.12553279E+05</totfact>
</mgrwt>
</event>
<event>
 8    1  0.1319619E-024  0.7975542E+02  0.7818608E-02  0.1329747E+00
          1   -1    0    0  501    0  0.00000000000E+00  0.00000000000E+00  0.40521398991E+02  0.40521399305E+02  0.50400000000E-02 0. -1.
         -2   -1    0    0    0  501 -0.00000000000E+00 -0.00000000000E+00 -0.39244246923E+02  0.39244247006E+02  0.25500000000E-02 0.  1.
        -24    2    1    2    0    0  0.00000000000E+00  0.00000000000E+00  0.12771520686E+01  0.79765646310E+02  0.79755421219E+02 0.  0.
         66    2    3    3    0    0  0.11779859105E+01  0.38069156356E+02 -0.11091914965E+02  0.39720006101E+02  0.19999976590E+01 0.  0.
         13    1    3    3    0    0 -0.11779859105E+01 -0.38069156356E+02  0.12369067034E+02  0.40045640209E+02  0.10566000000E+00 0. -1.
         13    1    4    4    0    0  0.19154093261E+00  0.17458738917E+01 -0.12979262630E+00  0.17643054543E+01  0.10566000000E+00 0. -1.
        -13    1    4    4    0    0  0.46597323649E+00  0.15206570527E+02 -0.44487089269E+01  0.15851154323E+02  0.10566000000E+00 0.  1.
        -14    1    4    4    0    0  0.52047174142E+00  0.21116711937E+02 -0.65134134123E+01  0.22104546323E+02  0.00000000000E+00 0.  1.
<mgrwt>
<rscale>  0 0.79755421E+02</rscale>
<asrwt>0</asrwt>
<pdfrwt beam="1">  1        1 0.62340615E-02 0.79755421E+02</pdfrwt>
<pdfrwt beam="2">  1       -2 0.60375764E-02 0.79755421E+02</pdfrwt>
<totfact> 0.12834370E+05</totfact>
</mgrwt>
</event>
<event>
 8    1  0.1319619E-024  0.7944621E+02  0.7818608E-02  0.1330630E+00
          1   -1    0    0  501    0  0.00000000000E+00  0.00000000000E+00  0.40025568804E+01  0.40025600536E+01  0.50400000000E-02 0. -1.
         -2   -1    0    0    0  501 -0.00000000000E+00 -0.00000000000E+00 -0.39422908294E+03  0.39422908295E+03  0.25500000000E-02 0.  1.
        -24    2    1    2    0    0  0.00000000000E+00  0.00000000000E+00 -0.39022652606E+03  0.39823164300E+03  0.79446207257E+02 0.  0.
         66    2    3    3    0    0  0.29176891718E+02 -0.16109601134E+02 -0.30334021034E+03  0.30517223572E+03  0.19999976567E+01 0.  0.
         13    1    3    3    0    0 -0.29176891718E+02  0.16109601134E+02 -0.86886315724E+02  0.93059407279E+02  0.10566000000E+00 0. -1.
         13    1    4    4    0    0  0.14346361678E+02 -0.71208865746E+01 -0.15068944178E+03  0.15153825968E+03  0.10566000000E+00 0. -1.
        -13    1    4    4    0    0  0.78672718193E+01 -0.46707920752E+01 -0.83147912041E+02  0.83649845817E+02  0.10566000000E+00 0.  1.
         14    1    4    4    0    0  0.69632582208E+01 -0.43179224839E+01 -0.69502856516E+02  0.69984130226E+02  0.00000000000E+00 0. -1.
<mgrwt>
<rscale>  0 0.79446207E+02</rscale>
<asrwt>0</asrwt>
<pdfrwt beam="1">  1        1 0.61577854E-03 0.79446207E+02</pdfrwt>
<pdfrwt beam="2">  1       -2 0.60650598E-01 0.79446207E+02</pdfrwt>
<totfact> 0.60742954E+04</totfact>
</mgrwt>
</event>
<event>
 8    1  0.1319619E-024  0.8639703E+02  0.7818608E-02  0.1311819E+00
         -2   -1    0    0    0  501 -0.00000000000E+00  0.00000000000E+00  0.43036545574E+02  0.43036545650E+02  0.25500000000E-02 0.  1.
          1   -1    0    0  501    0  0.00000000000E+00 -0.00000000000E+00 -0.43361097808E+02  0.43361098101E+02  0.50400000000E-02 0. -1.
        -24    2    1    2    0    0  0.00000000000E+00  0.00000000000E+00 -0.32455223316E+00  0.86397643751E+02  0.86397034159E+02 0.  0.
         66    2    3    3    0    0  0.11568285772E+01 -0.41832195194E+02  0.10460141585E+02  0.43182003158E+02  0.20000069177E+01 0.  0.
         13    1    3    3    0    0 -0.11568285772E+01  0.41832195194E+02 -0.10784693818E+02  0.43215640593E+02  0.10566000000E+00 0. -1.
         13    1    4    4    0    0  0.12519575865E+01 -0.15549004578E+02  0.42944197118E+01  0.16179992146E+02  0.10566000000E+00 0. -1.
        -13    1    4    4    0    0  0.76336699360E-01 -0.13597307881E+02  0.34149202697E+01  0.14020180219E+02  0.10566000000E+00 0.  1.
         14    1    4    4    0    0 -0.17146570868E+00 -0.12685882735E+02  0.27508016033E+01  0.12981830792E+02  0.00000000000E+00 0. -1.
<mgrwt>
<rscale>  0 0.86397034E+02</rscale>
<asrwt>0</asrwt>
<pdfrwt beam="1">  1        1 0.66709381E-02 0.86397034E+02</pdfrwt>
<pdfrwt beam="2">  1       -2 0.66210071E-02 0.86397034E+02</pdfrwt>
<totfact> 0.10351720E+05</totfact>
</mgrwt>
</event>
<event>
 8    1  0.1319619E-024  0.7969169E+02  0.7818608E-02  0.1329929E+00
          1   -1    0    0  501    0  0.00000000000E+00  0.00000000000E+00  0.31075710903E+02  0.31075711311E+02  0.50400000000E-02 0. -1.
         -2   -1    0    0    0  501 -0.00000000000E+00 -0.00000000000E+00 -0.51091068242E+02  0.51091068305E+02  0.25500000000E-02 0.  1.
        -24    2    1    2    0    0 -0.17763568394E-14 -0.17763568394E-14 -0.20015357339E+02  0.82166779617E+02  0.79691688043E+02 0.  0.
         66    2    3    3    0    0  0.11147122368E+02  0.88284559045E+01 -0.48364433476E+02  0.50451148572E+02  0.19999989989E+01 0.  0.
         13    1    3    3    0    0 -0.11147122368E+02 -0.88284559045E+01  0.28349076137E+02  0.31715631045E+02  0.10566000000E+00 0. -1.
         13    1    4    4    0    0  0.59247713668E+01  0.40963586164E+01 -0.22989718006E+02  0.24091935739E+02  0.10566000000E+00 0. -1.
        -13    1    4    4    0    0  0.50717173751E+00  0.40623154979E+00 -0.37603517235E+01  0.38175458561E+01  0.10566000000E+00 0.  1.
        -14    1    4    4    0    0  0.47151792635E+01  0.43258657383E+01 -0.21614363747E+02  0.22541666976E+02  0.00000000000E+00 0.  1.
<mgrwt>
<rscale>  0 0.79691688E+02</rscale>
<asrwt>0</asrwt>
<pdfrwt beam="1">  1        1 0.47808786E-02 0.79691688E+02</pdfrwt>
<pdfrwt beam="2">  1       -2 0.78601644E-02 0.79691688E+02</pdfrwt>
<totfact> 0.12305398E+05</totfact>
</mgrwt>
</event>
<event>
 8    1  0.1319619E-024  0.8123298E+02  0.7818608E-02  0.1325588E+00
          1   -1    0    0  501    0  0.00000000000E+00  0.00000000000E+00  0.14240001256E+03  0.14240001265E+03  0.50400000000E-02 0. -1.
         -2   -1    0    0    0  501 -0.00000000000E+00 -0.00000000000E+00 -0.11584965952E+02  0.11584966232E+02  0.25500000000E-02 0.  1.
        -24    2    1    2    0    0  0.00000000000E+00  0.17763568394E-14  0.13081504660E+03  0.15398497888E+03  0.81232981614E+02 0.  0.
         66    2    3    3    0    0  0.28195936501E+02 -0.14501831408E+02  0.17402735078E+02  0.36223875286E+02  0.20000008097E+01 0.  0.
         13    1    3    3    0    0 -0.28195936501E+02  0.14501831408E+02  0.11341231153E+03  0.11776110359E+03  0.10566000000E+00 0. -1.
         13    1    4    4    0    0  0.18375132664E+01 -0.99036443915E+00  0.73491617030E+00  0.22155230848E+01  0.10566000000E+00 0. -1.
        -13    1    4    4    0    0  0.12987708709E+02 -0.70294874729E+01  0.77449270573E+01  0.16676010638E+02  0.10566000000E+00 0.  1.
         14    1    4    4    0    0  0.13370714525E+02 -0.64819794955E+01  0.89228918506E+01  0.17332341563E+02  0.00000000000E+00 0. -1.
<mgrwt>
<rscale>  0 0.81232982E+02</rscale>
<asrwt>0</asrwt>
<pdfrwt beam="1">  1        1 0.21907694E-01 0.81232982E+02</pdfrwt>
<pdfrwt beam="2">  1       -2 0.17823025E-02 0.81232982E+02</pdfrwt>
<totfact> 0.15010910E+05</totfact>
</mgrwt>
</event>
<event>
 8    1  0.1319619E-024  0.8008192E+02  0.7818608E-02  0.1328819E+00
         -2   -1    0    0    0  501 -0.00000000000E+00  0.00000000000E+00  0.31951890322E+02  0.31951890423E+02  0.25500000000E-02 0.  1.
          1   -1    0    0  501    0  0.00000000000E+00 -0.00000000000E+00 -0.50177897001E+02  0.50177897254E+02  0.50400000000E-02 0. -1.
        -24    2    1    2    0    0 -0.17763568394E-14  0.00000000000E+00 -0.18226006680E+02  0.82129787678E+02  0.80081924955E+02 0.  0.
         66    2    3    3    0    0 -0.14887998244E+02 -0.16594356657E+02  0.24961330821E+02  0.33527499162E+02  0.19999997751E+01 0.  0.
         13    1    3    3    0    0  0.14887998244E+02  0.16594356657E+02 -0.43187337500E+02  0.48602288516E+02  0.10566000000E+00 0. -1.
         13    1    4    4    0    0 -0.30831576424E+01 -0.29778536195E+01  0.39204050452E+01  0.58098376037E+01  0.10566000000E+00 0. -1.
        -13    1    4    4    0    0 -0.66204129659E+01 -0.82563082090E+01  0.12564595143E+02  0.16427924648E+02  0.10566000000E+00 0.  1.
         14    1    4    4    0    0 -0.51844276357E+01 -0.53601948290E+01  0.84763306322E+01  0.11289736910E+02  0.00000000000E+00 0. -1.
<mgrwt>
<rscale>  0 0.80081925E+02</rscale>
<asrwt>0</asrwt>
<pdfrwt beam="1">  1        1 0.77196766E-02 0.80081925E+02</pdfrwt>
<pdfrwt beam="2">  1       -2 0.49156754E-02 0.80081925E+02</pdfrwt>
<totfact> 0.13127039E+05</totfact>
</mgrwt>
</event>
<event>
 8    1  0.1319619E-024  0.8306605E+02  0.7818608E-02  0.1320569E+00
          1   -1    0    0  501    0  0.00000000000E+00  0.00000000000E+00  0.90856805181E+01  0.90856819160E+01  0.50400000000E-02 0. -1.
         -2   -1    0    0    0  501 -0.00000000000E+00 -0.00000000000E+00 -0.18985833403E+03  0.18985833405E+03  0.25500000000E-02 0.  1.
        -24    2    1    2    0    0  0.00000000000E+00  0.16653345369E-15 -0.18077265351E+03  0.19894401596E+03  0.83066053414E+02 0.  0.
         66    2    3    3    0    0  0.26438252975E+02 -0.48291645108E+00 -0.16707039388E+03  0.16916184828E+03  0.19999939284E+01 0.  0.
         13    1    3    3    0    0 -0.26438252975E+02  0.48291645108E+00 -0.13702259637E+02  0.29782167682E+02  0.10566000000E+00 0. -1.
         13    1    4    4    0    0  0.55833524016E+01  0.32420686715E+00 -0.37602433187E+02  0.38016221272E+02  0.10566000000E+00 0.  1.
        -13    1    4    4    0    0  0.24645022566E+01  0.21376533693E+00 -0.13798777683E+02  0.14019161764E+02  0.10566000000E+00 0.  1.
         14    1    4    4    0    0  0.18390398316E+02 -0.10208886552E+01 -0.11566918300E+03  0.11712646525E+03  0.00000000000E+00 0. -1.
<mgrwt>
<rscale>  0 0.83066053E+02</rscale>
<asrwt>0</asrwt>
<pdfrwt beam="1">  1        1 0.13977973E-02 0.83066053E+02</pdfrwt>
<pdfrwt beam="2">  1       -2 0.29208972E-01 0.83066053E+02</pdfrwt>
<totfact> 0.78820432E+04</totfact>
</mgrwt>
</event>
<event>
 8    1  0.1319619E-024  0.8213101E+02  0.7818608E-02  0.1323110E+00
         -2   -1    0    0    0  501 -0.00000000000E+00  0.00000000000E+00  0.19176916774E+02  0.19176916944E+02  0.25500000000E-02 0.  1.
          1   -1    0    0  501    0  0.00000000000E+00 -0.00000000000E+00 -0.87937790092E+02  0.87937790237E+02  0.50400000000E-02 0. -1.
        -24    2    1    2    0    0  0.88817841970E-15 -0.17763568394E-14 -0.68760873318E+02  0.10711470718E+03  0.82131009947E+02 0.  0.
         66    2    3    3    0    0  0.72853522719E+01 -0.14725924707E+02  0.14648716116E+02  0.22102355197E+02  0.20000013068E+01 0.  0.
         13    1    3    3    0    0 -0.72853522719E+01  0.14725924707E+02 -0.83409589434E+02  0.85012351983E+02  0.10566000000E+00 0. -1.
         13    1    4    4    0    0  0.42404600677E+01 -0.90336676103E+01  0.84462430409E+01  0.13074358019E+02  0.10566000000E+00 0. -1.
        -13    1    4    4    0    0  0.14476103953E+01 -0.31316527641E+01  0.40487144949E+01  0.53203456644E+01  0.10566000000E+00 0.  1.
         14    1    4    4    0    0  0.15972818089E+01 -0.25606043325E+01  0.21537585801E+01  0.37076515136E+01  0.00000000000E+00 0. -1.
<mgrwt>
<rscale>  0 0.82131010E+02</rscale>
<asrwt>0</asrwt>
<pdfrwt beam="1">  1        1 0.13528891E-01 0.82131010E+02</pdfrwt>
<pdfrwt beam="2">  1       -2 0.29502949E-02 0.82131010E+02</pdfrwt>
<totfact> 0.13396162E+05</totfact>
</mgrwt>
</event>
<event>
 8    1  0.1319619E-024  0.8132534E+02  0.7818608E-02  0.1325332E+00
          1   -1    0    0  501    0  0.00000000000E+00  0.00000000000E+00  0.57345551810E+02  0.57345552031E+02  0.50400000000E-02 0. -1.
         -2   -1    0    0    0  501 -0.00000000000E+00 -0.00000000000E+00 -0.28833146438E+02  0.28833146550E+02  0.25500000000E-02 0.  1.
        -24    2    1    2    0    0  0.00000000000E+00  0.35527136788E-14  0.28512405372E+02  0.86178698582E+02  0.81325339404E+02 0.  0.
         66    2    3    3    0    0  0.14562088648E+01 -0.22065567374E+02 -0.21864447988E+02  0.31161898182E+02  0.20000011756E+01 0.  0.
         13    1    3    3    0    0 -0.14562088648E+01  0.22065567374E+02  0.50376853360E+02  0.55016800400E+02  0.10566000000E+00 0. -1.
         13    1    4    4    0    0 -0.27609538133E+00 -0.28223597307E+01 -0.22392442391E+01  0.36148750888E+01  0.10566000000E+00 0. -1.
        -13    1    4    4    0    0  0.15469073329E+01 -0.17437790277E+02 -0.18026839108E+02  0.25128620024E+02  0.10566000000E+00 0.  1.
         14    1    4    4    0    0  0.18539691318E+00 -0.18054173661E+01 -0.15983646409E+01  0.24184030695E+01  0.00000000000E+00 0. -1.
<mgrwt>
<rscale>  0 0.81325339E+02</rscale>
<asrwt>0</asrwt>
<pdfrwt beam="1">  1        1 0.88223927E-02 0.81325339E+02</pdfrwt>
<pdfrwt beam="2">  1       -2 0.44358687E-02 0.81325339E+02</pdfrwt>
<totfact> 0.12845560E+05</totfact>
</mgrwt>
</event>
<event>
 8    1  0.1319619E-024  0.7960489E+02  0.7818608E-02  0.1330176E+00
          1   -1    0    0  501    0  0.00000000000E+00  0.00000000000E+00  0.46082100190E+02  0.46082100466E+02  0.50400000000E-02 0. -1.
         -2   -1    0    0    0  501 -0.00000000000E+00 -0.00000000000E+00 -0.34378526413E+02  0.34378526508E+02  0.25500000000E-02 0.  1.
        -24    2    1    2    0    0  0.00000000000E+00  0.00000000000E+00  0.11703573777E+02  0.80460626974E+02  0.79604892148E+02 0.  0.
         66    2    3    3    0    0  0.15813781122E+02  0.34070911352E+02 -0.73744327426E+01  0.38331252773E+02  0.20000017921E+01 0.  0.
         13    1    3    3    0    0 -0.15813781122E+02 -0.34070911352E+02  0.19078006519E+02  0.42129374201E+02  0.10566000000E+00 0. -1.
         13    1    4    4    0    0  0.17996185916E+01  0.39961941962E+01 -0.33507067053E+00  0.43967751272E+01  0.10566000000E+00 0.  1.
        -13    1    4    4    0    0  0.42345505818E+01  0.10044276714E+02 -0.25906628251E+01  0.11204535298E+02  0.10566000000E+00 0. -1.
        -14    1    4    4    0    0  0.97796119484E+01  0.20030440442E+02 -0.44486992470E+01  0.22729942348E+02  0.00000000000E+00 0.  1.
<mgrwt>
<rscale>  0 0.79604892E+02</rscale>
<asrwt>0</asrwt>
<pdfrwt beam="1">  1        1 0.70895539E-02 0.79604892E+02</pdfrwt>
<pdfrwt beam="2">  1       -2 0.52890041E-02 0.79604892E+02</pdfrwt>
<totfact> 0.13169606E+05</totfact>
</mgrwt>
</event>
<event>
 8    1  0.1319619E-024  0.8534728E+02  0.7818608E-02  0.1314527E+00
         -2   -1    0    0    0  501 -0.00000000000E+00  0.00000000000E+00  0.71529673466E+01  0.71529678011E+01  0.25500000000E-02 0.  1.
          1   -1    0    0  501    0  0.00000000000E+00 -0.00000000000E+00 -0.25458519911E+03  0.25458519916E+03  0.50400000000E-02 0. -1.
        -24    2    1    2    0    0  0.88817841970E-15  0.00000000000E+00 -0.24743223176E+03  0.26173816696E+03  0.85347283077E+02 0.  0.
         66    2    3    3    0    0 -0.49825778147E+01 -0.40962678145E+02 -0.90715961837E+02  0.99680252911E+02  0.20000014703E+01 0.  0.
         13    1    3    3    0    0  0.49825778147E+01  0.40962678145E+02 -0.15671626992E+03  0.16205791405E+03  0.10566000000E+00 0. -1.
         13    1    4    4    0    0 -0.18247595904E+01 -0.16048333688E+02 -0.36565058648E+02  0.39973659323E+02  0.10566000000E+00 0. -1.
        -13    1    4    4    0    0 -0.29397437049E+01 -0.19835377829E+02 -0.42359529194E+02  0.46866034441E+02  0.10566000000E+00 0.  1.
        -14    1    4    4    0    0 -0.21807451947E+00 -0.50789666289E+01 -0.11791373996E+02  0.12840559148E+02  0.00000000000E+00 0.  1.
<mgrwt>
<rscale>  0 0.85347283E+02</rscale>
<asrwt>0</asrwt>
<pdfrwt beam="1">  1        1 0.39166947E-01 0.85347283E+02</pdfrwt>
<pdfrwt beam="2">  1       -2 0.11004567E-02 0.85347283E+02</pdfrwt>
<totfact> 0.14720764E+05</totfact>
</mgrwt>
</event>
<event>
 8    1  0.1319619E-024  0.8149651E+02  0.7818608E-02  0.1324857E+00
         -2   -1    0    0    0  501 -0.00000000000E+00  0.00000000000E+00  0.44567033056E+02  0.44567033129E+02  0.25500000000E-02 0.  1.
          1   -1    0    0  501    0  0.00000000000E+00 -0.00000000000E+00 -0.37256695425E+02  0.37256695766E+02  0.50400000000E-02 0. -1.
        -24    2    1    2    0    0  0.00000000000E+00  0.00000000000E+00  0.73103376315E+01  0.81823728895E+02  0.81496512649E+02 0.  0.
         66    2    3    3    0    0  0.27056055461E+02  0.21242966149E+02  0.25542167875E+02  0.42891678525E+02  0.19999997569E+01 0.  0.
         13    1    3    3    0    0 -0.27056055461E+02 -0.21242966149E+02 -0.18231830243E+02  0.38932050370E+02  0.10566000000E+00 0. -1.
         13    1    4    4    0    0  0.47812315788E+00  0.60262800255E+00  0.79250140297E+00  0.11094975317E+01  0.10566000000E+00 0. -1.
        -13    1    4    4    0    0  0.18977841417E+02  0.14228685571E+02  0.17455228367E+02  0.29450129359E+02  0.10566000000E+00 0.  1.
         14    1    4    4    0    0  0.76000908868E+01  0.64116525761E+01  0.72944381045E+01  0.12332051634E+02  0.00000000000E+00 0. -1.
<mgrwt>
<rscale>  0 0.81496513E+02</rscale>
<asrwt>0</asrwt>
<pdfrwt beam="1">  1        1 0.57317993E-02 0.81496513E+02</pdfrwt>
<pdfrwt beam="2">  1       -2 0.68564667E-02 0.81496513E+02</pdfrwt>
<totfact> 0.11907983E+05</totfact>
</mgrwt>
</event>
<event>
 8    1  0.1319619E-024  0.8387626E+02  0.7818608E-02  0.1318398E+00
         -2   -1    0    0    0  501 -0.00000000000E+00  0.00000000000E+00  0.32566752119E+01  0.32566762102E+01  0.25500000000E-02 0.  1.
          1   -1    0    0  501    0  0.00000000000E+00 -0.00000000000E+00 -0.54006199964E+03  0.54006199966E+03  0.50400000000E-02 0. -1.
        -24    2    1    2    0    0  0.00000000000E+00 -0.35527136788E-14 -0.53680532443E+03  0.54331867588E+03  0.83876261355E+02 0.  0.
         66    2    3    3    0    0  0.28511971038E+02 -0.30031476691E+02 -0.31052447595E+03  0.31327986255E+03  0.20000072209E+01 0.  0.
         13    1    3    3    0    0 -0.28511971038E+02  0.30031476691E+02 -0.22628084848E+03  0.23003881333E+03  0.10566000000E+00 0. -1.
         13    1    4    4    0    0  0.46014482552E+01 -0.53168137289E+01 -0.52509480520E+02  0.52978283691E+02  0.10566000000E+00 0. -1.
        -13    1    4    4    0    0  0.12359630941E+02 -0.11683794386E+02 -0.12962655980E+03  0.13073762924E+03  0.10566000000E+00 0.  1.
        -14    1    4    4    0    0  0.11550891842E+02 -0.13030868576E+02 -0.12838843563E+03  0.12956394962E+03  0.00000000000E+00 0.  1.
<mgrwt>
<rscale>  0 0.83876261E+02</rscale>
<asrwt>0</asrwt>
<pdfrwt beam="1">  1        1 0.83086391E-01 0.83876261E+02</pdfrwt>
<pdfrwt beam="2">  1       -2 0.50102746E-03 0.83876261E+02</pdfrwt>
<totfact> 0.17462141E+05</totfact>
</mgrwt>
</event>
<event>
 8    1  0.1319619E-024  0.8090134E+02  0.7818608E-02  0.1326513E+00
         -2   -1    0    0    0  501 -0.00000000000E+00  0.00000000000E+00  0.59850749992E+02  0.59850750046E+02  0.25500000000E-02 0.  1.
          1   -1    0    0  501    0  0.00000000000E+00 -0.00000000000E+00 -0.27338947985E+02  0.27338948450E+02  0.50400000000E-02 0. -1.
        -24    2    1    2    0    0  0.00000000000E+00 -0.35527136788E-14  0.32511802007E+02  0.87189698496E+02  0.80901336541E+02 0.  0.
         66    2    3    3    0    0 -0.15575688458E+02  0.25171681487E+02  0.45938324688E+02  0.54685878795E+02  0.20000111520E+01 0.  0.
         13    1    3    3    0    0  0.15575688458E+02 -0.25171681487E+02 -0.13426522681E+02  0.32503819701E+02  0.10566000000E+00 0. -1.
         13    1    4    4    0    0 -0.19839481483E-01  0.74077491193E-01  0.26327836607E+00  0.29387176347E+00  0.10566000000E+00 0. -1.
        -13    1    4    4    0    0 -0.18020207254E+01  0.26126326463E+01  0.47832586226E+01  0.57414157771E+01  0.10566000000E+00 0.  1.
         14    1    4    4    0    0 -0.13753828251E+02  0.22484971349E+02  0.40891787700E+02  0.48650591255E+02  0.00000000000E+00 0. -1.
<mgrwt>
<rscale>  0 0.80901337E+02</rscale>
<asrwt>0</asrwt>
<pdfrwt beam="1">  1        1 0.42059921E-02 0.80901337E+02</pdfrwt>
<pdfrwt beam="2">  1       -2 0.92078076E-02 0.80901337E+02</pdfrwt>
<totfact> 0.11513527E+05</totfact>
</mgrwt>
</event>
<event>
 8    1  0.1319619E-024  0.8025807E+02  0.7818608E-02  0.1328321E+00
         -2   -1    0    0    0  501 -0.00000000000E+00  0.00000000000E+00  0.30948434913E+02  0.30948435018E+02  0.25500000000E-02 0.  1.
          1   -1    0    0  501    0  0.00000000000E+00 -0.00000000000E+00 -0.52032986761E+02  0.52032987005E+02  0.50400000000E-02 0. -1.
        -24    2    1    2    0    0  0.17763568394E-14  0.00000000000E+00 -0.21084551848E+02  0.82981422024E+02  0.80258071709E+02 0.  0.
         66    2    3    3    0    0  0.14699404054E+02  0.20123787398E+02  0.21938649657E+02  0.33261744525E+02  0.20000003194E+01 0.  0.
         13    1    3    3    0    0 -0.14699404054E+02 -0.20123787398E+02 -0.43023201506E+02  0.49719677499E+02  0.10566000000E+00 0. -1.
         13    1    4    4    0    0  0.86622978050E+01  0.11032353794E+02  0.11964029788E+02  0.18436306743E+02  0.10566000000E+00 0. -1.
        -13    1    4    4    0    0  0.48843952893E+01  0.77973861855E+01  0.87978072487E+01  0.12730637262E+02  0.10566000000E+00 0.  1.
        -14    1    4    4    0    0  0.11527109601E+01  0.12940474180E+01  0.11768126206E+01  0.20948005207E+01  0.00000000000E+00 0.  1.
<mgrwt>
<rscale>  0 0.80258072E+02</rscale>
<asrwt>0</asrwt>
<pdfrwt beam="1">  1        1 0.80050750E-02 0.80258072E+02</pdfrwt>
<pdfrwt beam="2">  1       -2 0.47612977E-02 0.80258072E+02</pdfrwt>
<totfact> 0.13121857E+05</totfact>
</mgrwt>
</event>
<event>
 8    1  0.1319619E-024  0.7789610E+02  0.7818608E-02  0.1335130E+00
         -2   -1    0    0    0  501 -0.00000000000E+00  0.00000000000E+00  0.53893016968E+02  0.53893017028E+02  0.25500000000E-02 0.  1.
          1   -1    0    0  501    0  0.00000000000E+00 -0.00000000000E+00 -0.28147439912E+02  0.28147440364E+02  0.50400000000E-02 0. -1.
        -24    2    1    2    0    0  0.00000000000E+00  0.35527136788E-14  0.25745577056E+02  0.82040457392E+02  0.77896096893E+02 0.  0.
         66    2    3    3    0    0 -0.30424912618E+02  0.18533123030E+02  0.29393173714E+02  0.46228893862E+02  0.20000024147E+01 0.  0.
         13    1    3    3    0    0  0.30424912618E+02 -0.18533123030E+02 -0.36475966587E+01  0.35811563530E+02  0.10566000000E+00 0. -1.
         13    1    4    4    0    0 -0.62006222394E+01  0.30455157121E+01  0.61078564902E+01  0.92217111779E+01  0.10566000000E+00 0. -1.
        -13    1    4    4    0    0 -0.16444245077E+02  0.10083228555E+02  0.15508572024E+02  0.24750993202E+02  0.10566000000E+00 0.  1.
        -14    1    4    4    0    0 -0.77800453020E+01  0.54043787628E+01  0.77767451997E+01  0.12256189482E+02  0.00000000000E+00 0.  1.
<mgrwt>
<rscale>  0 0.77896097E+02</rscale>
<asrwt>0</asrwt>
<pdfrwt beam="1">  1        1 0.43303755E-02 0.77896097E+02</pdfrwt>
<pdfrwt beam="2">  1       -2 0.82912332E-02 0.77896097E+02</pdfrwt>
<totfact> 0.12911234E+05</totfact>
</mgrwt>
</event>
<event>
 8    1  0.1319619E-024  0.7890356E+02  0.7818608E-02  0.1332192E+00
         -2   -1    0    0    0  501 -0.00000000000E+00  0.00000000000E+00  0.13028829492E+02  0.13028829741E+02  0.25500000000E-02 0.  1.
          1   -1    0    0  501    0  0.00000000000E+00 -0.00000000000E+00 -0.11946145548E+03  0.11946145559E+03  0.50400000000E-02 0. -1.
        -24    2    1    2    0    0  0.00000000000E+00  0.00000000000E+00 -0.10643262599E+03  0.13249028533E+03  0.78903560323E+02 0.  0.
         66    2    3    3    0    0  0.35653631581E+02 -0.89308074056E+01 -0.77203783130E+02  0.85529906448E+02  0.20000003765E+01 0.  0.
         13    1    3    3    0    0 -0.35653631581E+02  0.89308074056E+01 -0.29228842862E+02  0.46960378884E+02  0.10566000000E+00 0. -1.
         13    1    4    4    0    0  0.35791306033E+01 -0.88858447954E+00 -0.91356717078E+01  0.98524829277E+01  0.10566000000E+00 0.  1.
        -13    1    4    4    0    0  0.11199750008E+02 -0.28431856574E+01 -0.23175216512E+02  0.25896330423E+02  0.10566000000E+00 0. -1.
        -14    1    4    4    0    0  0.20874750969E+02 -0.51990372687E+01 -0.44892894911E+02  0.49781093098E+02  0.00000000000E+00 0.  1.
<mgrwt>
<rscale>  0 0.78903560E+02</rscale>
<asrwt>0</asrwt>
<pdfrwt beam="1">  1        1 0.18378685E-01 0.78903560E+02</pdfrwt>
<pdfrwt beam="2">  1       -2 0.20044354E-02 0.78903560E+02</pdfrwt>
<totfact> 0.15726722E+05</totfact>
</mgrwt>
</event>
<event>
 8    1  0.1319619E-024  0.8231351E+02  0.7818608E-02  0.1322611E+00
         -2   -1    0    0    0  501 -0.00000000000E+00  0.00000000000E+00  0.14606178352E+03  0.14606178354E+03  0.25500000000E-02 0.  1.
          1   -1    0    0  501    0  0.00000000000E+00 -0.00000000000E+00 -0.11596999740E+02  0.11597000836E+02  0.50400000000E-02 0. -1.
        -24    2    1    2    0    0  0.44408920985E-15  0.00000000000E+00  0.13446478378E+03  0.15765878438E+03  0.82313511738E+02 0.  0.
         66    2    3    3    0    0 -0.27618111421E+01  0.27542295770E+02  0.12554594786E+03  0.12857678900E+03  0.19999971335E+01 0.  0.
         13    1    3    3    0    0  0.27618111421E+01 -0.27542295770E+02  0.89188359227E+01  0.29081995380E+02  0.10566000000E+00 0. -1.
         13    1    4    4    0    0 -0.41948881897E+00  0.12980802035E+01  0.50793434533E+01  0.52604065466E+01  0.10566000000E+00 0. -1.
        -13    1    4    4    0    0 -0.14580878709E+01  0.18670329395E+02  0.84523753395E+02  0.86573571440E+02  0.10566000000E+00 0.  1.
        -14    1    4    4    0    0 -0.88423445222E+00  0.75738861708E+01  0.35942851011E+02  0.36742811012E+02  0.00000000000E+00 0.  1.
<mgrwt>
<rscale>  0 0.82313512E+02</rscale>
<asrwt>0</asrwt>
<pdfrwt beam="1">  1        1 0.17841539E-02 0.82313512E+02</pdfrwt>
<pdfrwt beam="2">  1       -2 0.22471044E-01 0.82313512E+02</pdfrwt>
<totfact> 0.88585282E+04</totfact>
</mgrwt>
</event>
<event>
 8    1  0.1319619E-024  0.7895499E+02  0.7818608E-02  0.1332043E+00
         -2   -1    0    0    0  501 -0.00000000000E+00  0.00000000000E+00  0.50802158620E+02  0.50802158684E+02  0.25500000000E-02 0.  1.
          1   -1    0    0  501    0  0.00000000000E+00 -0.00000000000E+00 -0.30677291971E+02  0.30677292385E+02  0.50400000000E-02 0. -1.
        -24    2    1    2    0    0  0.88817841970E-15  0.00000000000E+00  0.20124866648E+02  0.81479451069E+02  0.78954991539E+02 0.  0.
         66    2    3    3    0    0 -0.65428832815E+01  0.28094252494E+02  0.37843556909E+02  0.47625950609E+02  0.20000067622E+01 0.  0.
         13    1    3    3    0    0  0.65428832815E+01 -0.28094252494E+02 -0.17718690260E+02  0.33853500460E+02  0.10566000000E+00 0. -1.
         13    1    4    4    0    0 -0.19217816549E+01  0.10684477197E+02  0.13778582277E+02  0.17541715745E+02  0.10566000000E+00 0. -1.
        -13    1    4    4    0    0 -0.15254764202E+01  0.73661495524E+01  0.10754393798E+02  0.13124609995E+02  0.10566000000E+00 0.  1.
         14    1    4    4    0    0 -0.30956252064E+01  0.10043625745E+02  0.13310580834E+02  0.16959624868E+02  0.00000000000E+00 0. -1.
<mgrwt>
<rscale>  0 0.78954992E+02</rscale>
<asrwt>0</asrwt>
<pdfrwt beam="1">  1        1 0.47195835E-02 0.78954992E+02</pdfrwt>
<pdfrwt beam="2">  1       -2 0.78157166E-02 0.78954992E+02</pdfrwt>
<totfact> 0.12608703E+05</totfact>
</mgrwt>
</event>
<event>
 8    1  0.1319619E-024  0.7956279E+02  0.7818608E-02  0.1330297E+00
          1   -1    0    0  501    0  0.00000000000E+00  0.00000000000E+00  0.28291232124E+03  0.28291232129E+03  0.50400000000E-02 0. -1.
         -2   -1    0    0    0  501 -0.00000000000E+00 -0.00000000000E+00 -0.55938154530E+01  0.55938160342E+01  0.25500000000E-02 0.  1.
        -24    2    1    2    0    0  0.00000000000E+00  0.00000000000E+00  0.27731850579E+03  0.28850613732E+03  0.79562790416E+02 0.  0.
         66    2    3    3    0    0  0.38352445779E+02 -0.84677481373E+01  0.11641075616E+03  0.12287423245E+03  0.19999987948E+01 0.  0.
         13    1    3    3    0    0 -0.38352445779E+02  0.84677481373E+01  0.16090774963E+03  0.16563190487E+03  0.10566000000E+00 0. -1.
         13    1    4    4    0    0  0.57613845623E+01 -0.15601908667E+01  0.18289576192E+02  0.19239217992E+02  0.10566000000E+00 0. -1.
        -13    1    4    4    0    0  0.23614821643E+02 -0.44206704012E+01  0.69353636210E+02  0.73397139914E+02  0.10566000000E+00 0.  1.
        -14    1    4    4    0    0  0.89762395742E+01 -0.24868868694E+01  0.28767543754E+02  0.30237874542E+02  0.00000000000E+00 0.  1.
<mgrwt>
<rscale>  0 0.79562790E+02</rscale>
<asrwt>0</asrwt>
<pdfrwt beam="1">  1        1 0.43524971E-01 0.79562790E+02</pdfrwt>
<pdfrwt beam="2">  1       -2 0.86058708E-03 0.79562790E+02</pdfrwt>
<totfact> 0.18099529E+05</totfact>
</mgrwt>
</event>
<event>
 8    1  0.1319619E-024  0.8134912E+02  0.7818608E-02  0.1325266E+00
         -2   -1    0    0    0  501 -0.00000000000E+00  0.00000000000E+00  0.89059768770E+01  0.89059772420E+01  0.25500000000E-02 0.  1.
          1   -1    0    0  501    0  0.00000000000E+00 -0.00000000000E+00 -0.18576509982E+03  0.18576509989E+03  0.50400000000E-02 0. -1.
        -24    2    1    2    0    0  0.00000000000E+00 -0.71054273576E-14 -0.17685912294E+03  0.19467107713E+03  0.81349117407E+02 0.  0.
         66    2    3    3    0    0 -0.16004687584E+02 -0.37340850510E+02 -0.91803582780E+02  0.10041108977E+03  0.19999988194E+01 0.  0.
         13    1    3    3    0    0  0.16004687584E+02  0.37340850510E+02 -0.85055540162E+02  0.94259987363E+02  0.10566000000E+00 0. -1.
         13    1    4    4    0    0 -0.54097254742E+01 -0.11982052070E+02 -0.31362185737E+02  0.34006360578E+02  0.10566000000E+00 0. -1.
        -13    1    4    4    0    0 -0.47435077696E+01 -0.10063297550E+02 -0.24188702685E+02  0.26624712677E+02  0.10566000000E+00 0.  1.
         14    1    4    4    0    0 -0.58514543405E+01 -0.15295500890E+02 -0.36252694358E+02  0.39780016511E+02  0.00000000000E+00 0. -1.
<mgrwt>
<rscale>  0 0.81349117E+02</rscale>
<asrwt>0</asrwt>
<pdfrwt beam="1">  1        1 0.28579243E-01 0.81349117E+02</pdfrwt>
<pdfrwt beam="2">  1       -2 0.13701505E-02 0.81349117E+02</pdfrwt>
<totfact> 0.15722038E+05</totfact>
</mgrwt>
</event>
<event>
 8    1  0.1319619E-024  0.7832238E+02  0.7818608E-02  0.1333881E+00
         -2   -1    0    0    0  501 -0.00000000000E+00  0.00000000000E+00  0.80943312620E+02  0.80943312660E+02  0.25500000000E-02 0.  1.
          1   -1    0    0  501    0  0.00000000000E+00 -0.00000000000E+00 -0.18946575970E+02  0.18946576641E+02  0.50400000000E-02 0. -1.
        -24    2    1    2    0    0  0.35527136788E-14 -0.88817841970E-15  0.61996736650E+02  0.99889889301E+02  0.78322376300E+02 0.  0.
         66    2    3    3    0    0  0.25507909520E+02  0.57805556277E+01 -0.61103725648E+01  0.26933342226E+02  0.19999997904E+01 0.  0.
         13    1    3    3    0    0 -0.25507909520E+02 -0.57805556277E+01  0.68107109215E+02  0.72956547075E+02  0.10566000000E+00 0. -1.
         13    1    4    4    0    0  0.25234568595E+01  0.30868819938E+00 -0.10878328334E+01  0.27672490374E+01  0.10566000000E+00 0. -1.
        -13    1    4    4    0    0  0.46025506724E+01  0.13511115233E+01 -0.88280611425E+00  0.48784716573E+01  0.10566000000E+00 0.  1.
        -14    1    4    4    0    0  0.18381901988E+02  0.41207559050E+01 -0.41397336171E+01  0.19287621532E+02  0.00000000000E+00 0.  1.
<mgrwt>
<rscale>  0 0.78322376E+02</rscale>
<asrwt>0</asrwt>
<pdfrwt beam="1">  1        1 0.29148579E-02 0.78322376E+02</pdfrwt>
<pdfrwt beam="2">  1       -2 0.12452817E-01 0.78322376E+02</pdfrwt>
<totfact> 0.11766232E+05</totfact>
</mgrwt>
</event>
<event>
 8    1  0.1319619E-024  0.8221020E+02  0.7818608E-02  0.1322894E+00
         -2   -1    0    0    0  501 -0.00000000000E+00  0.00000000000E+00  0.14025056684E+02  0.14025056916E+02  0.25500000000E-02 0.  1.
          1   -1    0    0  501    0  0.00000000000E+00 -0.00000000000E+00 -0.12047218899E+03  0.12047218909E+03  0.50400000000E-02 0. -1.
        -24    2    1    2    0    0  0.00000000000E+00 -0.35527136788E-14 -0.10644713230E+03  0.13449724601E+03  0.82210201364E+02 0.  0.
         66    2    3    3    0    0 -0.25090879406E+02  0.26430651545E+02 -0.22235624905E+02  0.42738209872E+02  0.19999994266E+01 0.  0.
         13    1    3    3    0    0  0.25090879406E+02 -0.26430651545E+02 -0.84211507398E+02  0.91759036137E+02  0.10566000000E+00 0. -1.
         13    1    4    4    0    0 -0.25947374140E+01  0.25328867048E+01 -0.19951516705E+01  0.41400448707E+01  0.10566000000E+00 0.  1.
        -13    1    4    4    0    0 -0.13422051548E+02  0.13421938199E+02 -0.12429050654E+02  0.22689036052E+02  0.10566000000E+00 0.  1.
        -14    1    4    4    0    0 -0.90740904442E+01  0.10475826641E+02 -0.78114225808E+01  0.15909128950E+02  0.00000000000E+00 0.  1.
<mgrwt>
<rscale>  0 0.82210201E+02</rscale>
<asrwt>0</asrwt>
<pdfrwt beam="1">  1        1 0.18534182E-01 0.82210201E+02</pdfrwt>
<pdfrwt beam="2">  1       -2 0.21577011E-02 0.82210201E+02</pdfrwt>
<totfact> 0.14103173E+05</totfact>
</mgrwt>
</event>
<event>
 8    1  0.1319619E-024  0.8287533E+02  0.7818608E-02  0.1321084E+00
         -2   -1    0    0    0  501 -0.00000000000E+00  0.00000000000E+00  0.19000574518E+02  0.19000574689E+02  0.25500000000E-02 0.  1.
          1   -1    0    0  501    0  0.00000000000E+00 -0.00000000000E+00 -0.90369905037E+02  0.90369905178E+02  0.50400000000E-02 0. -1.
        -24    2    1    2    0    0  0.88817841970E-15  0.00000000000E+00 -0.71369330519E+02  0.10937047987E+03  0.82875331237E+02 0.  0.
         66    2    3    3    0    0 -0.62549440955E+01  0.16451148436E+02  0.13766783894E+02  0.22434102257E+02  0.19999987018E+01 0.  0.
         13    1    3    3    0    0  0.62549440955E+01 -0.16451148436E+02 -0.85136114413E+02  0.86936377610E+02  0.10566000000E+00 0. -1.
         13    1    4    4    0    0 -0.14670120625E+01  0.23315843152E+01  0.21793930795E+01  0.35141610721E+01  0.10566000000E+00 0. -1.
        -13    1    4    4    0    0 -0.22732913365E+01  0.69289586735E+01  0.49291888176E+01  0.88026353006E+01  0.10566000000E+00 0.  1.
         14    1    4    4    0    0 -0.25146406965E+01  0.71906054472E+01  0.66582019970E+01  0.10117305885E+02  0.00000000000E+00 0. -1.
<mgrwt>
<rscale>  0 0.82875331E+02</rscale>
<asrwt>0</asrwt>
<pdfrwt beam="1">  1        1 0.13903062E-01 0.82875331E+02</pdfrwt>
<pdfrwt beam="2">  1       -2 0.29231654E-02 0.82875331E+02</pdfrwt>
<totfact> 0.13130698E+05</totfact>
</mgrwt>
</event>
<event>
 8    1  0.1319619E-024  0.7652353E+02  0.7818608E-02  0.1339217E+00
          1   -1    0    0  501    0  0.00000000000E+00  0.00000000000E+00  0.52628425193E+01  0.52628449326E+01  0.50400000000E-02 0. -1.
         -2   -1    0    0    0  501 -0.00000000000E+00 -0.00000000000E+00 -0.27816952166E+03  0.27816952167E+03  0.25500000000E-02 0.  1.
        -24    2    1    2    0    0  0.00000000000E+00 -0.35527136788E-14 -0.27290667914E+03  0.28343236661E+03  0.76523531801E+02 0.  0.
         66    2    3    3    0    0 -0.25569031684E+02  0.25507116315E+02 -0.90052977627E+02  0.97046005287E+02  0.19999996423E+01 0.  0.
         13    1    3    3    0    0  0.25569031684E+02 -0.25507116315E+02 -0.18285370152E+03  0.18638636132E+03  0.10566000000E+00 0. -1.
         13    1    4    4    0    0 -0.10823096780E+02  0.10131420733E+02 -0.37772728348E+02  0.40578014748E+02  0.10566000000E+00 0. -1.
        -13    1    4    4    0    0 -0.25841422196E+01  0.20614789713E+01 -0.82081095380E+01  0.88493905317E+01  0.10566000000E+00 0.  1.
        -14    1    4    4    0    0 -0.12161792685E+02  0.13314216612E+02 -0.44072139741E+02  0.47618600007E+02  0.00000000000E+00 0.  1.
<mgrwt>
<rscale>  0 0.76523532E+02</rscale>
<asrwt>0</asrwt>
<pdfrwt beam="1">  1        1 0.80966848E-03 0.76523532E+02</pdfrwt>
<pdfrwt beam="2">  1       -2 0.42795300E-01 0.76523532E+02</pdfrwt>
<totfact> 0.82017413E+04</totfact>
</mgrwt>
</event>
<event>
 8    1  0.1319619E-024  0.7151354E+02  0.7818608E-02  0.1355021E+00
          1   -1    0    0  501    0  0.00000000000E+00  0.00000000000E+00  0.19275065304E+03  0.19275065311E+03  0.50400000000E-02 0. -1.
         -2   -1    0    0    0  501 -0.00000000000E+00 -0.00000000000E+00 -0.66331636394E+01  0.66331641296E+01  0.25500000000E-02 0.  1.
        -24    2    1    2    0    0  0.00000000000E+00  0.00000000000E+00  0.18611748940E+03  0.19938381724E+03  0.71513542177E+02 0.  0.
         66    2    3    3    0    0 -0.16558042530E+02 -0.30436481539E+02  0.68826621837E+02  0.77082112592E+02  0.20000067990E+01 0.  0.
         13    1    3    3    0    0  0.16558042530E+02  0.30436481539E+02  0.11729086757E+03  0.12230170465E+03  0.10566000000E+00 0. -1.
         13    1    4    4    0    0 -0.23873346514E+01 -0.59120009819E+01  0.12385322535E+02  0.13930488171E+02  0.10566000000E+00 0. -1.
        -13    1    4    4    0    0 -0.11705232911E+01 -0.18569742747E+01  0.44188135929E+01  0.49351348347E+01  0.10566000000E+00 0.  1.
         14    1    4    4    0    0 -0.13000184588E+02 -0.22667506282E+02  0.52022485709E+02  0.58216489586E+02  0.00000000000E+00 0. -1.
<mgrwt>
<rscale>  0 0.71513542E+02</rscale>
<asrwt>0</asrwt>
<pdfrwt beam="1">  1        1 0.29653946E-01 0.71513542E+02</pdfrwt>
<pdfrwt beam="2">  1       -2 0.10204868E-02 0.71513542E+02</pdfrwt>
<totfact> 0.22254851E+05</totfact>
</mgrwt>
</event>
<event>
 8    1  0.1319619E-024  0.7267832E+02  0.7818608E-02  0.1351215E+00
         -2   -1    0    0    0  501 -0.00000000000E+00  0.00000000000E+00  0.14553852430E+02  0.14553852653E+02  0.25500000000E-02 0.  1.
          1   -1    0    0  501    0  0.00000000000E+00 -0.00000000000E+00 -0.90734356162E+02  0.90734356302E+02  0.50400000000E-02 0. -1.
        -24    2    1    2    0    0  0.35527136788E-14  0.00000000000E+00 -0.76180503733E+02  0.10528820896E+03  0.72678317235E+02 0.  0.
         66    2    3    3    0    0  0.25108110288E+02 -0.20933953223E+02 -0.61019379586E+02  0.69253247471E+02  0.20000001162E+01 0.  0.
         13    1    3    3    0    0 -0.25108110288E+02  0.20933953223E+02 -0.15161124147E+02  0.36034961484E+02  0.10566000000E+00 0. -1.
         13    1    4    4    0    0  0.16163805382E+02 -0.12749833186E+02 -0.37016215685E+02  0.42356088563E+02  0.10566000000E+00 0. -1.
        -13    1    4    4    0    0  0.40425715672E+01 -0.33650537845E+01 -0.10156544806E+02  0.11438205204E+02  0.10566000000E+00 0.  1.
         14    1    4    4    0    0  0.49017333383E+01 -0.48190662523E+01 -0.13846619095E+02  0.15458953704E+02  0.00000000000E+00 0. -1.
<mgrwt>
<rscale>  0 0.72678317E+02</rscale>
<asrwt>0</asrwt>
<pdfrwt beam="1">  1        1 0.13959131E-01 0.72678317E+02</pdfrwt>
<pdfrwt beam="2">  1       -2 0.22390543E-02 0.72678317E+02</pdfrwt>
<totfact> 0.18726742E+05</totfact>
</mgrwt>
</event>
<event>
 8    1  0.1319619E-024  0.7867236E+02  0.7818608E-02  0.1332862E+00
         -2   -1    0    0    0  501 -0.00000000000E+00  0.00000000000E+00  0.34913078773E+01  0.34913088086E+01  0.25500000000E-02 0.  1.
          1   -1    0    0  501    0  0.00000000000E+00 -0.00000000000E+00 -0.44319634149E+03  0.44319634152E+03  0.50400000000E-02 0. -1.
        -24    2    1    2    0    0  0.00000000000E+00  0.71054273576E-14 -0.43970503361E+03  0.44668765033E+03  0.78672360906E+02 0.  0.
         66    2    3    3    0    0  0.41296364154E+01 -0.39091871588E+02 -0.22180608700E+03  0.22527132207E+03  0.19999986373E+01 0.  0.
         13    1    3    3    0    0 -0.41296364154E+01  0.39091871588E+02 -0.21789894662E+03  0.22141632826E+03  0.10566000000E+00 0. -1.
         13    1    4    4    0    0  0.40573262053E+01 -0.34035285429E+02 -0.19447816936E+03  0.19747564931E+03  0.10566000000E+00 0. -1.
        -13    1    4    4    0    0 -0.24884550071E-02 -0.38126210259E+01 -0.19554573906E+02  0.19923067283E+02  0.10566000000E+00 0.  1.
         14    1    4    4    0    0  0.74798665042E-01 -0.12439651333E+01 -0.77733437329E+01  0.78726054698E+01  0.00000000000E+00 0. -1.
<mgrwt>
<rscale>  0 0.78672361E+02</rscale>
<asrwt>0</asrwt>
<pdfrwt beam="1">  1        1 0.68184008E-01 0.78672361E+02</pdfrwt>
<pdfrwt beam="2">  1       -2 0.53712471E-03 0.78672361E+02</pdfrwt>
<totfact> 0.20163084E+05</totfact>
</mgrwt>
</event>
<event>
 8    1  0.1319619E-024  0.7862804E+02  0.7818608E-02  0.1332991E+00
          1   -1    0    0  501    0  0.00000000000E+00  0.00000000000E+00  0.99486642099E+02  0.99486642227E+02  0.50400000000E-02 0. -1.
         -2   -1    0    0    0  501 -0.00000000000E+00 -0.00000000000E+00 -0.15535674127E+02  0.15535674337E+02  0.25500000000E-02 0.  1.
        -24    2    1    2    0    0  0.00000000000E+00  0.00000000000E+00  0.83950967972E+02  0.11502231656E+03  0.78628037520E+02 0.  0.
         66    2    3    3    0    0 -0.13310717404E+02 -0.17017886341E+02 -0.60009329594E+01  0.22512104703E+02  0.20000021028E+01 0.  0.
         13    1    3    3    0    0  0.13310717404E+02  0.17017886341E+02  0.89951900931E+02  0.92510211861E+02  0.10566000000E+00 0. -1.
         13    1    4    4    0    0 -0.10492676634E+02 -0.12919786040E+02 -0.43061227078E+01  0.17192178195E+02  0.10566000000E+00 0.  1.
        -13    1    4    4    0    0 -0.25900214601E+01 -0.32804001103E+01 -0.15485546694E+01  0.44585223614E+01  0.10566000000E+00 0. -1.
        -14    1    4    4    0    0 -0.22801931019E+00 -0.81770019124E+00 -0.14625558217E+00  0.86140414666E+00  0.00000000000E+00 0.  1.
<mgrwt>
<rscale>  0 0.78628038E+02</rscale>
<asrwt>0</asrwt>
<pdfrwt beam="1">  1        1 0.15305637E-01 0.78628038E+02</pdfrwt>
<pdfrwt beam="2">  1       -2 0.23901037E-02 0.78628038E+02</pdfrwt>
<totfact> 0.15388607E+05</totfact>
</mgrwt>
</event>
<event>
 8    1  0.1319619E-024  0.8255633E+02  0.7818608E-02  0.1321950E+00
         -2   -1    0    0    0  501 -0.00000000000E+00  0.00000000000E+00  0.10177924864E+02  0.10177925183E+02  0.25500000000E-02 0.  1.
          1   -1    0    0  501    0  0.00000000000E+00 -0.00000000000E+00 -0.16741004624E+03  0.16741004632E+03  0.50400000000E-02 0. -1.
        -24    2    1    2    0    0  0.17763568394E-14 -0.35527136788E-14 -0.15723212138E+03  0.17758797150E+03  0.82556330034E+02 0.  0.
         66    2    3    3    0    0  0.99019550085E+01 -0.31510565496E+02 -0.25493567334E+02  0.41771837568E+02  0.19999968800E+01 0.  0.
         13    1    3    3    0    0 -0.99019550085E+01  0.31510565496E+02 -0.13173855404E+03  0.13581613393E+03  0.10566000000E+00 0. -1.
         13    1    4    4    0    0  0.81053389597E+01 -0.24473988773E+02 -0.19359406991E+02  0.32240819611E+02  0.10566000000E+00 0. -1.
        -13    1    4    4    0    0  0.86183130147E+00 -0.34190865143E+01 -0.25427735025E+01  0.43485361796E+01  0.10566000000E+00 0.  1.
         14    1    4    4    0    0  0.93478474730E+00 -0.36174902085E+01 -0.35913868406E+01  0.51824817772E+01  0.00000000000E+00 0. -1.
<mgrwt>
<rscale>  0 0.82556330E+02</rscale>
<asrwt>0</asrwt>
<pdfrwt beam="1">  1        1 0.25755390E-01 0.82556330E+02</pdfrwt>
<pdfrwt beam="2">  1       -2 0.15658347E-02 0.82556330E+02</pdfrwt>
<totfact> 0.14816928E+05</totfact>
</mgrwt>
</event>
<event>
 8    1  0.1319619E-024  0.9018595E+02  0.7818608E-02  0.1302402E+00
         -2   -1    0    0    0  501 -0.00000000000E+00  0.00000000000E+00  0.18106417194E+03  0.18106417195E+03  0.25500000000E-02 0.  1.
          1   -1    0    0  501    0  0.00000000000E+00 -0.00000000000E+00 -0.11230141449E+02  0.11230142580E+02  0.50400000000E-02 0. -1.
        -24    2    1    2    0    0 -0.55511151231E-16  0.00000000000E+00  0.16983403049E+03  0.19229431453E+03  0.90185949520E+02 0.  0.
         66    2    3    3    0    0  0.49851131056E+00 -0.36068763893E+02  0.14257407246E+03  0.14708014952E+03  0.20000006131E+01 0.  0.
         13    1    3    3    0    0 -0.49851131056E+00  0.36068763893E+02  0.27259958025E+02  0.45214165014E+02  0.10566000000E+00 0. -1.
         13    1    4    4    0    0  0.70339548298E+00 -0.24449840785E+02  0.94779658455E+02  0.97885056574E+02  0.10566000000E+00 0. -1.
        -13    1    4    4    0    0 -0.98410016224E-01 -0.10804012342E+02  0.45205592910E+02  0.46478953964E+02  0.10566000000E+00 0.  1.
         14    1    4    4    0    0 -0.10647415620E+00 -0.81491076621E+00  0.25888210972E+01  0.27161389832E+01  0.00000000000E+00 0. -1.
<mgrwt>
<rscale>  0 0.90185950E+02</rscale>
<asrwt>0</asrwt>
<pdfrwt beam="1">  1        1 0.17277143E-02 0.90185950E+02</pdfrwt>
<pdfrwt beam="2">  1       -2 0.27856024E-01 0.90185950E+02</pdfrwt>
<totfact> 0.64875562E+04</totfact>
</mgrwt>
</event>
<event>
 8    1  0.1319619E-024  0.7950357E+02  0.7818608E-02  0.1330466E+00
          1   -1    0    0  501    0  0.00000000000E+00  0.00000000000E+00  0.14732896861E+03  0.14732896870E+03  0.50400000000E-02 0. -1.
         -2   -1    0    0    0  501 -0.00000000000E+00 -0.00000000000E+00 -0.10725686313E+02  0.10725686616E+02  0.25500000000E-02 0.  1.
        -24    2    1    2    0    0  0.00000000000E+00  0.00000000000E+00  0.13660328230E+03  0.15805465532E+03  0.79503568044E+02 0.  0.
         66    2    3    3    0    0 -0.10519826609E+02  0.27065738219E+02  0.14448567764E+02  0.32495878702E+02  0.20000212419E+01 0.  0.
         13    1    3    3    0    0  0.10519826609E+02 -0.27065738219E+02  0.12215471454E+03  0.12555877661E+03  0.10566000000E+00 0. -1.
         13    1    4    4    0    0 -0.28663472700E+01  0.81213347742E+01  0.38347288734E+01  0.94280610284E+01  0.10566000000E+00 0. -1.
        -13    1    4    4    0    0 -0.21599639664E+01  0.55040926411E+01  0.23687589757E+01  0.63704523590E+01  0.10566000000E+00 0.  1.
        -14    1    4    4    0    0 -0.54935153727E+01  0.13440310803E+02  0.82450799150E+01  0.16697365315E+02  0.00000000000E+00 0.  1.
<mgrwt>
<rscale>  0 0.79503568E+02</rscale>
<asrwt>0</asrwt>
<pdfrwt beam="1">  1        1 0.22665996E-01 0.79503568E+02</pdfrwt>
<pdfrwt beam="2">  1       -2 0.16501056E-02 0.79503568E+02</pdfrwt>
<totfact> 0.16000230E+05</totfact>
</mgrwt>
</event>
<event>
 8    1  0.1319619E-024  0.7729421E+02  0.7818608E-02  0.1336910E+00
          1   -1    0    0  501    0  0.00000000000E+00  0.00000000000E+00  0.51728593591E+02  0.51728593837E+02  0.50400000000E-02 0. -1.
         -2   -1    0    0    0  501 -0.00000000000E+00 -0.00000000000E+00 -0.28873752623E+02  0.28873752736E+02  0.25500000000E-02 0.  1.
        -24    2    1    2    0    0  0.00000000000E+00  0.71054273576E-14  0.22854840968E+02  0.80602346572E+02  0.77294207528E+02 0.  0.
         66    2    3    3    0    0  0.19627107272E+02 -0.30370468674E+02 -0.27103603302E+01  0.36317141494E+02  0.20000014577E+01 0.  0.
         13    1    3    3    0    0 -0.19627107272E+02  0.30370468674E+02  0.25565201298E+02  0.44285205078E+02  0.10566000000E+00 0. -1.
         13    1    4    4    0    0  0.43213821263E+00 -0.83377087824E+00 -0.29660512829E+00  0.99048268533E+00  0.10566000000E+00 0. -1.
        -13    1    4    4    0    0  0.16516288624E+02 -0.25730942284E+02 -0.24356766384E+01  0.30672672943E+02  0.10566000000E+00 0.  1.
        -14    1    4    4    0    0  0.26786804356E+01 -0.38057555115E+01  0.21921436549E-01  0.46539858657E+01  0.00000000000E+00 0.  1.
<mgrwt>
<rscale>  0 0.77294208E+02</rscale>
<asrwt>0</asrwt>
<pdfrwt beam="1">  1        1 0.79582451E-02 0.77294208E+02</pdfrwt>
<pdfrwt beam="2">  1       -2 0.44421159E-02 0.77294208E+02</pdfrwt>
<totfact> 0.14549654E+05</totfact>
</mgrwt>
</event>
<event>
 8    1  0.1319619E-024  0.7962231E+02  0.7818608E-02  0.1330127E+00
          1   -1    0    0  501    0  0.00000000000E+00  0.00000000000E+00  0.69624490066E+01  0.69624508308E+01  0.50400000000E-02 0. -1.
         -2   -1    0    0    0  501 -0.00000000000E+00 -0.00000000000E+00 -0.22763943566E+03  0.22763943567E+03  0.25500000000E-02 0.  1.
        -24    2    1    2    0    0 -0.17763568394E-14  0.00000000000E+00 -0.22067698665E+03  0.23460188650E+03  0.79622312911E+02 0.  0.
         66    2    3    3    0    0 -0.10888370891E+02 -0.33083788496E+02 -0.16707064860E+03  0.17067423736E+03  0.19999979782E+01 0.  0.
         13    1    3    3    0    0  0.10888370891E+02  0.33083788496E+02 -0.53606338049E+02  0.63927649143E+02  0.10566000000E+00 0. -1.
         13    1    4    4    0    0 -0.41149805864E+01 -0.10888994932E+02 -0.57726322731E+02  0.58888392540E+02  0.10566000000E+00 0. -1.
        -13    1    4    4    0    0 -0.46960072108E+01 -0.16956626625E+02 -0.81778599796E+02  0.83650046138E+02  0.10566000000E+00 0.  1.
        -14    1    4    4    0    0 -0.20773830939E+01 -0.52381669399E+01 -0.27565726075E+02  0.28135798682E+02  0.00000000000E+00 0.  1.
<mgrwt>
<rscale>  0 0.79622313E+02</rscale>
<asrwt>0</asrwt>
<pdfrwt beam="1">  1        1 0.10711463E-02 0.79622313E+02</pdfrwt>
<pdfrwt beam="2">  1       -2 0.35021446E-01 0.79622313E+02</pdfrwt>
<totfact> 0.81508519E+04</totfact>
</mgrwt>
</event>
<event>
 8    1  0.1319619E-024  0.7313749E+02  0.7818608E-02  0.1349738E+00
         -2   -1    0    0    0  501 -0.00000000000E+00  0.00000000000E+00  0.39054395357E+03  0.39054395358E+03  0.25500000000E-02 0.  1.
          1   -1    0    0  501    0  0.00000000000E+00 -0.00000000000E+00 -0.34241274251E+01  0.34241311343E+01  0.50400000000E-02 0. -1.
        -24    2    1    2    0    0  0.00000000000E+00  0.17763568394E-14  0.38711982614E+03  0.39396808471E+03  0.73137486815E+02 0.  0.
         66    2    3    3    0    0 -0.29900974335E+02 -0.10264090081E+02  0.29242140289E+03  0.29413210752E+03  0.19999983835E+01 0.  0.
         13    1    3    3    0    0  0.29900974335E+02  0.10264090081E+02  0.94698423251E+02  0.99835977190E+02  0.10566000000E+00 0. -1.
         13    1    4    4    0    0 -0.13076329533E+02 -0.55087170583E+01  0.13138596928E+03  0.13214999222E+03  0.10566000000E+00 0. -1.
        -13    1    4    4    0    0 -0.11073198771E+02 -0.32518594670E+01  0.10547486671E+03  0.10610442494E+03  0.10566000000E+00 0.  1.
         14    1    4    4    0    0 -0.57514460307E+01 -0.15035135553E+01  0.55560566908E+02  0.55877690357E+02  0.00000000000E+00 0. -1.
<mgrwt>
<rscale>  0 0.73137487E+02</rscale>
<asrwt>0</asrwt>
<pdfrwt beam="1">  1        1 0.52678892E-03 0.73137487E+02</pdfrwt>
<pdfrwt beam="2">  1       -2 0.60083708E-01 0.73137487E+02</pdfrwt>
<totfact> 0.75617263E+04</totfact>
</mgrwt>
</event>
<event>
 8    1  0.1319619E-024  0.7965561E+02  0.7818608E-02  0.1330032E+00
          1   -1    0    0  501    0  0.00000000000E+00  0.00000000000E+00  0.62098294693E+02  0.62098294897E+02  0.50400000000E-02 0. -1.
         -2   -1    0    0    0  501 -0.00000000000E+00 -0.00000000000E+00 -0.25544242810E+02  0.25544242937E+02  0.25500000000E-02 0.  1.
        -24    2    1    2    0    0  0.17763568394E-14 -0.71054273576E-14  0.36554051883E+02  0.87642537834E+02  0.79655607015E+02 0.  0.
         66    2    3    3    0    0 -0.85689989396E+01  0.32902798218E+02 -0.44800497048E+01  0.34352477499E+02  0.19999979016E+01 0.  0.
         13    1    3    3    0    0  0.85689989396E+01 -0.32902798218E+02  0.41034101587E+02  0.53290060335E+02  0.10566000000E+00 0. -1.
         13    1    4    4    0    0 -0.29503648634E+01  0.98830688207E+01 -0.18037168849E+01  0.10471115546E+02  0.10566000000E+00 0. -1.
        -13    1    4    4    0    0 -0.48690292868E+01  0.21001088997E+02 -0.27079635232E+01  0.21727802828E+02  0.10566000000E+00 0.  1.
         14    1    4    4    0    0 -0.74960478943E+00  0.20186403998E+01  0.31630703262E-01  0.21535591251E+01  0.00000000000E+00 0. -1.
<mgrwt>
<rscale>  0 0.79655607E+02</rscale>
<asrwt>0</asrwt>
<pdfrwt beam="1">  1        1 0.95535837E-02 0.79655607E+02</pdfrwt>
<pdfrwt beam="2">  1       -2 0.39298836E-02 0.79655607E+02</pdfrwt>
<totfact> 0.13774075E+05</totfact>
</mgrwt>
</event>
<event>
 8    1  0.1319619E-024  0.8051805E+02  0.7818608E-02  0.1327588E+00
         -2   -1    0    0    0  501 -0.00000000000E+00  0.00000000000E+00  0.27073973943E+02  0.27073974063E+02  0.25500000000E-02 0.  1.
          1   -1    0    0  501    0  0.00000000000E+00 -0.00000000000E+00 -0.59865204643E+02  0.59865204855E+02  0.50400000000E-02 0. -1.
        -24    2    1    2    0    0 -0.17763568394E-14  0.35527136788E-14 -0.32791230699E+02  0.86939178918E+02  0.80518047792E+02 0.  0.
         66    2    3    3    0    0  0.91560692631E+01 -0.21795883935E+02  0.18746509907E+02  0.30237820630E+02  0.20000004616E+01 0.  0.
         13    1    3    3    0    0 -0.91560692631E+01  0.21795883935E+02 -0.51537740607E+02  0.56701358288E+02  0.10566000000E+00 0. -1.
         13    1    4    4    0    0  0.74258184267E+00 -0.29023165283E+01  0.28261238029E+01  0.41198311626E+01  0.10566000000E+00 0. -1.
        -13    1    4    4    0    0  0.60285778230E+01 -0.13937717053E+02  0.12175032990E+02  0.19463974403E+02  0.10566000000E+00 0.  1.
         14    1    4    4    0    0  0.23849095974E+01 -0.49558503544E+01  0.37453531147E+01  0.66540150643E+01  0.00000000000E+00 0. -1.
<mgrwt>
<rscale>  0 0.80518048E+02</rscale>
<asrwt>0</asrwt>
<pdfrwt beam="1">  1        1 0.92100315E-02 0.80518048E+02</pdfrwt>
<pdfrwt beam="2">  1       -2 0.41652268E-02 0.80518048E+02</pdfrwt>
<totfact> 0.13294893E+05</totfact>
</mgrwt>
</event>
<event>
 8    1  0.1319619E-024  0.7953422E+02  0.7818608E-02  0.1330378E+00
         -2   -1    0    0    0  501 -0.00000000000E+00  0.00000000000E+00  0.14746193342E+03  0.14746193344E+03  0.25500000000E-02 0.  1.
          1   -1    0    0  501    0  0.00000000000E+00 -0.00000000000E+00 -0.10724278005E+02  0.10724279190E+02  0.50400000000E-02 0. -1.
        -24    2    1    2    0    0 -0.88817841970E-15  0.00000000000E+00  0.13673765542E+03  0.15818621263E+03  0.79534215647E+02 0.  0.
         66    2    3    3    0    0 -0.76150233747E+01  0.27238290114E+02  0.12394147565E+03  0.12714323581E+03  0.19999991153E+01 0.  0.
         13    1    3    3    0    0  0.76150233747E+01 -0.27238290114E+02  0.12796179763E+02  0.31042976820E+02  0.10566000000E+00 0. -1.
         13    1    4    4    0    0 -0.54394875042E+00  0.16431625666E+01  0.60507155157E+01  0.62942978759E+01  0.10566000000E+00 0. -1.
        -13    1    4    4    0    0 -0.19533313151E+01  0.82923788064E+01  0.39478381336E+02  0.40387285207E+02  0.10566000000E+00 0.  1.
        -14    1    4    4    0    0 -0.51177433092E+01  0.17302748741E+02  0.78412378803E+02  0.80461652730E+02  0.00000000000E+00 0.  1.
<mgrwt>
<rscale>  0 0.79534216E+02</rscale>
<asrwt>0</asrwt>
<pdfrwt beam="1">  1        1 0.16498891E-02 0.79534216E+02</pdfrwt>
<pdfrwt beam="2">  1       -2 0.22686451E-01 0.79534216E+02</pdfrwt>
<totfact> 0.96477061E+04</totfact>
</mgrwt>
</event>
<event>
 8    1  0.1319619E-024  0.8095583E+02  0.7818608E-02  0.1326361E+00
          1   -1    0    0  501    0  0.00000000000E+00  0.00000000000E+00  0.13260416070E+02  0.13260417028E+02  0.50400000000E-02 0. -1.
         -2   -1    0    0    0  501 -0.00000000000E+00 -0.00000000000E+00 -0.12356034125E+03  0.12356034127E+03  0.25500000000E-02 0.  1.
        -24    2    1    2    0    0  0.00000000000E+00  0.71054273576E-14 -0.11029992518E+03  0.13682075830E+03  0.80955829981E+02 0.  0.
         66    2    3    3    0    0  0.79640848591E+01 -0.35992778204E+02 -0.83339751253E+02  0.91150539640E+02  0.20000017967E+01 0.  0.
         13    1    3    3    0    0 -0.79640848591E+01  0.35992778204E+02 -0.26960173924E+02  0.45670218661E+02  0.10566000000E+00 0. -1.
         13    1    4    4    0    0  0.41880395018E+01 -0.15447954019E+02 -0.36823705730E+02  0.40151904388E+02  0.10566000000E+00 0. -1.
        -13    1    4    4    0    0  0.35337785470E+01 -0.17536752297E+02 -0.39804135119E+02  0.43639495970E+02  0.10566000000E+00 0.  1.
         14    1    4    4    0    0  0.24226681034E+00 -0.30080718884E+01 -0.67119104047E+01  0.73591392821E+01  0.00000000000E+00 0. -1.
<mgrwt>
<rscale>  0 0.80955830E+02</rscale>
<asrwt>0</asrwt>
<pdfrwt beam="1">  1        1 0.20400642E-02 0.80955830E+02</pdfrwt>
<pdfrwt beam="2">  1       -2 0.19009282E-01 0.80955830E+02</pdfrwt>
<totfact> 0.97296611E+04</totfact>
</mgrwt>
</event>
<event>
 8    1  0.1319619E-024  0.8220054E+02  0.7818608E-02  0.1322920E+00
         -2   -1    0    0    0  501 -0.00000000000E+00  0.00000000000E+00  0.28718503261E+02  0.28718503374E+02  0.25500000000E-02 0.  1.
          1   -1    0    0  501    0  0.00000000000E+00 -0.00000000000E+00 -0.58820344628E+02  0.58820344844E+02  0.50400000000E-02 0. -1.
        -24    2    1    2    0    0  0.00000000000E+00 -0.17763568394E-14 -0.30101841367E+02  0.87538848219E+02  0.82200541931E+02 0.  0.
         66    2    3    3    0    0  0.28699803018E+02 -0.14906167383E+02  0.11909844165E+02  0.34521252983E+02  0.20000000427E+01 0.  0.
         13    1    3    3    0    0 -0.28699803018E+02  0.14906167383E+02 -0.42011685532E+02  0.53017595236E+02  0.10566000000E+00 0. -1.
         13    1    4    4    0    0  0.97530914983E+01 -0.54984350176E+01  0.41984663892E+01  0.11958004243E+02  0.10566000000E+00 0.  1.
        -13    1    4    4    0    0  0.47953962747E+01 -0.24595580799E+01  0.13041335685E+01  0.55459155944E+01  0.10566000000E+00 0. -1.
         14    1    4    4    0    0  0.14151315245E+02 -0.69481742853E+01  0.64072442075E+01  0.17017333146E+02  0.00000000000E+00 0. -1.
<mgrwt>
<rscale>  0 0.82200542E+02</rscale>
<asrwt>0</asrwt>
<pdfrwt beam="1">  1        1 0.90492838E-02 0.82200542E+02</pdfrwt>
<pdfrwt beam="2">  1       -2 0.44182313E-02 0.82200542E+02</pdfrwt>
<totfact> 0.12520774E+05</totfact>
</mgrwt>
</event>
<event>
 8    1  0.1319619E-024  0.8141871E+02  0.7818608E-02  0.1325073E+00
         -2   -1    0    0    0  501 -0.00000000000E+00  0.00000000000E+00  0.10930268512E+02  0.10930268810E+02  0.25500000000E-02 0.  1.
          1   -1    0    0  501    0  0.00000000000E+00 -0.00000000000E+00 -0.15162038082E+03  0.15162038091E+03  0.50400000000E-02 0. -1.
        -24    2    1    2    0    0  0.00000000000E+00  0.00000000000E+00 -0.14069011231E+03  0.16255064972E+03  0.81418708055E+02 0.  0.
         66    2    3    3    0    0 -0.29372401741E+02  0.46244465574E+01 -0.14946987594E+02  0.33339705647E+02  0.20000111126E+01 0.  0.
         13    1    3    3    0    0  0.29372401741E+02 -0.46244465574E+01 -0.12574312472E+03  0.12921094407E+03  0.10566000000E+00 0. -1.
         13    1    4    4    0    0 -0.14184562876E+02  0.23853807371E+01 -0.76938107463E+01  0.16312502968E+02  0.10566000000E+00 0. -1.
        -13    1    4    4    0    0 -0.57729947896E+01  0.11472248883E+01 -0.33820487152E+01  0.67891834069E+01  0.10566000000E+00 0.  1.
         14    1    4    4    0    0 -0.94148440757E+01  0.10918409321E+01 -0.38711281330E+01  0.10238019272E+02  0.00000000000E+00 0. -1.
<mgrwt>
<rscale>  0 0.81418708E+02</rscale>
<asrwt>0</asrwt>
<pdfrwt beam="1">  1        1 0.23326211E-01 0.81418708E+02</pdfrwt>
<pdfrwt beam="2">  1       -2 0.16815799E-02 0.81418708E+02</pdfrwt>
<totfact> 0.15093370E+05</totfact>
</mgrwt>
</event>
<event>
 8    1  0.1319619E-024  0.8275039E+02  0.7818608E-02  0.1321423E+00
         -2   -1    0    0    0  501 -0.00000000000E+00  0.00000000000E+00  0.17814771912E+03  0.17814771913E+03  0.25500000000E-02 0.  1.
          1   -1    0    0  501    0  0.00000000000E+00 -0.00000000000E+00 -0.96094787307E+01  0.96094800524E+01  0.50400000000E-02 0. -1.
        -24    2    1    2    0    0 -0.17763568394E-14  0.71054273576E-14  0.16853824038E+03  0.18775719919E+03  0.82750391988E+02 0.  0.
         66    2    3    3    0    0 -0.99624961827E+01  0.40132717853E+02  0.84036002737E+02  0.93679966531E+02  0.20000002160E+01 0.  0.
         13    1    3    3    0    0  0.99624961827E+01 -0.40132717853E+02  0.84502237648E+02  0.94077232654E+02  0.10566000000E+00 0. -1.
         13    1    4    4    0    0 -0.30148487901E+01  0.11687401449E+02  0.22823211821E+02  0.25818497782E+02  0.10566000000E+00 0.  1.
        -13    1    4    4    0    0 -0.18774544074E+01  0.86896245659E+01  0.17864679234E+02  0.19954757286E+02  0.10566000000E+00 0.  1.
        -14    1    4    4    0    0 -0.50701929851E+01  0.19755691838E+02  0.43348111681E+02  0.47906711463E+02  0.00000000000E+00 0.  1.
<mgrwt>
<rscale>  0 0.82750392E+02</rscale>
<asrwt>0</asrwt>
<pdfrwt beam="1">  1        1 0.14783816E-02 0.82750392E+02</pdfrwt>
<pdfrwt beam="2">  1       -2 0.27407339E-01 0.82750392E+02</pdfrwt>
<totfact> 0.81560721E+04</totfact>
</mgrwt>
</event>
<event>
 8    1  0.1319619E-024  0.8034066E+02  0.7818608E-02  0.1328087E+00
         -2   -1    0    0    0  501 -0.00000000000E+00  0.00000000000E+00  0.53328479058E+02  0.53328479119E+02  0.25500000000E-02 0.  1.
          1   -1    0    0  501    0  0.00000000000E+00 -0.00000000000E+00 -0.30258793515E+02  0.30258793934E+02  0.50400000000E-02 0. -1.
        -24    2    1    2    0    0  0.35527136788E-14  0.35527136788E-14  0.23069685543E+02  0.83587273053E+02  0.80340661097E+02 0.  0.
         66    2    3    3    0    0 -0.31664379140E+02 -0.21467798678E+02  0.24205575849E+02  0.45314558266E+02  0.20000005643E+01 0.  0.
         13    1    3    3    0    0  0.31664379140E+02  0.21467798678E+02 -0.11358903055E+01  0.38272714788E+02  0.10566000000E+00 0. -1.
         13    1    4    4    0    0 -0.36268688076E+00 -0.16065690845E+00  0.35629814312E+00  0.54356675588E+00  0.10566000000E+00 0.  1.
        -13    1    4    4    0    0 -0.44123088934E+01 -0.27583172394E+01  0.27985351891E+01  0.59092932745E+01  0.10566000000E+00 0. -1.
        -14    1    4    4    0    0 -0.26889383366E+02 -0.18548824530E+02  0.21050742517E+02  0.38861698235E+02  0.00000000000E+00 0.  1.
<mgrwt>
<rscale>  0 0.80340661E+02</rscale>
<asrwt>0</asrwt>
<pdfrwt beam="1">  1        1 0.46551991E-02 0.80340661E+02</pdfrwt>
<pdfrwt beam="2">  1       -2 0.82043814E-02 0.80340661E+02</pdfrwt>
<totfact> 0.11966181E+05</totfact>
</mgrwt>
</event>
<event>
 8    1  0.1319619E-024  0.8041876E+02  0.7818608E-02  0.1327867E+00
         -2   -1    0    0    0  501 -0.00000000000E+00  0.00000000000E+00  0.16034964552E+03  0.16034964554E+03  0.25500000000E-02 0.  1.
          1   -1    0    0  501    0  0.00000000000E+00 -0.00000000000E+00 -0.10082929545E+02  0.10082930804E+02  0.50400000000E-02 0. -1.
        -24    2    1    2    0    0  0.00000000000E+00  0.00000000000E+00  0.15026671597E+03  0.17043257634E+03  0.80418761179E+02 0.  0.
         66    2    3    3    0    0  0.16537258308E+02  0.24166643508E+02  0.13350056693E+03  0.13668909566E+03  0.19999826809E+01 0.  0.
         13    1    3    3    0    0 -0.16537258308E+02 -0.24166643508E+02  0.16766149040E+02  0.33743480680E+02  0.10566000000E+00 0. -1.
         13    1    4    4    0    0  0.31656472511E+01  0.47712903923E+01  0.24926972705E+02  0.25576388853E+02  0.10566000000E+00 0.  1.
        -13    1    4    4    0    0  0.10177712277E+02  0.15939664023E+02  0.86762266619E+02  0.88799553993E+02  0.10566000000E+00 0. -1.
        -14    1    4    4    0    0  0.31938987798E+01  0.34556890924E+01  0.21811327611E+02  0.22313152818E+02  0.00000000000E+00 0.  1.
<mgrwt>
<rscale>  0 0.80418761E+02</rscale>
<asrwt>0</asrwt>
<pdfrwt beam="1">  1        1 0.15512202E-02 0.80418761E+02</pdfrwt>
<pdfrwt beam="2">  1       -2 0.24669174E-01 0.80418761E+02</pdfrwt>
<totfact> 0.91177406E+04</totfact>
</mgrwt>
</event>
<event>
 8    1  0.1319619E-024  0.7202648E+02  0.7818608E-02  0.1353334E+00
          1   -1    0    0  501    0  0.00000000000E+00  0.00000000000E+00  0.47623570185E+01  0.47623596855E+01  0.50400000000E-02 0. -1.
         -2   -1    0    0    0  501 -0.00000000000E+00 -0.00000000000E+00 -0.27233425427E+03  0.27233425429E+03  0.25500000000E-02 0.  1.
        -24    2    1    2    0    0  0.35527136788E-14  0.88817841970E-15 -0.26757189726E+03  0.27709661397E+03  0.72026476198E+02 0.  0.
         66    2    3    3    0    0 -0.25286564012E+02 -0.56461069076E+01 -0.22996436452E+03  0.23142795377E+03  0.19999977249E+01 0.  0.
         13    1    3    3    0    0  0.25286564012E+02  0.56461069076E+01 -0.37607532733E+02  0.45668660206E+02  0.10566000000E+00 0. -1.
         13    1    4    4    0    0 -0.71074973212E+01 -0.21349618311E+01 -0.71103435262E+02  0.71489749267E+02  0.10566000000E+00 0. -1.
        -13    1    4    4    0    0 -0.87026718205E+01 -0.14735571673E+01 -0.78575662134E+02  0.79069929249E+02  0.10566000000E+00 0.  1.
         14    1    4    4    0    0 -0.94763948704E+01 -0.20375879092E+01 -0.80285267126E+02  0.80868275249E+02  0.00000000000E+00 0. -1.
<mgrwt>
<rscale>  0 0.72026476E+02</rscale>
<asrwt>0</asrwt>
<pdfrwt beam="1">  1        1 0.73267073E-03 0.72026476E+02</pdfrwt>
<pdfrwt beam="2">  1       -2 0.41897565E-01 0.72026476E+02</pdfrwt>
<totfact> 0.96851317E+04</totfact>
</mgrwt>
</event>
<event>
 8    1  0.1319619E-024  0.8193380E+02  0.7818608E-02  0.1323651E+00
          1   -1    0    0  501    0  0.00000000000E+00  0.00000000000E+00  0.61465842225E+02  0.61465842431E+02  0.50400000000E-02 0. -1.
         -2   -1    0    0    0  501 -0.00000000000E+00 -0.00000000000E+00 -0.27304384901E+02  0.27304385020E+02  0.25500000000E-02 0.  1.
        -24    2    1    2    0    0  0.88817841970E-15  0.00000000000E+00  0.34161457324E+02  0.88770227451E+02  0.81933803252E+02 0.  0.
         66    2    3    3    0    0 -0.65770640024E+01  0.36144715094E+02 -0.24886208453E+01  0.36876705756E+02  0.19999983870E+01 0.  0.
         13    1    3    3    0    0  0.65770640024E+01 -0.36144715094E+02  0.36650078169E+02  0.51893521696E+02  0.10566000000E+00 0. -1.
         13    1    4    4    0    0 -0.56782646056E+00  0.56847139760E+01 -0.91665564158E+00  0.57870390943E+01  0.10566000000E+00 0. -1.
        -13    1    4    4    0    0 -0.20152735655E+01  0.94906916027E+01 -0.59127963532E+00  0.97208708604E+01  0.10566000000E+00 0.  1.
         14    1    4    4    0    0 -0.39939639764E+01  0.20969309516E+02 -0.98068556842E+00  0.21368795801E+02  0.00000000000E+00 0. -1.
<mgrwt>
<rscale>  0 0.81933803E+02</rscale>
<asrwt>0</asrwt>
<pdfrwt beam="1">  1        1 0.94562833E-02 0.81933803E+02</pdfrwt>
<pdfrwt beam="2">  1       -2 0.42006747E-02 0.81933803E+02</pdfrwt>
<totfact> 0.12723186E+05</totfact>
</mgrwt>
</event>
<event>
 8    1  0.1319619E-024  0.7996164E+02  0.7818608E-02  0.1329160E+00
          1   -1    0    0  501    0  0.00000000000E+00  0.00000000000E+00  0.22975367859E+02  0.22975368412E+02  0.50400000000E-02 0. -1.
         -2   -1    0    0    0  501 -0.00000000000E+00 -0.00000000000E+00 -0.69573035883E+02  0.69573035930E+02  0.25500000000E-02 0.  1.
        -24    2    1    2    0    0  0.00000000000E+00 -0.17763568394E-14 -0.46597668023E+02  0.92548404342E+02  0.79961643811E+02 0.  0.
         66    2    3    3    0    0  0.12158932978E+02 -0.12857273266E+02 -0.64775665624E+02  0.67179133801E+02  0.20000085587E+01 0.  0.
         13    1    3    3    0    0 -0.12158932978E+02  0.12857273266E+02  0.18177997600E+02  0.25369270541E+02  0.10566000000E+00 0. -1.
         13    1    4    4    0    0  0.34387465907E+01 -0.26909849301E+01 -0.16221133608E+02  0.16798890368E+02  0.10566000000E+00 0. -1.
        -13    1    4    4    0    0  0.26841194094E+01 -0.38329413663E+01 -0.15998097481E+02  0.16668719914E+02  0.10566000000E+00 0.  1.
        -14    1    4    4    0    0  0.60360669778E+01 -0.63333469696E+01 -0.32556434534E+02  0.33711523519E+02  0.00000000000E+00 0.  1.
<mgrwt>
<rscale>  0 0.79961644E+02</rscale>
<asrwt>0</asrwt>
<pdfrwt beam="1">  1        1 0.35346721E-02 0.79961644E+02</pdfrwt>
<pdfrwt beam="2">  1       -2 0.10703544E-01 0.79961644E+02</pdfrwt>
<totfact> 0.11519257E+05</totfact>
</mgrwt>
</event>
<event>
 8    1  0.1319619E-024  0.7904011E+02  0.7818608E-02  0.1331798E+00
          1   -1    0    0  501    0  0.00000000000E+00  0.00000000000E+00  0.29772640130E+02  0.29772640557E+02  0.50400000000E-02 0. -1.
         -2   -1    0    0    0  501 -0.00000000000E+00 -0.00000000000E+00 -0.52458718532E+02  0.52458718594E+02  0.25500000000E-02 0.  1.
        -24    2    1    2    0    0  0.00000000000E+00 -0.35527136788E-14 -0.22686078402E+02  0.82231359151E+02  0.79040105482E+02 0.  0.
         66    2    3    3    0    0  0.28710440932E+02  0.21700321832E+02  0.55741703175E+01  0.36472794839E+02  0.20000006258E+01 0.  0.
         13    1    3    3    0    0 -0.28710440932E+02 -0.21700321832E+02 -0.28260248720E+02  0.45758564312E+02  0.10566000000E+00 0. -1.
         13    1    4    4    0    0  0.28018489822E+01  0.18407020558E+01  0.92355695200E+00  0.34788882214E+01  0.10566000000E+00 0. -1.
        -13    1    4    4    0    0  0.88818388366E+01  0.74726595609E+01  0.15300901365E+01  0.11708118632E+02  0.10566000000E+00 0.  1.
        -14    1    4    4    0    0  0.17026753114E+02  0.12386960215E+02  0.31205232290E+01  0.21285787986E+02  0.00000000000E+00 0.  1.
<mgrwt>
<rscale>  0 0.79040105E+02</rscale>
<asrwt>0</asrwt>
<pdfrwt beam="1">  1        1 0.45804062E-02 0.79040105E+02</pdfrwt>
<pdfrwt beam="2">  1       -2 0.80705721E-02 0.79040105E+02</pdfrwt>
<totfact> 0.12504594E+05</totfact>
</mgrwt>
</event>
<event>
 8    1  0.1319619E-024  0.7737364E+02  0.7818608E-02  0.1336674E+00
          1   -1    0    0  501    0  0.00000000000E+00  0.00000000000E+00  0.20661191892E+02  0.20661192507E+02  0.50400000000E-02 0. -1.
         -2   -1    0    0    0  501 -0.00000000000E+00 -0.00000000000E+00 -0.72438710453E+02  0.72438710498E+02  0.25500000000E-02 0.  1.
        -24    2    1    2    0    0  0.00000000000E+00  0.00000000000E+00 -0.51777518561E+02  0.93099903005E+02  0.77373642226E+02 0.  0.
         66    2    3    3    0    0  0.19249567014E+02  0.27831021271E+02 -0.48402412402E+02  0.59092343833E+02  0.19999995478E+01 0.  0.
         13    1    3    3    0    0 -0.19249567014E+02 -0.27831021271E+02 -0.33751061588E+01  0.34007559172E+02  0.10566000000E+00 0. -1.
         13    1    4    4    0    0  0.41027332080E+01  0.65348410536E+01 -0.11727294340E+02  0.14038417430E+02  0.10566000000E+00 0. -1.
        -13    1    4    4    0    0  0.59353671385E+01  0.86699650541E+01 -0.15841487015E+02  0.19009491103E+02  0.10566000000E+00 0.  1.
         14    1    4    4    0    0  0.92114666676E+01  0.12626215163E+02 -0.20833631047E+02  0.26044435300E+02  0.00000000000E+00 0. -1.
<mgrwt>
<rscale>  0 0.77373642E+02</rscale>
<asrwt>0</asrwt>
<pdfrwt beam="1">  1        1 0.31786450E-02 0.77373642E+02</pdfrwt>
<pdfrwt beam="2">  1       -2 0.11144417E-01 0.77373642E+02</pdfrwt>
<totfact> 0.12421922E+05</totfact>
</mgrwt>
</event>
<event>
 8    1  0.1319619E-024  0.7649997E+02  0.7818608E-02  0.1339288E+00
         -2   -1    0    0    0  501 -0.00000000000E+00  0.00000000000E+00  0.88783296617E+02  0.88783296653E+02  0.25500000000E-02 0.  1.
          1   -1    0    0  501    0  0.00000000000E+00 -0.00000000000E+00 -0.16479013487E+02  0.16479014258E+02  0.50400000000E-02 0. -1.
        -24    2    1    2    0    0 -0.88817841970E-15 -0.35527136788E-14  0.72304283129E+02  0.10526231091E+03  0.76499965618E+02 0.  0.
         66    2    3    3    0    0  0.63681460905E+01  0.19133502935E+02  0.80857161106E+02  0.83357811262E+02  0.19999942887E+01 0.  0.
         13    1    3    3    0    0 -0.63681460905E+01 -0.19133502935E+02 -0.85528779761E+01  0.21904499649E+02  0.10566000000E+00 0. -1.
         13    1    4    4    0    0  0.56427003652E+00  0.18364255297E+01  0.57314968853E+01  0.60458316204E+01  0.10566000000E+00 0. -1.
        -13    1    4    4    0    0  0.24340068483E+00  0.10729493909E+01  0.45921006014E+01  0.47232421342E+01  0.10566000000E+00 0.  1.
         14    1    4    4    0    0  0.55604753692E+01  0.16224128014E+02  0.70533563619E+02  0.72588737507E+02  0.00000000000E+00 0. -1.
<mgrwt>
<rscale>  0 0.76499966E+02</rscale>
<asrwt>0</asrwt>
<pdfrwt beam="1">  1        1 0.25352329E-02 0.76499966E+02</pdfrwt>
<pdfrwt beam="2">  1       -2 0.13658969E-01 0.76499966E+02</pdfrwt>
<totfact> 0.12239603E+05</totfact>
</mgrwt>
</event>
<event>
 8    1  0.1319619E-024  0.8038004E+02  0.7818608E-02  0.1327976E+00
          1   -1    0    0  501    0  0.00000000000E+00  0.00000000000E+00  0.33332947292E+02  0.33332947673E+02  0.50400000000E-02 0. -1.
         -2   -1    0    0    0  501 -0.00000000000E+00 -0.00000000000E+00 -0.48457691155E+02  0.48457691222E+02  0.25500000000E-02 0.  1.
        -24    2    1    2    0    0  0.00000000000E+00  0.00000000000E+00 -0.15124743863E+02  0.81790638895E+02  0.80380039400E+02 0.  0.
         66    2    3    3    0    0  0.82129215657E+01  0.34603762122E+02 -0.26558996956E+02  0.44432564246E+02  0.20000031533E+01 0.  0.
         13    1    3    3    0    0 -0.82129215657E+01 -0.34603762122E+02  0.11434253093E+02  0.37358074649E+02  0.10566000000E+00 0. -1.
         13    1    4    4    0    0  0.46125200615E+01  0.18144081082E+02 -0.14416434003E+02  0.23628960049E+02  0.10566000000E+00 0. -1.
        -13    1    4    4    0    0  0.34155936803E+01  0.15996595895E+02 -0.11993143509E+02  0.20283096797E+02  0.10566000000E+00 0.  1.
         14    1    4    4    0    0  0.18480782397E+00  0.46308514516E+00 -0.14941944344E+00  0.52050740009E+00  0.00000000000E+00 0. -1.
<mgrwt>
<rscale>  0 0.80380039E+02</rscale>
<asrwt>0</asrwt>
<pdfrwt beam="1">  1        1 0.51281458E-02 0.80380039E+02</pdfrwt>
<pdfrwt beam="2">  1       -2 0.74550294E-02 0.80380039E+02</pdfrwt>
<totfact> 0.12152799E+05</totfact>
</mgrwt>
</event>
<event>
 8    1  0.1319619E-024  0.8099851E+02  0.7818608E-02  0.1326241E+00
         -2   -1    0    0    0  501 -0.00000000000E+00  0.00000000000E+00  0.77635234343E+01  0.77635238531E+01  0.25500000000E-02 0.  1.
          1   -1    0    0  501    0  0.00000000000E+00 -0.00000000000E+00 -0.21126873175E+03  0.21126873181E+03  0.50400000000E-02 0. -1.
        -24    2    1    2    0    0  0.00000000000E+00 -0.71054273576E-14 -0.20350520831E+03  0.21903225566E+03  0.80998513623E+02 0.  0.
         66    2    3    3    0    0 -0.82073209002E+01  0.32078817125E+02 -0.38872519122E+02  0.51102674768E+02  0.20000002591E+01 0.  0.
         13    1    3    3    0    0  0.82073209002E+01 -0.32078817125E+02 -0.16463268919E+03  0.16792958089E+03  0.10566000000E+00 0. -1.
         13    1    4    4    0    0 -0.10468344535E+01  0.26911158987E+01 -0.39530326925E+01  0.48964884006E+01  0.10566000000E+00 0.  1.
        -13    1    4    4    0    0 -0.30333892356E+01  0.13604094884E+02 -0.15603908990E+02  0.20922858019E+02  0.10566000000E+00 0.  1.
         14    1    4    4    0    0 -0.41270972112E+01  0.15783606343E+02 -0.19315577440E+02  0.25283328349E+02  0.00000000000E+00 0. -1.
<mgrwt>
<rscale>  0 0.80998514E+02</rscale>
<asrwt>0</asrwt>
<pdfrwt beam="1">  1        1 0.32502878E-01 0.80998514E+02</pdfrwt>
<pdfrwt beam="2">  1       -2 0.11943884E-02 0.80998514E+02</pdfrwt>
<totfact> 0.16306852E+05</totfact>
</mgrwt>
</event>
<event>
 8    1  0.1319619E-024  0.7993739E+02  0.7818608E-02  0.1329229E+00
          1   -1    0    0  501    0  0.00000000000E+00  0.00000000000E+00  0.20546218504E+02  0.20546219122E+02  0.50400000000E-02 0. -1.
         -2   -1    0    0    0  501 -0.00000000000E+00 -0.00000000000E+00 -0.77751360943E+02  0.77751360985E+02  0.25500000000E-02 0.  1.
        -24    2    1    2    0    0 -0.35527136788E-14  0.88817841970E-15 -0.57205142439E+02  0.98297580106E+02  0.79937387581E+02 0.  0.
         66    2    3    3    0    0  0.24379697805E+02 -0.47346048285E+01 -0.67090131438E+02  0.71567254267E+02  0.19999997557E+01 0.  0.
         13    1    3    3    0    0 -0.24379697805E+02  0.47346048285E+01  0.98849889983E+01  0.26730325840E+02  0.10566000000E+00 0. -1.
         13    1    4    4    0    0  0.10189223133E+01 -0.14484391243E+00 -0.37032035918E+01  0.38450049828E+01  0.10566000000E+00 0.  1.
        -13    1    4    4    0    0  0.16643790015E+02 -0.32312115396E+01 -0.43483627423E+02  0.46672191849E+02  0.10566000000E+00 0.  1.
        -14    1    4    4    0    0  0.67169854766E+01 -0.13585493765E+01 -0.19903300423E+02  0.21050057435E+02  0.00000000000E+00 0.  1.
<mgrwt>
<rscale>  0 0.79937388E+02</rscale>
<asrwt>0</asrwt>
<pdfrwt beam="1">  1        1 0.31609568E-02 0.79937388E+02</pdfrwt>
<pdfrwt beam="2">  1       -2 0.11961748E-01 0.79937388E+02</pdfrwt>
<totfact> 0.11266944E+05</totfact>
</mgrwt>
</event>
<event>
 8    1  0.1319619E-024  0.8123975E+02  0.7818608E-02  0.1325570E+00
          1   -1    0    0  501    0  0.00000000000E+00  0.00000000000E+00  0.87950951186E+01  0.87950965626E+01  0.50400000000E-02 0. -1.
         -2   -1    0    0    0  501 -0.00000000000E+00 -0.00000000000E+00 -0.18760163912E+03  0.18760163914E+03  0.25500000000E-02 0.  1.
        -24    2    1    2    0    0 -0.44408920985E-15  0.00000000000E+00 -0.17880654401E+03  0.19639673570E+03  0.81239753914E+02 0.  0.
         66    2    3    3    0    0  0.26482668908E+01 -0.31215867428E+02 -0.15187017092E+03  0.15508060017E+03  0.20000088905E+01 0.  0.
         13    1    3    3    0    0 -0.26482668908E+01  0.31215867428E+02 -0.26936373084E+02  0.41316135537E+02  0.10566000000E+00 0. -1.
         13    1    4    4    0    0  0.20861033335E+01 -0.15431097238E+02 -0.73049009109E+02  0.74690290433E+02  0.10566000000E+00 0. -1.
        -13    1    4    4    0    0  0.40603906652E+00 -0.67209472571E+01 -0.32443278683E+02  0.33134777734E+02  0.10566000000E+00 0.  1.
         14    1    4    4    0    0  0.15612449078E+00 -0.90638229329E+01 -0.46377883129E+02  0.47255531999E+02  0.00000000000E+00 0. -1.
<mgrwt>
<rscale>  0 0.81239754E+02</rscale>
<asrwt>0</asrwt>
<pdfrwt beam="1">  1        1 0.13530918E-02 0.81239754E+02</pdfrwt>
<pdfrwt beam="2">  1       -2 0.28861788E-01 0.81239754E+02</pdfrwt>
<totfact> 0.83867969E+04</totfact>
</mgrwt>
</event>
<event>
 8    1  0.1319619E-024  0.8080290E+02  0.7818608E-02  0.1326788E+00
          1   -1    0    0  501    0  0.00000000000E+00  0.00000000000E+00  0.12124886530E+03  0.12124886540E+03  0.50400000000E-02 0. -1.
         -2   -1    0    0    0  501 -0.00000000000E+00 -0.00000000000E+00 -0.13462207134E+02  0.13462207376E+02  0.25500000000E-02 0.  1.
        -24    2    1    2    0    0  0.35527136788E-14 -0.11102230246E-15  0.10778665816E+03  0.13471107278E+03  0.80802904966E+02 0.  0.
         66    2    3    3    0    0  0.27780670029E+02 -0.98597272459E+00  0.51057622397E+01  0.28333841562E+02  0.20000000246E+01 0.  0.
         13    1    3    3    0    0 -0.27780670029E+02  0.98597272459E+00  0.10268089592E+03  0.10637723122E+03  0.10566000000E+00 0. -1.
         13    1    4    4    0    0  0.10261307724E+01  0.27084162710E+00  0.16022841090E+00  0.10784881679E+01  0.10566000000E+00 0. -1.
        -13    1    4    4    0    0  0.23456248662E+02 -0.89740990028E+00  0.45940186961E+01  0.23918969828E+02  0.10566000000E+00 0.  1.
        -14    1    4    4    0    0  0.32982905951E+01 -0.35940445141E+00  0.35151513266E+00  0.33363835657E+01  0.00000000000E+00 0.  1.
<mgrwt>
<rscale>  0 0.80802905E+02</rscale>
<asrwt>0</asrwt>
<pdfrwt beam="1">  1        1 0.18653671E-01 0.80802905E+02</pdfrwt>
<pdfrwt beam="2">  1       -2 0.20711089E-02 0.80802905E+02</pdfrwt>
<totfact> 0.14791425E+05</totfact>
</mgrwt>
</event>
<event>
 8    1  0.1319619E-024  0.8120492E+02  0.7818608E-02  0.1325666E+00
          1   -1    0    0  501    0  0.00000000000E+00  0.00000000000E+00  0.42266431964E+03  0.42266431967E+03  0.50400000000E-02 0. -1.
         -2   -1    0    0    0  501 -0.00000000000E+00 -0.00000000000E+00 -0.39003993554E+01  0.39004001889E+01  0.25500000000E-02 0.  1.
        -24    2    1    2    0    0  0.00000000000E+00  0.00000000000E+00  0.41876392029E+03  0.42656471986E+03  0.81204921626E+02 0.  0.
         66    2    3    3    0    0  0.38958992481E+02  0.22478736263E+01  0.26793181588E+03  0.27076616109E+03  0.20000000943E+01 0.  0.
         13    1    3    3    0    0 -0.38958992481E+02 -0.22478736263E+01  0.15083210440E+03  0.15579855877E+03  0.10566000000E+00 0. -1.
         13    1    4    4    0    0  0.17749998794E+02  0.15033007689E+01  0.12479507866E+03  0.12606008565E+03  0.10566000000E+00 0. -1.
        -13    1    4    4    0    0  0.10110671220E+02  0.67979105092E-01  0.71569361863E+02  0.72280114936E+02  0.10566000000E+00 0.  1.
         14    1    4    4    0    0  0.11098322467E+02  0.67659375235E+00  0.71567375354E+02  0.72425960510E+02  0.00000000000E+00 0. -1.
<mgrwt>
<rscale>  0 0.81204922E+02</rscale>
<asrwt>0</asrwt>
<pdfrwt beam="1">  1        1 0.65025236E-01 0.81204922E+02</pdfrwt>
<pdfrwt beam="2">  1       -2 0.60006191E-03 0.81204922E+02</pdfrwt>
<totfact> 0.18422990E+05</totfact>
</mgrwt>
</event>
<event>
 8    1  0.1319619E-024  0.8053699E+02  0.7818608E-02  0.1327534E+00
         -2   -1    0    0    0  501 -0.00000000000E+00  0.00000000000E+00  0.53158553671E+02  0.53158553732E+02  0.25500000000E-02 0.  1.
          1   -1    0    0  501    0  0.00000000000E+00 -0.00000000000E+00 -0.30504058317E+02  0.30504058734E+02  0.50400000000E-02 0. -1.
        -24    2    1    2    0    0  0.00000000000E+00  0.00000000000E+00  0.22654495354E+02  0.83662612466E+02  0.80536988800E+02 0.  0.
         66    2    3    3    0    0  0.24948593662E+02 -0.27369735959E+02  0.27693799051E+02  0.46286945008E+02  0.20000000228E+01 0.  0.
         13    1    3    3    0    0 -0.24948593662E+02  0.27369735959E+02 -0.50393036974E+01  0.37375667458E+02  0.10566000000E+00 0. -1.
         13    1    4    4    0    0  0.87124119523E+01 -0.10777414161E+02  0.10580225486E+02  0.17435914470E+02  0.10566000000E+00 0. -1.
        -13    1    4    4    0    0  0.48384390680E+01 -0.51836665866E+01  0.56006882052E+01  0.90365792368E+01  0.10566000000E+00 0.  1.
         14    1    4    4    0    0  0.11397742642E+02 -0.11408655211E+02  0.11512885360E+02  0.19814451301E+02  0.00000000000E+00 0. -1.
<mgrwt>
<rscale>  0 0.80536989E+02</rscale>
<asrwt>0</asrwt>
<pdfrwt beam="1">  1        1 0.46929321E-02 0.80536989E+02</pdfrwt>
<pdfrwt beam="2">  1       -2 0.81782390E-02 0.80536989E+02</pdfrwt>
<totfact> 0.11899547E+05</totfact>
</mgrwt>
</event>
<event>
 8    1  0.1319619E-024  0.7975574E+02  0.7818608E-02  0.1329746E+00
         -2   -1    0    0    0  501 -0.00000000000E+00  0.00000000000E+00  0.10687904677E+03  0.10687904680E+03  0.25500000000E-02 0.  1.
          1   -1    0    0  501    0  0.00000000000E+00 -0.00000000000E+00 -0.14878918770E+02  0.14878919624E+02  0.50400000000E-02 0. -1.
        -24    2    1    2    0    0  0.00000000000E+00  0.00000000000E+00  0.92000128003E+02  0.12175796643E+03  0.79755744846E+02 0.  0.
         66    2    3    3    0    0 -0.73312033152E+01  0.13469673458E+02  0.10218464469E+03  0.10334834423E+03  0.19999998206E+01 0.  0.
         13    1    3    3    0    0  0.73312033152E+01 -0.13469673458E+02 -0.10184516691E+02  0.18409622195E+02  0.10566000000E+00 0. -1.
         13    1    4    4    0    0 -0.18418929211E+01  0.37289985429E+01  0.28626785709E+02  0.28927530550E+02  0.10566000000E+00 0. -1.
        -13    1    4    4    0    0 -0.16111331651E+01  0.25677048261E+01  0.15599204477E+02  0.15891356220E+02  0.10566000000E+00 0.  1.
        -14    1    4    4    0    0 -0.38781772289E+01  0.71729700888E+01  0.57958654508E+02  0.58529457462E+02  0.00000000000E+00 0.  1.
<mgrwt>
<rscale>  0 0.79755745E+02</rscale>
<asrwt>0</asrwt>
<pdfrwt beam="1">  1        1 0.22890645E-02 0.79755745E+02</pdfrwt>
<pdfrwt beam="2">  1       -2 0.16442930E-01 0.79755745E+02</pdfrwt>
<totfact> 0.10517228E+05</totfact>
</mgrwt>
</event>
<event>
 8    1  0.1319619E-024  0.8163199E+02  0.7818608E-02  0.1324483E+00
         -2   -1    0    0    0  501 -0.00000000000E+00  0.00000000000E+00  0.16056629738E+03  0.16056629741E+03  0.25500000000E-02 0.  1.
          1   -1    0    0  501    0  0.00000000000E+00 -0.00000000000E+00 -0.10375436645E+02  0.10375437869E+02  0.50400000000E-02 0. -1.
        -24    2    1    2    0    0  0.00000000000E+00  0.00000000000E+00  0.15019086074E+03  0.17094173527E+03  0.81631992556E+02 0.  0.
         66    2    3    3    0    0 -0.20221634042E+02  0.28511065843E+02  0.11917255991E+03  0.12420907529E+03  0.19999974302E+01 0.  0.
         13    1    3    3    0    0  0.20221634042E+02 -0.28511065843E+02  0.31018300829E+02  0.46732659984E+02  0.10566000000E+00 0. -1.
         13    1    4    4    0    0 -0.13914483870E+02  0.19830924616E+02  0.83542608108E+02  0.86984234008E+02  0.10566000000E+00 0. -1.
        -13    1    4    4    0    0 -0.46781269868E+01  0.59042055838E+01  0.26137840589E+02  0.27201882111E+02  0.10566000000E+00 0.  1.
         14    1    4    4    0    0 -0.16290231852E+01  0.27759356431E+01  0.94921112147E+01  0.10022959171E+02  0.00000000000E+00 0. -1.
<mgrwt>
<rscale>  0 0.81631993E+02</rscale>
<asrwt>0</asrwt>
<pdfrwt beam="1">  1        1 0.15962211E-02 0.81631993E+02</pdfrwt>
<pdfrwt beam="2">  1       -2 0.24702508E-01 0.81631993E+02</pdfrwt>
<totfact> 0.87685075E+04</totfact>
</mgrwt>
</event>
<event>
 8    1  0.1319619E-024  0.8441585E+02  0.7818608E-02  0.1316967E+00
         -2   -1    0    0    0  501 -0.00000000000E+00  0.00000000000E+00  0.14924949750E+02  0.14924949968E+02  0.25500000000E-02 0.  1.
          1   -1    0    0  501    0  0.00000000000E+00 -0.00000000000E+00 -0.11936449096E+03  0.11936449107E+03  0.50400000000E-02 0. -1.
        -24    2    1    2    0    0  0.00000000000E+00  0.88817841970E-15 -0.10443954121E+03  0.13428944103E+03  0.84415852806E+02 0.  0.
         66    2    3    3    0    0 -0.40269477546E+02  0.35428562504E+01 -0.71426086378E+02  0.82096701920E+02  0.19999996391E+01 0.  0.
         13    1    3    3    0    0  0.40269477546E+02 -0.35428562504E+01 -0.33013454831E+02  0.52192739114E+02  0.10566000000E+00 0. -1.
         13    1    4    4    0    0 -0.18297033603E+02  0.22219574922E+01 -0.31521597442E+02  0.36514939451E+02  0.10566000000E+00 0. -1.
        -13    1    4    4    0    0 -0.19433445070E+02  0.14506406732E+01 -0.35262778731E+02  0.40289426324E+02  0.10566000000E+00 0.  1.
        -14    1    4    4    0    0 -0.25389988728E+01 -0.12974191504E+00 -0.46417102057E+01  0.52923361453E+01  0.00000000000E+00 0.  1.
<mgrwt>
<rscale>  0 0.84415853E+02</rscale>
<asrwt>0</asrwt>
<pdfrwt beam="1">  1        1 0.18363767E-01 0.84415853E+02</pdfrwt>
<pdfrwt beam="2">  1       -2 0.22961462E-02 0.84415853E+02</pdfrwt>
<totfact> 0.13107970E+05</totfact>
</mgrwt>
</event>
<event>
 8    1  0.1319619E-024  0.7849066E+02  0.7818608E-02  0.1333390E+00
          1   -1    0    0  501    0  0.00000000000E+00  0.00000000000E+00  0.41156796598E+01  0.41156827458E+01  0.50400000000E-02 0. -1.
         -2   -1    0    0    0  501 -0.00000000000E+00 -0.00000000000E+00 -0.37422628838E+03  0.37422628839E+03  0.25500000000E-02 0.  1.
        -24    2    1    2    0    0  0.00000000000E+00  0.17763568394E-14 -0.37011060872E+03  0.37834197113E+03  0.78490664634E+02 0.  0.
         66    2    3    3    0    0 -0.10838878474E+02  0.11879980081E+02 -0.35759984828E+03  0.35796685140E+03  0.19999999282E+01 0.  0.
         13    1    3    3    0    0  0.10838878474E+02 -0.11879980081E+02 -0.12510760442E+02  0.20375119734E+02  0.10566000000E+00 0. -1.
         13    1    4    4    0    0 -0.11645058650E+01  0.87624534660E+00 -0.39212150801E+02  0.39239365621E+02  0.10566000000E+00 0. -1.
        -13    1    4    4    0    0 -0.96370049054E+01  0.10829026972E+02 -0.31106517487E+03  0.31140278398E+03  0.10566000000E+00 0.  1.
        -14    1    4    4    0    0 -0.37367703835E-01  0.17470776202E+00 -0.73225226002E+01  0.73247017945E+01  0.00000000000E+00 0.  1.
<mgrwt>
<rscale>  0 0.78490665E+02</rscale>
<asrwt>0</asrwt>
<pdfrwt beam="1">  1        1 0.63318202E-03 0.78490665E+02</pdfrwt>
<pdfrwt beam="2">  1       -2 0.57573248E-01 0.78490665E+02</pdfrwt>
<totfact> 0.64810565E+04</totfact>
</mgrwt>
</event>
<event>
 8    1  0.1319619E-024  0.7926502E+02  0.7818608E-02  0.1331150E+00
          1   -1    0    0  501    0  0.00000000000E+00  0.00000000000E+00  0.20819765061E+03  0.20819765067E+03  0.50400000000E-02 0. -1.
         -2   -1    0    0    0  501 -0.00000000000E+00 -0.00000000000E+00 -0.75444456977E+01  0.75444461287E+01  0.25500000000E-02 0.  1.
        -24    2    1    2    0    0  0.00000000000E+00  0.17763568394E-14  0.20065320491E+03  0.21574209680E+03  0.79265021856E+02 0.  0.
         66    2    3    3    0    0 -0.34971152144E+02  0.15408150950E+02  0.72060433639E+02  0.81591045421E+02  0.19999996923E+01 0.  0.
         13    1    3    3    0    0  0.34971152144E+02 -0.15408150950E+02  0.12859277127E+03  0.13415105138E+03  0.10566000000E+00 0. -1.
         13    1    4    4    0    0 -0.53003171277E+00  0.16024332114E+00  0.75565971960E+00  0.94276040750E+00  0.10566000000E+00 0. -1.
        -13    1    4    4    0    0 -0.25928446277E+02  0.11672316805E+02  0.54689696420E+02  0.61640095429E+02  0.10566000000E+00 0.  1.
        -14    1    4    4    0    0 -0.85126741543E+01  0.35755908238E+01  0.16615077499E+02  0.19008189585E+02  0.00000000000E+00 0.  1.
<mgrwt>
<rscale>  0 0.79265022E+02</rscale>
<asrwt>0</asrwt>
<pdfrwt beam="1">  1        1 0.32030405E-01 0.79265022E+02</pdfrwt>
<pdfrwt beam="2">  1       -2 0.11606841E-02 0.79265022E+02</pdfrwt>
<totfact> 0.17220968E+05</totfact>
</mgrwt>
</event>
<event>
 8    1  0.1319619E-024  0.7063191E+02  0.7818608E-02  0.1357957E+00
          1   -1    0    0  501    0  0.00000000000E+00  0.00000000000E+00  0.26881824339E+03  0.26881824344E+03  0.50400000000E-02 0. -1.
         -2   -1    0    0    0  501 -0.00000000000E+00 -0.00000000000E+00 -0.46396273158E+01  0.46396280166E+01  0.25500000000E-02 0.  1.
        -24    2    1    2    0    0  0.00000000000E+00  0.00000000000E+00  0.26417861607E+03  0.27345787145E+03  0.70631906878E+02 0.  0.
         66    2    3    3    0    0  0.20369653092E+02 -0.28723991484E+02  0.14104159333E+03  0.14538473614E+03  0.20000001462E+01 0.  0.
         13    1    3    3    0    0 -0.20369653092E+02  0.28723991484E+02  0.12313702275E+03  0.12807313531E+03  0.10566000000E+00 0. -1.
         13    1    4    4    0    0  0.34953611007E+01 -0.60008145655E+01  0.29532666448E+02  0.30338372999E+02  0.10566000000E+00 0. -1.
        -13    1    4    4    0    0  0.86848533177E+01 -0.12130113657E+02  0.58315486686E+02  0.60193633268E+02  0.10566000000E+00 0.  1.
         14    1    4    4    0    0  0.81894386737E+01 -0.10593063262E+02  0.53193440193E+02  0.54852729874E+02  0.00000000000E+00 0. -1.
<mgrwt>
<rscale>  0 0.70631907E+02</rscale>
<asrwt>0</asrwt>
<pdfrwt beam="1">  1        1 0.41356659E-01 0.70631907E+02</pdfrwt>
<pdfrwt beam="2">  1       -2 0.71378877E-03 0.70631907E+02</pdfrwt>
<totfact> 0.24483651E+05</totfact>
</mgrwt>
</event>
<event>
 8    1  0.1319619E-024  0.7985434E+02  0.7818608E-02  0.1329465E+00
         -2   -1    0    0    0  501 -0.00000000000E+00  0.00000000000E+00  0.30884931380E+02  0.30884931486E+02  0.25500000000E-02 0.  1.
          1   -1    0    0  501    0  0.00000000000E+00 -0.00000000000E+00 -0.51616725988E+02  0.51616726234E+02  0.50400000000E-02 0. -1.
        -24    2    1    2    0    0 -0.52041704279E-16  0.00000000000E+00 -0.20731794607E+02  0.82501657719E+02  0.79854343769E+02 0.  0.
         66    2    3    3    0    0  0.11057265212E-01 -0.16768187517E+02  0.27035730094E+02  0.31876369424E+02  0.19999977655E+01 0.  0.
         13    1    3    3    0    0 -0.11057265212E-01  0.16768187517E+02 -0.47767524702E+02  0.50625288296E+02  0.10566000000E+00 0. -1.
         13    1    4    4    0    0 -0.62259281542E+00 -0.67854440804E+01  0.12221762680E+02  0.13993302692E+02  0.10566000000E+00 0.  1.
        -13    1    4    4    0    0  0.62430676412E+00 -0.64841076469E+01  0.98745425620E+01  0.11830095763E+02  0.10566000000E+00 0. -1.
        -14    1    4    4    0    0  0.93433165184E-02 -0.34986357894E+01  0.49394248519E+01  0.60529709690E+01  0.00000000000E+00 0.  1.
<mgrwt>
<rscale>  0 0.79854344E+02</rscale>
<asrwt>0</asrwt>
<pdfrwt beam="1">  1        1 0.79410348E-02 0.79854344E+02</pdfrwt>
<pdfrwt beam="2">  1       -2 0.47515279E-02 0.79854344E+02</pdfrwt>
<totfact> 0.13290131E+05</totfact>
</mgrwt>
</event>
<event>
 8    1  0.1319619E-024  0.7861588E+02  0.7818608E-02  0.1333026E+00
          1   -1    0    0  501    0  0.00000000000E+00  0.00000000000E+00  0.46779260827E+02  0.46779261098E+02  0.50400000000E-02 0. -1.
         -2   -1    0    0    0  501 -0.00000000000E+00 -0.00000000000E+00 -0.33029897061E+02  0.33029897159E+02  0.25500000000E-02 0.  1.
        -24    2    1    2    0    0  0.55511151231E-16  0.35527136788E-14  0.13749363766E+02  0.79809158257E+02  0.78615880951E+02 0.  0.
         66    2    3    3    0    0  0.42102759046E+00  0.26210470158E+02 -0.22821460971E+02  0.34813576295E+02  0.20000008690E+01 0.  0.
         13    1    3    3    0    0 -0.42102759046E+00 -0.26210470158E+02  0.36570824737E+02  0.44995581962E+02  0.10566000000E+00 0. -1.
         13    1    4    4    0    0  0.19201719167E+00  0.89538617043E+00 -0.63226596692E+00  0.11178154072E+01  0.10566000000E+00 0. -1.
        -13    1    4    4    0    0  0.16774114636E+00  0.19048079198E+02 -0.15841472264E+02  0.24775408488E+02  0.10566000000E+00 0.  1.
        -14    1    4    4    0    0  0.61269252432E-01  0.62670047902E+01 -0.63477227401E+01  0.89203524003E+01  0.00000000000E+00 0.  1.
<mgrwt>
<rscale>  0 0.78615881E+02</rscale>
<asrwt>0</asrwt>
<pdfrwt beam="1">  1        1 0.71968094E-02 0.78615881E+02</pdfrwt>
<pdfrwt beam="2">  1       -2 0.50815227E-02 0.78615881E+02</pdfrwt>
<totfact> 0.13668702E+05</totfact>
</mgrwt>
</event>
<event>
 8    1  0.1319619E-024  0.8000850E+02  0.7818608E-02  0.1329027E+00
         -2   -1    0    0    0  501 -0.00000000000E+00  0.00000000000E+00  0.64390955763E+01  0.64390960813E+01  0.25500000000E-02 0.  1.
          1   -1    0    0  501    0  0.00000000000E+00 -0.00000000000E+00 -0.24853490418E+03  0.24853490423E+03  0.50400000000E-02 0. -1.
        -24    2    1    2    0    0  0.00000000000E+00  0.00000000000E+00 -0.24209580861E+03  0.25497400031E+03  0.80008501373E+02 0.  0.
         66    2    3    3    0    0  0.14095181253E+02  0.37386948268E+02 -0.12548948821E+03  0.13171207125E+03  0.20000068875E+01 0.  0.
         13    1    3    3    0    0 -0.14095181253E+02 -0.37386948268E+02 -0.11660632040E+03  0.12326192906E+03  0.10566000000E+00 0. -1.
         13    1    4    4    0    0  0.24826739411E+01  0.57914939982E+01 -0.19578149369E+02  0.20567454130E+02  0.10566000000E+00 0.  1.
        -13    1    4    4    0    0  0.95579661315E+01  0.23975320872E+02 -0.80832912459E+02  0.84853648290E+02  0.10566000000E+00 0.  1.
        -14    1    4    4    0    0  0.20545411800E+01  0.76201333976E+01 -0.25078426379E+02  0.26290968832E+02  0.00000000000E+00 0.  1.
<mgrwt>
<rscale>  0 0.80008501E+02</rscale>
<asrwt>0</asrwt>
<pdfrwt beam="1">  1        1 0.38236132E-01 0.80008501E+02</pdfrwt>
<pdfrwt beam="2">  1       -2 0.99063032E-03 0.80008501E+02</pdfrwt>
<totfact> 0.17390466E+05</totfact>
</mgrwt>
</event>
<event>
 8    1  0.1611794E-024  0.7639299E+02  0.7818608E-02  0.1339611E+00
          1   -1    0    0  501    0  0.00000000000E+00  0.00000000000E+00  0.18734495510E+03  0.18734495516E+03  0.50400000000E-02 0. -1.
         -2   -1    0    0    0  501 -0.00000000000E+00 -0.00000000000E+00 -0.77876236886E+01  0.77876241061E+01  0.25500000000E-02 0.  1.
        -24    2    1    2    0    0  0.00000000000E+00  0.00000000000E+00  0.17955733141E+03  0.19513257927E+03  0.76392985479E+02 0.  0.
         66    2    3    3    0    0 -0.58214147969E+01 -0.26093000032E+02  0.20250064450E+02  0.33597598568E+02  0.19999996023E+01 0.  0.
         13    1    3    3    0    0  0.58214147969E+01  0.26093000032E+02  0.15930726696E+03  0.16153498070E+03  0.10566000000E+00 0. -1.
         13    1    4    4    0    0 -0.15893933985E+01 -0.51601103308E+01  0.44050691301E+01  0.69691253453E+01  0.10566000000E+00 0. -1.
        -13    1    4    4    0    0 -0.91243286001E+00 -0.40485894220E+01  0.24366819350E+01  0.48137504007E+01  0.10566000000E+00 0.  1.
        -14    1    4    4    0    0 -0.33195885384E+01 -0.16884300279E+02  0.13408313385E+02  0.21814722822E+02  0.00000000000E+00 0.  1.
<mgrwt>
<rscale>  0 0.76392985E+02</rscale>
<asrwt>0</asrwt>
<pdfrwt beam="1">  1        1 0.28822300E-01 0.76392985E+02</pdfrwt>
<pdfrwt beam="2">  1       -2 0.11980960E-02 0.76392985E+02</pdfrwt>
<totfact> 0.18607023E+05</totfact>
</mgrwt>
</event>
<event>
 8    1  0.1319619E-024  0.7809801E+02  0.7818608E-02  0.1334537E+00
         -2   -1    0    0    0  501 -0.00000000000E+00  0.00000000000E+00  0.97876433109E+02  0.97876433143E+02  0.25500000000E-02 0.  1.
          1   -1    0    0  501    0  0.00000000000E+00 -0.00000000000E+00 -0.15579079632E+02  0.15579080447E+02  0.50400000000E-02 0. -1.
        -24    2    1    2    0    0  0.17763568394E-14  0.00000000000E+00  0.82297353477E+02  0.11345551359E+03  0.78098010055E+02 0.  0.
         66    2    3    3    0    0 -0.13405291198E+02 -0.37382676695E+01  0.94138462665E+02  0.95182596250E+02  0.19999996692E+01 0.  0.
         13    1    3    3    0    0  0.13405291198E+02  0.37382676695E+01 -0.11841109188E+02  0.18272917339E+02  0.10566000000E+00 0. -1.
         13    1    4    4    0    0 -0.59198414650E+01 -0.20902538197E+01  0.36511641615E+02  0.37047602101E+02  0.10566000000E+00 0. -1.
        -13    1    4    4    0    0 -0.50699656669E+01 -0.12154865626E+01  0.38689199315E+02  0.39039047979E+02  0.10566000000E+00 0.  1.
         14    1    4    4    0    0 -0.24154840657E+01 -0.43252728716E+00  0.18937621736E+02  0.19095946170E+02  0.00000000000E+00 0. -1.
<mgrwt>
<rscale>  0 0.78098010E+02</rscale>
<asrwt>0</asrwt>
<pdfrwt beam="1">  1        1 0.23967816E-02 0.78098010E+02</pdfrwt>
<pdfrwt beam="2">  1       -2 0.15057913E-01 0.78098010E+02</pdfrwt>
<totfact> 0.11346244E+05</totfact>
</mgrwt>
</event>
<event>
 8    1  0.1319619E-024  0.8478501E+02  0.7818608E-02  0.1315996E+00
         -2   -1    0    0    0  501 -0.00000000000E+00  0.00000000000E+00  0.19036280910E+02  0.19036281081E+02  0.25500000000E-02 0.  1.
          1   -1    0    0  501    0  0.00000000000E+00 -0.00000000000E+00 -0.94405237861E+02  0.94405237996E+02  0.50400000000E-02 0. -1.
        -24    2    1    2    0    0 -0.35527136788E-14  0.35527136788E-14 -0.75368956951E+02  0.11344151908E+03  0.84785013880E+02 0.  0.
         66    2    3    3    0    0  0.17377045386E+02 -0.20592005649E+02  0.60435603524E+01  0.27686043796E+02  0.19999990800E+01 0.  0.
         13    1    3    3    0    0 -0.17377045386E+02  0.20592005649E+02 -0.81412517303E+02  0.85755475281E+02  0.10566000000E+00 0. -1.
         13    1    4    4    0    0  0.83122169751E+01 -0.96262534720E+01  0.25846625276E+01  0.12978803927E+02  0.10566000000E+00 0. -1.
        -13    1    4    4    0    0  0.60302300263E+01 -0.79070502094E+01  0.18953403095E+01  0.10123665152E+02  0.10566000000E+00 0.  1.
         14    1    4    4    0    0  0.30345983851E+01 -0.30587019675E+01  0.15635575153E+01  0.45835747172E+01  0.00000000000E+00 0. -1.
<mgrwt>
<rscale>  0 0.84785014E+02</rscale>
<asrwt>0</asrwt>
<pdfrwt beam="1">  1        1 0.14523882E-01 0.84785014E+02</pdfrwt>
<pdfrwt beam="2">  1       -2 0.29286587E-02 0.84785014E+02</pdfrwt>
<totfact> 0.12431659E+05</totfact>
</mgrwt>
</event>
<event>
 8    1  0.1319619E-024  0.8076125E+02  0.7818608E-02  0.1326905E+00
          1   -1    0    0  501    0  0.00000000000E+00  0.00000000000E+00  0.36041087588E+03  0.36041087591E+03  0.50400000000E-02 0. -1.
         -2   -1    0    0    0  501 -0.00000000000E+00 -0.00000000000E+00 -0.45242660103E+01  0.45242667290E+01  0.25500000000E-02 0.  1.
        -24    2    1    2    0    0  0.00000000000E+00  0.00000000000E+00  0.35588660987E+03  0.36493514264E+03  0.80761248456E+02 0.  0.
         66    2    3    3    0    0  0.39751593434E+02  0.59692333163E+01  0.16190521173E+03  0.16683260628E+03  0.20000011997E+01 0.  0.
         13    1    3    3    0    0 -0.39751593434E+02 -0.59692333163E+01  0.19398139814E+03  0.19810253636E+03  0.10566000000E+00 0. -1.
         13    1    4    4    0    0  0.21582029743E+02  0.32593698098E+01  0.91297472489E+02  0.93870374168E+02  0.10566000000E+00 0. -1.
        -13    1    4    4    0    0  0.19775962993E+01  0.50210286422E+00  0.80696579556E+01  0.83242740203E+01  0.10566000000E+00 0.  1.
         14    1    4    4    0    0  0.16191967392E+02  0.22077606423E+01  0.62538081286E+02  0.64637958090E+02  0.00000000000E+00 0. -1.
<mgrwt>
<rscale>  0 0.80761248E+02</rscale>
<asrwt>0</asrwt>
<pdfrwt beam="1">  1        1 0.55447843E-01 0.80761248E+02</pdfrwt>
<pdfrwt beam="2">  1       -2 0.69604078E-03 0.80761248E+02</pdfrwt>
<totfact> 0.18200595E+05</totfact>
</mgrwt>
</event>
<event>
 8    1  0.1319619E-024  0.7036622E+02  0.7818608E-02  0.1358852E+00
          1   -1    0    0  501    0  0.00000000000E+00  0.00000000000E+00  0.24464492884E+02  0.24464493404E+02  0.50400000000E-02 0. -1.
         -2   -1    0    0    0  501 -0.00000000000E+00 -0.00000000000E+00 -0.50597872178E+02  0.50597872242E+02  0.25500000000E-02 0.  1.
        -24    2    1    2    0    0  0.00000000000E+00 -0.88817841970E-15 -0.26133379293E+02  0.75062365646E+02  0.70366222174E+02 0.  0.
         66    2    3    3    0    0  0.25019148600E+02 -0.73870903370E+01 -0.38215146821E+02  0.46313327907E+02  0.19999987386E+01 0.  0.
         13    1    3    3    0    0 -0.25019148600E+02  0.73870903370E+01  0.12081767527E+02  0.28749037739E+02  0.10566000000E+00 0. -1.
         13    1    4    4    0    0  0.20607333598E+02 -0.59075429936E+01 -0.31772573495E+02  0.38328433998E+02  0.10566000000E+00 0. -1.
        -13    1    4    4    0    0  0.37780636507E+01 -0.12427467728E+01 -0.49857467982E+01  0.63786377591E+01  0.10566000000E+00 0.  1.
         14    1    4    4    0    0  0.63375135072E+00 -0.23680057057E+00 -0.14568265276E+01  0.16062561491E+01  0.00000000000E+00 0. -1.
<mgrwt>
<rscale>  0 0.70366222E+02</rscale>
<asrwt>0</asrwt>
<pdfrwt beam="1">  1        1 0.37637682E-02 0.70366222E+02</pdfrwt>
<pdfrwt beam="2">  1       -2 0.77842880E-02 0.70366222E+02</pdfrwt>
<totfact> 0.16845842E+05</totfact>
</mgrwt>
</event>
<event>
 8    1  0.1319619E-024  0.7914571E+02  0.7818608E-02  0.1331493E+00
         -2   -1    0    0    0  501 -0.00000000000E+00  0.00000000000E+00  0.22216017863E+03  0.22216017864E+03  0.25500000000E-02 0.  1.
          1   -1    0    0  501    0  0.00000000000E+00 -0.00000000000E+00 -0.70490159137E+01  0.70490177155E+01  0.50400000000E-02 0. -1.
        -24    2    1    2    0    0  0.00000000000E+00  0.00000000000E+00  0.21511116272E+03  0.22920919636E+03  0.79145709744E+02 0.  0.
         66    2    3    3    0    0 -0.11517839826E+02  0.37562067922E+02  0.12071607640E+03  0.12696432820E+03  0.19999881004E+01 0.  0.
         13    1    3    3    0    0  0.11517839826E+02 -0.37562067922E+02  0.94395086311E+02  0.10224486816E+03  0.10566000000E+00 0. -1.
         13    1    4    4    0    0 -0.55068840959E+01  0.16758550770E+02  0.55038573483E+02  0.57796457776E+02  0.10566000000E+00 0. -1.
        -13    1    4    4    0    0 -0.49711998567E+01  0.18331031661E+02  0.58462206994E+02  0.61470158292E+02  0.10566000000E+00 0.  1.
         14    1    4    4    0    0 -0.10397558731E+01  0.24724854904E+01  0.72152959272E+01  0.76977121337E+01  0.00000000000E+00 0. -1.
<mgrwt>
<rscale>  0 0.79145710E+02</rscale>
<asrwt>0</asrwt>
<pdfrwt beam="1">  1        1 0.10844641E-02 0.79145710E+02</pdfrwt>
<pdfrwt beam="2">  1       -2 0.34178489E-01 0.79145710E+02</pdfrwt>
<totfact> 0.83676235E+04</totfact>
</mgrwt>
</event>
<event>
 8    1  0.1319619E-024  0.7876285E+02  0.7818608E-02  0.1332599E+00
         -2   -1    0    0    0  501 -0.00000000000E+00  0.00000000000E+00  0.49159302407E+01  0.49159309021E+01  0.25500000000E-02 0.  1.
          1   -1    0    0  501    0  0.00000000000E+00 -0.00000000000E+00 -0.31548381371E+03  0.31548381375E+03  0.50400000000E-02 0. -1.
        -24    2    1    2    0    0  0.00000000000E+00  0.00000000000E+00 -0.31056788347E+03  0.32039974465E+03  0.78762847400E+02 0.  0.
         66    2    3    3    0    0 -0.15749481683E+02  0.32642206777E+02 -0.92979988951E+02  0.99814017912E+02  0.19999974689E+01 0.  0.
         13    1    3    3    0    0  0.15749481683E+02 -0.32642206777E+02 -0.21758789452E+03  0.22058572674E+03  0.10566000000E+00 0. -1.
         13    1    4    4    0    0 -0.70999186567E+01  0.13543727339E+02 -0.39856212512E+02  0.42689228559E+02  0.10566000000E+00 0. -1.
        -13    1    4    4    0    0 -0.54278830433E+01  0.12421601490E+02 -0.35845957035E+02  0.38323646717E+02  0.10566000000E+00 0.  1.
         14    1    4    4    0    0 -0.32216799830E+01  0.66768779472E+01 -0.17277819405E+02  0.18801142636E+02  0.00000000000E+00 0. -1.
<mgrwt>
<rscale>  0 0.78762847E+02</rscale>
<asrwt>0</asrwt>
<pdfrwt beam="1">  1        1 0.48535955E-01 0.78762847E+02</pdfrwt>
<pdfrwt beam="2">  1       -2 0.75629726E-03 0.78762847E+02</pdfrwt>
<totfact> 0.18976646E+05</totfact>
</mgrwt>
</event>
<event>
 8    1  0.1319619E-024  0.7937954E+02  0.7818608E-02  0.1330821E+00
          1   -1    0    0  501    0  0.00000000000E+00  0.00000000000E+00  0.73635550114E+02  0.73635550287E+02  0.50400000000E-02 0. -1.
         -2   -1    0    0    0  501 -0.00000000000E+00 -0.00000000000E+00 -0.21392897827E+02  0.21392897979E+02  0.25500000000E-02 0.  1.
        -24    2    1    2    0    0 -0.35527136788E-14  0.00000000000E+00  0.52242652287E+02  0.95028448266E+02  0.79379539315E+02 0.  0.
         66    2    3    3    0    0 -0.24012402606E+02 -0.24463752272E+02  0.22489208700E+01  0.34411165259E+02  0.19999988141E+01 0.  0.
         13    1    3    3    0    0  0.24012402606E+02  0.24463752272E+02  0.49993731417E+02  0.60617283007E+02  0.10566000000E+00 0. -1.
         13    1    4    4    0    0 -0.16806807695E+01 -0.16949707617E+01  0.44521096893E+00  0.24304301213E+01  0.10566000000E+00 0. -1.
        -13    1    4    4    0    0 -0.10152068699E+02 -0.96203169557E+01  0.13579955932E+01  0.14052413076E+02  0.10566000000E+00 0.  1.
        -14    1    4    4    0    0 -0.12179653138E+02 -0.13148464555E+02  0.44571430780E+00  0.17928322062E+02  0.00000000000E+00 0.  1.
<mgrwt>
<rscale>  0 0.79379539E+02</rscale>
<asrwt>0</asrwt>
<pdfrwt beam="1">  1        1 0.11328546E-01 0.79379539E+02</pdfrwt>
<pdfrwt beam="2">  1       -2 0.32912150E-02 0.79379539E+02</pdfrwt>
<totfact> 0.14283048E+05</totfact>
</mgrwt>
</event>
<event>
 8    1  0.1319619E-024  0.7874065E+02  0.7818608E-02  0.1332664E+00
         -2   -1    0    0    0  501 -0.00000000000E+00  0.00000000000E+00  0.41850333564E+02  0.41850333642E+02  0.25500000000E-02 0.  1.
          1   -1    0    0  501    0  0.00000000000E+00 -0.00000000000E+00 -0.37037279185E+02  0.37037279528E+02  0.50400000000E-02 0. -1.
        -24    2    1    2    0    0  0.00000000000E+00  0.00000000000E+00  0.48130543798E+01  0.78887613170E+02  0.78740650360E+02 0.  0.
         66    2    3    3    0    0  0.40845119879E+01 -0.17661954637E+02  0.37393010876E+02  0.41603667441E+02  0.20000006010E+01 0.  0.
         13    1    3    3    0    0 -0.40845119879E+01  0.17661954637E+02 -0.32579956496E+02  0.37283945729E+02  0.10566000000E+00 0. -1.
         13    1    4    4    0    0  0.17119628328E+01 -0.99897692798E+01  0.19641383068E+02  0.22102520215E+02  0.10566000000E+00 0. -1.
        -13    1    4    4    0    0  0.63018063493E+00 -0.29172466752E+01  0.73015638467E+01  0.78886915543E+01  0.10566000000E+00 0.  1.
         14    1    4    4    0    0  0.17423685202E+01 -0.47549386823E+01  0.10450063961E+02  0.11612455672E+02  0.00000000000E+00 0. -1.
<mgrwt>
<rscale>  0 0.78740650E+02</rscale>
<asrwt>0</asrwt>
<pdfrwt beam="1">  1        1 0.56980430E-02 0.78740650E+02</pdfrwt>
<pdfrwt beam="2">  1       -2 0.64385129E-02 0.78740650E+02</pdfrwt>
<totfact> 0.13113574E+05</totfact>
</mgrwt>
</event>
<event>
 8    1  0.1319619E-024  0.7872061E+02  0.7818608E-02  0.1332722E+00
          1   -1    0    0  501    0  0.00000000000E+00  0.00000000000E+00  0.66568423083E+01  0.66568442162E+01  0.50400000000E-02 0. -1.
         -2   -1    0    0    0  501 -0.00000000000E+00 -0.00000000000E+00 -0.23272796797E+03  0.23272796798E+03  0.25500000000E-02 0.  1.
        -24    2    1    2    0    0  0.00000000000E+00  0.00000000000E+00 -0.22607112566E+03  0.23938481220E+03  0.78720610098E+02 0.  0.
         66    2    3    3    0    0 -0.32361738814E+02 -0.22323280287E+02 -0.10924063835E+03  0.11611687269E+03  0.20000185219E+01 0.  0.
         13    1    3    3    0    0  0.32361738814E+02  0.22323280287E+02 -0.11683048732E+03  0.12326793952E+03  0.10566000000E+00 0. -1.
         13    1    4    4    0    0 -0.20893354940E+01 -0.13704936636E+01 -0.82917014208E+01  0.86606611858E+01  0.10566000000E+00 0. -1.
        -13    1    4    4    0    0 -0.10949878417E+02 -0.71218990765E+01 -0.35457509071E+02  0.37787132695E+02  0.10566000000E+00 0.  1.
        -14    1    4    4    0    0 -0.19322524903E+02 -0.13830887547E+02 -0.65491427854E+02  0.69669078804E+02  0.00000000000E+00 0.  1.
<mgrwt>
<rscale>  0 0.78720610E+02</rscale>
<asrwt>0</asrwt>
<pdfrwt beam="1">  1        1 0.10241299E-02 0.78720610E+02</pdfrwt>
<pdfrwt beam="2">  1       -2 0.35804296E-01 0.78720610E+02</pdfrwt>
<totfact> 0.83109876E+04</totfact>
</mgrwt>
</event>
<event>
 8    1  0.1319619E-024  0.7959739E+02  0.7818608E-02  0.1330198E+00
         -2   -1    0    0    0  501 -0.00000000000E+00  0.00000000000E+00  0.15595676677E+03  0.15595676679E+03  0.25500000000E-02 0.  1.
          1   -1    0    0  501    0  0.00000000000E+00 -0.00000000000E+00 -0.10156251842E+02  0.10156253092E+02  0.50400000000E-02 0. -1.
        -24    2    1    2    0    0  0.00000000000E+00  0.35527136788E-14  0.14580051493E+03  0.16611301988E+03  0.79597394563E+02 0.  0.
         66    2    3    3    0    0  0.17476860246E+02 -0.20694740073E+02  0.13372587109E+03  0.13645629891E+03  0.20000008889E+01 0.  0.
         13    1    3    3    0    0 -0.17476860246E+02  0.20694740073E+02  0.12074643835E+02  0.29656720967E+02  0.10566000000E+00 0. -1.
         13    1    4    4    0    0  0.33427822127E+00 -0.43339176312E+00  0.20412596847E+01  0.21160046043E+01  0.10566000000E+00 0. -1.
        -13    1    4    4    0    0  0.59903673253E+01 -0.63421834781E+01  0.40887513360E+02  0.41807986136E+02  0.10566000000E+00 0.  1.
         14    1    4    4    0    0  0.11152214699E+02 -0.13919164831E+02  0.90797098046E+02  0.92532308173E+02  0.00000000000E+00 0. -1.
<mgrwt>
<rscale>  0 0.79597395E+02</rscale>
<asrwt>0</asrwt>
<pdfrwt beam="1">  1        1 0.15625004E-02 0.79597395E+02</pdfrwt>
<pdfrwt beam="2">  1       -2 0.23993348E-01 0.79597395E+02</pdfrwt>
<totfact> 0.94511403E+04</totfact>
</mgrwt>
</event>
<event>
 8    1  0.1319619E-024  0.8076836E+02  0.7818608E-02  0.1326885E+00
          1   -1    0    0  501    0  0.00000000000E+00  0.00000000000E+00  0.49019257195E+02  0.49019257454E+02  0.50400000000E-02 0. -1.
         -2   -1    0    0    0  501 -0.00000000000E+00 -0.00000000000E+00 -0.33270229732E+02  0.33270229830E+02  0.25500000000E-02 0.  1.
        -24    2    1    2    0    0 -0.35527136788E-14  0.17763568394E-14  0.15749027462E+02  0.82289487284E+02  0.80768359222E+02 0.  0.
         66    2    3    3    0    0  0.17934374191E+02 -0.11488023874E+02 -0.27048386117E+02  0.34485238066E+02  0.19999956943E+01 0.  0.
         13    1    3    3    0    0 -0.17934374191E+02  0.11488023874E+02  0.42797413580E+02  0.47804249218E+02  0.10566000000E+00 0. -1.
         13    1    4    4    0    0  0.74578225313E+01 -0.44503724347E+01 -0.11778274347E+02  0.14634337783E+02  0.10566000000E+00 0. -1.
        -13    1    4    4    0    0  0.93380092825E+01 -0.57578543123E+01 -0.13203909019E+02  0.17166993944E+02  0.10566000000E+00 0.  1.
        -14    1    4    4    0    0  0.11385423775E+01 -0.12797971267E+01 -0.20662027514E+01  0.26839063398E+01  0.00000000000E+00 0.  1.
<mgrwt>
<rscale>  0 0.80768359E+02</rscale>
<asrwt>0</asrwt>
<pdfrwt beam="1">  1        1 0.75414242E-02 0.80768359E+02</pdfrwt>
<pdfrwt beam="2">  1       -2 0.51184969E-02 0.80768359E+02</pdfrwt>
<totfact> 0.12771378E+05</totfact>
</mgrwt>
</event>
<event>
 8    1  0.1319619E-024  0.7722691E+02  0.7818608E-02  0.1337110E+00
          1   -1    0    0  501    0  0.00000000000E+00  0.00000000000E+00  0.20415555222E+02  0.20415555844E+02  0.50400000000E-02 0. -1.
         -2   -1    0    0    0  501 -0.00000000000E+00 -0.00000000000E+00 -0.73032489035E+02  0.73032489080E+02  0.25500000000E-02 0.  1.
        -24    2    1    2    0    0  0.00000000000E+00  0.00000000000E+00 -0.52616933813E+02  0.93448044924E+02  0.77226908369E+02 0.  0.
         66    2    3    3    0    0  0.33564006268E+02 -0.12676596121E+02 -0.43513616293E+02  0.56432910723E+02  0.20000009549E+01 0.  0.
         13    1    3    3    0    0 -0.33564006268E+02  0.12676596121E+02 -0.91033175200E+01  0.37015134201E+02  0.10566000000E+00 0. -1.
         13    1    4    4    0    0  0.15935572099E+02 -0.60426959045E+01 -0.20672044206E+02  0.26791812324E+02  0.10566000000E+00 0. -1.
        -13    1    4    4    0    0  0.54131904319E+01 -0.23618761585E+01 -0.81053192909E+01  0.10029379566E+02  0.10566000000E+00 0.  1.
         14    1    4    4    0    0  0.12215243738E+02 -0.42720240584E+01 -0.14736252795E+02  0.19611718833E+02  0.00000000000E+00 0. -1.
<mgrwt>
<rscale>  0 0.77226908E+02</rscale>
<asrwt>0</asrwt>
<pdfrwt beam="1">  1        1 0.31408547E-02 0.77226908E+02</pdfrwt>
<pdfrwt beam="2">  1       -2 0.11235767E-01 0.77226908E+02</pdfrwt>
<totfact> 0.12461313E+05</totfact>
</mgrwt>
</event>
<event>
 8    1  0.1319619E-024  0.8052570E+02  0.7818608E-02  0.1327566E+00
          1   -1    0    0  501    0  0.00000000000E+00  0.00000000000E+00  0.12645697473E+02  0.12645698477E+02  0.50400000000E-02 0. -1.
         -2   -1    0    0    0  501 -0.00000000000E+00 -0.00000000000E+00 -0.12819354896E+03  0.12819354898E+03  0.25500000000E-02 0.  1.
        -24    2    1    2    0    0  0.00000000000E+00  0.00000000000E+00 -0.11554785149E+03  0.14083924746E+03  0.80525695541E+02 0.  0.
         66    2    3    3    0    0  0.92887408753E+01 -0.27345151634E+02 -0.10681430254E+03  0.11066767034E+03  0.20000015233E+01 0.  0.
         13    1    3    3    0    0 -0.92887408753E+01  0.27345151634E+02 -0.87335489486E+01  0.30171577125E+02  0.10566000000E+00 0. -1.
         13    1    4    4    0    0  0.92723620625E+00 -0.36004078640E+01 -0.15912993549E+02  0.16341885800E+02  0.10566000000E+00 0. -1.
        -13    1    4    4    0    0  0.41440029103E+01 -0.10875157761E+02 -0.42849270608E+02  0.44401722626E+02  0.10566000000E+00 0.  1.
        -14    1    4    4    0    0  0.42175017588E+01 -0.12869586009E+02 -0.48052038380E+02  0.49924061910E+02  0.00000000000E+00 0.  1.
<mgrwt>
<rscale>  0 0.80525696E+02</rscale>
<asrwt>0</asrwt>
<pdfrwt beam="1">  1        1 0.19454921E-02 0.80525696E+02</pdfrwt>
<pdfrwt beam="2">  1       -2 0.19722084E-01 0.80525696E+02</pdfrwt>
<totfact> 0.97587242E+04</totfact>
</mgrwt>
</event>
<event>
 8    1  0.1319619E-024  0.8043113E+02  0.7818608E-02  0.1327832E+00
          1   -1    0    0  501    0  0.00000000000E+00  0.00000000000E+00  0.26280297638E+01  0.26280345966E+01  0.50400000000E-02 0. -1.
         -2   -1    0    0    0  501 -0.00000000000E+00 -0.00000000000E+00 -0.61540019913E+03  0.61540019914E+03  0.25500000000E-02 0.  1.
        -24    2    1    2    0    0  0.00000000000E+00  0.44408920985E-15 -0.61277216937E+03  0.61802823373E+03  0.80431126687E+02 0.  0.
         66    2    3    3    0    0 -0.24193045096E+02  0.25929370357E+01 -0.55237230814E+03  0.55291156034E+03  0.20000011434E+01 0.  0.
         13    1    3    3    0    0  0.24193045096E+02 -0.25929370357E+01 -0.60399861232E+02  0.65116673397E+02  0.10566000000E+00 0. -1.
         13    1    4    4    0    0 -0.30125363508E+00 -0.13100974623E+00 -0.10222521939E+02  0.10228344741E+02  0.10566000000E+00 0. -1.
        -13    1    4    4    0    0 -0.69948404891E+01  0.50669288156E+00 -0.15765154845E+03  0.15780749799E+03  0.10566000000E+00 0.  1.
         14    1    4    4    0    0 -0.16896950971E+02  0.22172539004E+01 -0.38449823775E+03  0.38487571761E+03  0.00000000000E+00 0. -1.
<mgrwt>
<rscale>  0 0.80431127E+02</rscale>
<asrwt>0</asrwt>
<pdfrwt beam="1">  1        1 0.40431313E-03 0.80431127E+02</pdfrwt>
<pdfrwt beam="2">  1       -2 0.94676839E-01 0.80431127E+02</pdfrwt>
<totfact> 0.41941685E+04</totfact>
</mgrwt>
</event>
<event>
 8    1  0.1319619E-024  0.7953410E+02  0.7818608E-02  0.1330379E+00
          1   -1    0    0  501    0  0.00000000000E+00  0.00000000000E+00  0.24005440236E+02  0.24005440765E+02  0.50400000000E-02 0. -1.
         -2   -1    0    0    0  501 -0.00000000000E+00 -0.00000000000E+00 -0.65877496032E+02  0.65877496082E+02  0.25500000000E-02 0.  1.
        -24    2    1    2    0    0  0.00000000000E+00  0.00000000000E+00 -0.41872055796E+02  0.89882936847E+02  0.79534101363E+02 0.  0.
         66    2    3    3    0    0  0.38216878460E+02 -0.62020763156E+01 -0.31083675680E+02  0.49690949344E+02  0.20000007645E+01 0.  0.
         13    1    3    3    0    0 -0.38216878460E+02  0.62020763156E+01 -0.10788380116E+02  0.40191987503E+02  0.10566000000E+00 0. -1.
         13    1    4    4    0    0  0.96348892341E+01 -0.12092511151E+01 -0.86382121859E+01  0.12997047842E+02  0.10566000000E+00 0. -1.
        -13    1    4    4    0    0  0.14645619001E+02 -0.29770644101E+01 -0.11375456768E+02  0.18782152409E+02  0.10566000000E+00 0.  1.
        -14    1    4    4    0    0  0.13936370226E+02 -0.20157607904E+01 -0.11070006727E+02  0.17911749093E+02  0.00000000000E+00 0.  1.
<mgrwt>
<rscale>  0 0.79534101E+02</rscale>
<asrwt>0</asrwt>
<pdfrwt beam="1">  1        1 0.36931447E-02 0.79534101E+02</pdfrwt>
<pdfrwt beam="2">  1       -2 0.10134999E-01 0.79534101E+02</pdfrwt>
<totfact> 0.11803478E+05</totfact>
</mgrwt>
</event>
<event>
 8    1  0.1319619E-024  0.7980825E+02  0.7818608E-02  0.1329596E+00
          1   -1    0    0  501    0  0.00000000000E+00  0.00000000000E+00  0.84173641858E+01  0.84173656947E+01  0.50400000000E-02 0. -1.
         -2   -1    0    0    0  501 -0.00000000000E+00 -0.00000000000E+00 -0.18917313552E+03  0.18917313554E+03  0.25500000000E-02 0.  1.
        -24    2    1    2    0    0  0.00000000000E+00 -0.88817841970E-15 -0.18075577133E+03  0.19759050123E+03  0.79808253373E+02 0.  0.
         66    2    3    3    0    0 -0.18715886544E+02 -0.56402938766E+01 -0.17649309577E+03  0.17758353017E+03  0.20000023287E+01 0.  0.
         13    1    3    3    0    0  0.18715886544E+02  0.56402938766E+01 -0.42626755674E+01  0.20006971064E+02  0.10566000000E+00 0. -1.
         13    1    4    4    0    0 -0.18655598733E+01 -0.10078845575E+01 -0.20472213915E+02  0.20582003098E+02  0.10566000000E+00 0. -1.
        -13    1    4    4    0    0 -0.15105230618E+02 -0.38369268924E+01 -0.13662665179E+03  0.13751270176E+03  0.10566000000E+00 0.  1.
        -14    1    4    4    0    0 -0.17450960523E+01 -0.79548242673E+00 -0.19394230058E+02  0.19488825313E+02  0.00000000000E+00 0.  1.
<mgrwt>
<rscale>  0 0.79808253E+02</rscale>
<asrwt>0</asrwt>
<pdfrwt beam="1">  1        1 0.12949794E-02 0.79808253E+02</pdfrwt>
<pdfrwt beam="2">  1       -2 0.29103556E-01 0.79808253E+02</pdfrwt>
<totfact> 0.87519344E+04</totfact>
</mgrwt>
</event>
<event>
 8    1  0.1319619E-024  0.7980280E+02  0.7818608E-02  0.1329612E+00
          1   -1    0    0  501    0  0.00000000000E+00  0.00000000000E+00  0.36850404198E+02  0.36850404542E+02  0.50400000000E-02 0. -1.
         -2   -1    0    0    0  501 -0.00000000000E+00 -0.00000000000E+00 -0.43204997241E+02  0.43204997317E+02  0.25500000000E-02 0.  1.
        -24    2    1    2    0    0  0.00000000000E+00  0.00000000000E+00 -0.63545930439E+01  0.80055401859E+02  0.79802797658E+02 0.  0.
         66    2    3    3    0    0 -0.38220555760E+02  0.94286729364E+01  0.31973986768E+01  0.39546606940E+02  0.20000015551E+01 0.  0.
         13    1    3    3    0    0  0.38220555760E+02 -0.94286729364E+01 -0.95519917207E+01  0.40508794919E+02  0.10566000000E+00 0. -1.
         13    1    4    4    0    0 -0.14545411520E+02  0.34043324561E+01  0.20783388799E+01  0.15082742864E+02  0.10566000000E+00 0. -1.
        -13    1    4    4    0    0 -0.19790941883E+02  0.48547733782E+01  0.10942776956E+01  0.20407322531E+02  0.10566000000E+00 0.  1.
        -14    1    4    4    0    0 -0.38842023569E+01  0.11695671021E+01  0.24782101303E-01  0.40565415453E+01  0.00000000000E+00 0.  1.
<mgrwt>
<rscale>  0 0.79802798E+02</rscale>
<asrwt>0</asrwt>
<pdfrwt beam="1">  1        1 0.56692930E-02 0.79802798E+02</pdfrwt>
<pdfrwt beam="2">  1       -2 0.66469226E-02 0.79802798E+02</pdfrwt>
<totfact> 0.12615663E+05</totfact>
</mgrwt>
</event>
<event>
 8    1  0.1319619E-024  0.8103913E+02  0.7818608E-02  0.1326128E+00
          1   -1    0    0  501    0  0.00000000000E+00  0.00000000000E+00  0.44244104891E+01  0.44244133597E+01  0.50400000000E-02 0. -1.
         -2   -1    0    0    0  501 -0.00000000000E+00 -0.00000000000E+00 -0.37108552964E+03  0.37108552965E+03  0.25500000000E-02 0.  1.
        -24    2    1    2    0    0  0.00000000000E+00  0.00000000000E+00 -0.36666111915E+03  0.37550994301E+03  0.81039132530E+02 0.  0.
         66    2    3    3    0    0  0.35865181754E+02  0.32345332288E+01 -0.26926609286E+03  0.27167076073E+03  0.20000000585E+01 0.  0.
         13    1    3    3    0    0 -0.35865181754E+02 -0.32345332288E+01 -0.97395026285E+02  0.10383918228E+03  0.10566000000E+00 0. -1.
         13    1    4    4    0    0  0.62926705087E+01  0.88149999447E+00 -0.46024856713E+02  0.46461525415E+02  0.10566000000E+00 0. -1.
        -13    1    4    4    0    0  0.27156382650E+02  0.17832008734E+01 -0.20287702601E+03  0.20469427880E+03  0.10566000000E+00 0.  1.
        -14    1    4    4    0    0  0.24161285947E+01  0.56983236088E+00 -0.20364210138E+02  0.20514956516E+02  0.00000000000E+00 0.  1.
<mgrwt>
<rscale>  0 0.81039133E+02</rscale>
<asrwt>0</asrwt>
<pdfrwt beam="1">  1        1 0.68067905E-03 0.81039133E+02</pdfrwt>
<pdfrwt beam="2">  1       -2 0.57090057E-01 0.81039133E+02</pdfrwt>
<totfact> 0.59993963E+04</totfact>
</mgrwt>
</event>
<event>
 8    1  0.1319619E-024  0.8106654E+02  0.7818608E-02  0.1326052E+00
          1   -1    0    0  501    0  0.00000000000E+00  0.00000000000E+00  0.36287792829E+01  0.36287827829E+01  0.50400000000E-02 0. -1.
         -2   -1    0    0    0  501 -0.00000000000E+00 -0.00000000000E+00 -0.45275426333E+03  0.45275426333E+03  0.25500000000E-02 0.  1.
        -24    2    1    2    0    0  0.00000000000E+00  0.00000000000E+00 -0.44912548404E+03  0.45638304612E+03  0.81066542822E+02 0.  0.
         66    2    3    3    0    0 -0.95559839422E+01  0.11104801463E+02 -0.43731431688E+03  0.43756421835E+03  0.19999974097E+01 0.  0.
         13    1    3    3    0    0  0.95559839422E+01 -0.11104801463E+02 -0.11811167166E+02  0.18818827767E+02  0.10566000000E+00 0. -1.
         13    1    4    4    0    0 -0.55388457758E+01  0.57644276889E+01 -0.24518274924E+03  0.24531306351E+03  0.10566000000E+00 0. -1.
        -13    1    4    4    0    0 -0.16235465587E+01  0.17330225307E+01 -0.82234254697E+02  0.82268603247E+02  0.10566000000E+00 0.  1.
         14    1    4    4    0    0 -0.23935916077E+01  0.36073512437E+01 -0.10989731294E+03  0.10998255159E+03  0.00000000000E+00 0. -1.
<mgrwt>
<rscale>  0 0.81066543E+02</rscale>
<asrwt>0</asrwt>
<pdfrwt beam="1">  1        1 0.55827437E-03 0.81066543E+02</pdfrwt>
<pdfrwt beam="2">  1       -2 0.69654457E-01 0.81066543E+02</pdfrwt>
<totfact> 0.52419908E+04</totfact>
</mgrwt>
</event>
<event>
 8    1  0.1319619E-024  0.7887438E+02  0.7818608E-02  0.1332276E+00
         -2   -1    0    0    0  501 -0.00000000000E+00  0.00000000000E+00  0.54406727900E+01  0.54406733876E+01  0.25500000000E-02 0.  1.
          1   -1    0    0  501    0  0.00000000000E+00 -0.00000000000E+00 -0.28586387111E+03  0.28586387115E+03  0.50400000000E-02 0. -1.
        -24    2    1    2    0    0  0.17763568394E-14 -0.71054273576E-14 -0.28042319832E+03  0.29130454454E+03  0.78874378063E+02 0.  0.
         66    2    3    3    0    0  0.80141898194E+01 -0.38199205029E+02 -0.12011297360E+03  0.12631125433E+03  0.20000096192E+01 0.  0.
         13    1    3    3    0    0 -0.80141898194E+01  0.38199205029E+02 -0.16031022471E+03  0.16499329021E+03  0.10566000000E+00 0. -1.
         13    1    4    4    0    0  0.11639098729E+01 -0.84714263503E+01 -0.27447889779E+02  0.28749218563E+02  0.10566000000E+00 0. -1.
        -13    1    4    4    0    0  0.15520284111E+01 -0.84135381931E+01 -0.25480214959E+02  0.26878410212E+02  0.10566000000E+00 0.  1.
        -14    1    4    4    0    0  0.52982515353E+01 -0.21314240486E+02 -0.67184868865E+02  0.70683625552E+02  0.00000000000E+00 0.  1.
<mgrwt>
<rscale>  0 0.78874378E+02</rscale>
<asrwt>0</asrwt>
<pdfrwt beam="1">  1        1 0.43979046E-01 0.78874378E+02</pdfrwt>
<pdfrwt beam="2">  1       -2 0.83702685E-03 0.78874378E+02</pdfrwt>
<totfact> 0.18555928E+05</totfact>
</mgrwt>
</event>
<event>
 8    1  0.1319619E-024  0.7987066E+02  0.7818608E-02  0.1329419E+00
         -2   -1    0    0    0  501 -0.00000000000E+00  0.00000000000E+00  0.84651536396E+01  0.84651540237E+01  0.25500000000E-02 0.  1.
          1   -1    0    0  501    0  0.00000000000E+00 -0.00000000000E+00 -0.18839949595E+03  0.18839949602E+03  0.50400000000E-02 0. -1.
        -24    2    1    2    0    0  0.00000000000E+00  0.00000000000E+00 -0.17993434231E+03  0.19686465004E+03  0.79870663533E+02 0.  0.
         66    2    3    3    0    0  0.23519427847E+02  0.16838885640E+02 -0.22247704470E+02  0.36546845437E+02  0.20000003424E+01 0.  0.
         13    1    3    3    0    0 -0.23519427847E+02 -0.16838885640E+02 -0.15768663784E+03  0.16031780461E+03  0.10566000000E+00 0. -1.
         13    1    4    4    0    0  0.96333634232E+01  0.69984877701E+01 -0.84631444504E+01  0.14608781603E+02  0.10566000000E+00 0. -1.
        -13    1    4    4    0    0  0.87503898101E+01  0.65339353268E+01 -0.81369052121E+01  0.13619178505E+02  0.10566000000E+00 0.  1.
        -14    1    4    4    0    0  0.51356746132E+01  0.33064625428E+01 -0.56476548080E+01  0.83188853286E+01  0.00000000000E+00 0.  1.
<mgrwt>
<rscale>  0 0.79870664E+02</rscale>
<asrwt>0</asrwt>
<pdfrwt beam="1">  1        1 0.28984535E-01 0.79870664E+02</pdfrwt>
<pdfrwt beam="2">  1       -2 0.13023315E-02 0.79870664E+02</pdfrwt>
<totfact> 0.16553309E+05</totfact>
</mgrwt>
</event>
<event>
 8    1  0.2035568E-024  0.8049841E+02  0.7818608E-02  0.1327643E+00
          1   -1    0    0  501    0  0.00000000000E+00  0.00000000000E+00  0.58925152293E+02  0.58925152508E+02  0.50400000000E-02 0. -1.
         -2   -1    0    0    0  501 -0.00000000000E+00 -0.00000000000E+00 -0.27492480817E+02  0.27492480935E+02  0.25500000000E-02 0.  1.
        -24    2    1    2    0    0 -0.17763568394E-14  0.00000000000E+00  0.31432671476E+02  0.86417633443E+02  0.80498413238E+02 0.  0.
         66    2    3    3    0    0 -0.14390622037E+02 -0.48494060261E+01 -0.24260530966E+02  0.28691116974E+02  0.20000222538E+01 0.  0.
         13    1    3    3    0    0  0.14390622037E+02  0.48494060261E+01  0.55693202442E+02  0.57726516470E+02  0.10566000000E+00 0. -1.
         13    1    4    4    0    0 -0.10163884986E+01 -0.13965792887E+00 -0.10591835326E+01  0.14783719791E+01  0.10566000000E+00 0. -1.
        -13    1    4    4    0    0 -0.41899129370E+01 -0.17619965634E+01 -0.66460767394E+01  0.80524221431E+01  0.10566000000E+00 0.  1.
        -14    1    4    4    0    0 -0.91843206015E+01 -0.29477515339E+01 -0.16555270694E+02  0.19160322852E+02  0.00000000000E+00 0.  1.
<mgrwt>
<rscale>  0 0.80498413E+02</rscale>
<asrwt>0</asrwt>
<pdfrwt beam="1">  1        1 0.90654080E-02 0.80498413E+02</pdfrwt>
<pdfrwt beam="2">  1       -2 0.42296125E-02 0.80498413E+02</pdfrwt>
<totfact> 0.13270766E+05</totfact>
</mgrwt>
</event>
<event>
 8    1  0.1742279E-024  0.7967485E+02  0.7818608E-02  0.1329977E+00
         -2   -1    0    0    0  501 -0.00000000000E+00  0.00000000000E+00  0.31079514400E+02  0.31079514505E+02  0.25500000000E-02 0.  1.
          1   -1    0    0  501    0  0.00000000000E+00 -0.00000000000E+00 -0.51063231014E+02  0.51063231263E+02  0.50400000000E-02 0. -1.
        -24    2    1    2    0    0 -0.17763568394E-14 -0.35527136788E-14 -0.19983716614E+02  0.82142745768E+02  0.79674850188E+02 0.  0.
         66    2    3    3    0    0 -0.11494245275E+02 -0.23905744047E+02  0.20610059542E+02  0.33650807267E+02  0.20000006363E+01 0.  0.
         13    1    3    3    0    0  0.11494245275E+02  0.23905744047E+02 -0.40593776156E+02  0.48491938500E+02  0.10566000000E+00 0. -1.
         13    1    4    4    0    0 -0.51059499830E+00 -0.65826332958E+00  0.49900281778E+00  0.97682429900E+00  0.10566000000E+00 0. -1.
        -13    1    4    4    0    0 -0.54638225199E+01 -0.11147524025E+02  0.88370171859E+01  0.15238920079E+02  0.10566000000E+00 0.  1.
        -14    1    4    4    0    0 -0.55198277569E+01 -0.12099956693E+02  0.11274039538E+02  0.17435062889E+02  0.00000000000E+00 0.  1.
<mgrwt>
<rscale>  0 0.79674850E+02</rscale>
<asrwt>0</asrwt>
<pdfrwt beam="1">  1        1 0.78558817E-02 0.79674850E+02</pdfrwt>
<pdfrwt beam="2">  1       -2 0.47814638E-02 0.79674850E+02</pdfrwt>
<totfact> 0.13350869E+05</totfact>
</mgrwt>
</event>
<event>
 8    1  0.1319619E-024  0.7941100E+02  0.7818608E-02  0.1330731E+00
         -2   -1    0    0    0  501 -0.00000000000E+00  0.00000000000E+00  0.13005997529E+02  0.13005997779E+02  0.25500000000E-02 0.  1.
          1   -1    0    0  501    0  0.00000000000E+00 -0.00000000000E+00 -0.12121536701E+03  0.12121536711E+03  0.50400000000E-02 0. -1.
        -24    2    1    2    0    0  0.00000000000E+00  0.00000000000E+00 -0.10820936948E+03  0.13422136489E+03  0.79411001445E+02 0.  0.
         66    2    3    3    0    0  0.23355022362E+02  0.16300155960E+02 -0.74398161116E+01  0.29504287948E+02  0.19999974305E+01 0.  0.
         13    1    3    3    0    0 -0.23355022362E+02 -0.16300155960E+02 -0.10076955337E+03  0.10471707694E+03  0.10566000000E+00 0. -1.
         13    1    4    4    0    0  0.64139335382E+01  0.41782886950E+01 -0.23381866742E+01  0.80046811810E+01  0.10566000000E+00 0. -1.
        -13    1    4    4    0    0  0.15072828060E+02  0.10829466859E+02 -0.40528482742E+01  0.18997479869E+02  0.10566000000E+00 0.  1.
        -14    1    4    4    0    0  0.18682607637E+01  0.12924004053E+01 -0.10487811631E+01  0.25021268987E+01  0.00000000000E+00 0.  1.
<mgrwt>
<rscale>  0 0.79411001E+02</rscale>
<asrwt>0</asrwt>
<pdfrwt beam="1">  1        1 0.18648517E-01 0.79411001E+02</pdfrwt>
<pdfrwt beam="2">  1       -2 0.20009228E-02 0.79411001E+02</pdfrwt>
<totfact> 0.15497801E+05</totfact>
</mgrwt>
</event>
<event>
 8    1  0.1319619E-024  0.7984323E+02  0.7818608E-02  0.1329497E+00
         -2   -1    0    0    0  501 -0.00000000000E+00  0.00000000000E+00  0.90951722309E+01  0.90951725884E+01  0.25500000000E-02 0.  1.
          1   -1    0    0  501    0  0.00000000000E+00 -0.00000000000E+00 -0.17522871437E+03  0.17522871444E+03  0.50400000000E-02 0. -1.
        -24    2    1    2    0    0  0.00000000000E+00  0.00000000000E+00 -0.16613354214E+03  0.18432388703E+03  0.79843230812E+02 0.  0.
         66    2    3    3    0    0  0.11853164088E+02  0.35288784943E+02 -0.11624773327E+03  0.12207920105E+03  0.19999996098E+01 0.  0.
         13    1    3    3    0    0 -0.11853164088E+02 -0.35288784943E+02 -0.49885808872E+02  0.62244685978E+02  0.10566000000E+00 0. -1.
         13    1    4    4    0    0  0.42655940644E+01  0.12537756963E+02 -0.43978399239E+02  0.45929308791E+02  0.10566000000E+00 0. -1.
        -13    1    4    4    0    0  0.59867968037E+00  0.19091624978E+01 -0.67602701903E+01  0.70509386527E+01  0.10566000000E+00 0.  1.
        -14    1    4    4    0    0  0.69888903428E+01  0.20841865481E+02 -0.65509063837E+02  0.69098953609E+02  0.00000000000E+00 0.  1.
<mgrwt>
<rscale>  0 0.79843231E+02</rscale>
<asrwt>0</asrwt>
<pdfrwt beam="1">  1        1 0.26958261E-01 0.79843231E+02</pdfrwt>
<pdfrwt beam="2">  1       -2 0.13992574E-02 0.79843231E+02</pdfrwt>
<totfact> 0.16339917E+05</totfact>
</mgrwt>
</event>
<event>
 8    1  0.1319619E-024  0.7840128E+02  0.7818608E-02  0.1333651E+00
          1   -1    0    0  501    0  0.00000000000E+00  0.00000000000E+00  0.30593219045E+03  0.30593219049E+03  0.50400000000E-02 0. -1.
         -2   -1    0    0    0  501 -0.00000000000E+00 -0.00000000000E+00 -0.50229757473E+01  0.50229763946E+01  0.25500000000E-02 0.  1.
        -24    2    1    2    0    0  0.00000000000E+00  0.35527136788E-14  0.30090921470E+03  0.31095516689E+03  0.78401277542E+02 0.  0.
         66    2    3    3    0    0 -0.23592531524E+02  0.26935485522E+02  0.87521193679E+02  0.94583757951E+02  0.20000002924E+01 0.  0.
         13    1    3    3    0    0  0.23592531524E+02 -0.26935485522E+02  0.21338802102E+03  0.21637140894E+03  0.10566000000E+00 0. -1.
         13    1    4    4    0    0 -0.14570650229E+02  0.17481264001E+02  0.55214384951E+02  0.59720498229E+02  0.10566000000E+00 0. -1.
        -13    1    4    4    0    0 -0.72205946360E+01  0.80002181527E+01  0.27140764939E+02  0.29202273249E+02  0.10566000000E+00 0.  1.
         14    1    4    4    0    0 -0.18012866587E+01  0.14540033682E+01  0.51660437891E+01  0.56609864734E+01  0.00000000000E+00 0. -1.
<mgrwt>
<rscale>  0 0.78401278E+02</rscale>
<asrwt>0</asrwt>
<pdfrwt beam="1">  1        1 0.47066485E-01 0.78401278E+02</pdfrwt>
<pdfrwt beam="2">  1       -2 0.77276564E-03 0.78401278E+02</pdfrwt>
<totfact> 0.19097251E+05</totfact>
</mgrwt>
</event>
<event>
 8    1  0.1319619E-024  0.7257797E+02  0.7818608E-02  0.1351540E+00
          1   -1    0    0  501    0  0.00000000000E+00  0.00000000000E+00  0.37474745387E+03  0.37474745390E+03  0.50400000000E-02 0. -1.
         -2   -1    0    0    0  501 -0.00000000000E+00 -0.00000000000E+00 -0.35140742708E+01  0.35140751960E+01  0.25500000000E-02 0.  1.
        -24    2    1    2    0    0  0.35527136788E-14  0.00000000000E+00  0.37123337960E+03  0.37826152910E+03  0.72577973713E+02 0.  0.
         66    2    3    3    0    0 -0.29380835788E+02  0.15475108313E+02  0.26167313052E+03  0.26377933908E+03  0.20000003800E+01 0.  0.
         13    1    3    3    0    0  0.29380835788E+02 -0.15475108313E+02  0.10956024908E+03  0.11448219001E+03  0.10566000000E+00 0. -1.
         13    1    4    4    0    0 -0.52141478371E+01  0.24998401617E+01  0.50053273915E+02  0.50386287144E+02  0.10566000000E+00 0. -1.
        -13    1    4    4    0    0 -0.72760137704E+01  0.39962903778E+01  0.67988195360E+02  0.68493186416E+02  0.10566000000E+00 0.  1.
        -14    1    4    4    0    0 -0.16890674181E+02  0.89789777730E+01  0.14363166125E+03  0.14489986552E+03  0.00000000000E+00 0.  1.
<mgrwt>
<rscale>  0 0.72577974E+02</rscale>
<asrwt>0</asrwt>
<pdfrwt beam="1">  1        1 0.57653448E-01 0.72577974E+02</pdfrwt>
<pdfrwt beam="2">  1       -2 0.54062695E-03 0.72577974E+02</pdfrwt>
<totfact> 0.24231464E+05</totfact>
</mgrwt>
</event>
<event>
 8    1  0.1319619E-024  0.7837515E+02  0.7818608E-02  0.1333727E+00
          1   -1    0    0  501    0  0.00000000000E+00  0.00000000000E+00  0.56484270513E+02  0.56484270738E+02  0.50400000000E-02 0. -1.
         -2   -1    0    0    0  501 -0.00000000000E+00 -0.00000000000E+00 -0.27187499705E+02  0.27187499824E+02  0.25500000000E-02 0.  1.
        -24    2    1    2    0    0  0.00000000000E+00  0.00000000000E+00  0.29296770809E+02  0.83671770563E+02  0.78375151734E+02 0.  0.
         66    2    3    3    0    0  0.17676573169E+02 -0.80099257222E+01 -0.21656173721E+02  0.29148070492E+02  0.20000010212E+01 0.  0.
         13    1    3    3    0    0 -0.17676573169E+02  0.80099257222E+01  0.50952944530E+02  0.54523700071E+02  0.10566000000E+00 0. -1.
         13    1    4    4    0    0  0.88231599706E+01 -0.40692797580E+01 -0.12212535108E+02  0.15606548863E+02  0.10566000000E+00 0.  1.
        -13    1    4    4    0    0  0.24908112564E+01 -0.98201507174E+00 -0.28719541164E+01  0.39278211260E+01  0.10566000000E+00 0.  1.
         14    1    4    4    0    0  0.63626019425E+01 -0.29586308925E+01 -0.65716844963E+01  0.96137005027E+01  0.00000000000E+00 0. -1.
<mgrwt>
<rscale>  0 0.78375152E+02</rscale>
<asrwt>0</asrwt>
<pdfrwt beam="1">  1        1 0.86898879E-02 0.78375152E+02</pdfrwt>
<pdfrwt beam="2">  1       -2 0.41826922E-02 0.78375152E+02</pdfrwt>
<totfact> 0.14192538E+05</totfact>
</mgrwt>
</event>
<event>
 8    1  0.1319619E-024  0.6987041E+02  0.7818608E-02  0.1360534E+00
         -2   -1    0    0    0  501 -0.00000000000E+00  0.00000000000E+00  0.80769448968E+01  0.80769452994E+01  0.25500000000E-02 0.  1.
          1   -1    0    0  501    0  0.00000000000E+00 -0.00000000000E+00 -0.15110520319E+03  0.15110520327E+03  0.50400000000E-02 0. -1.
        -24    2    1    2    0    0  0.00000000000E+00  0.00000000000E+00 -0.14302825829E+03  0.15918214857E+03  0.69870406855E+02 0.  0.
         66    2    3    3    0    0  0.21862304521E+02  0.19021457672E+02 -0.27238088056E+02  0.39820718880E+02  0.20000000629E+01 0.  0.
         13    1    3    3    0    0 -0.21862304521E+02 -0.19021457672E+02 -0.11579017024E+03  0.11936142969E+03  0.10566000000E+00 0. -1.
         13    1    4    4    0    0  0.71029930076E+01  0.70211493139E+01 -0.95913474253E+01  0.13847532517E+02  0.10566000000E+00 0. -1.
        -13    1    4    4    0    0  0.14491686288E+02  0.11743130002E+02 -0.17053301135E+02  0.25273233219E+02  0.10566000000E+00 0.  1.
         14    1    4    4    0    0  0.26762522561E+00  0.25717835608E+00 -0.59343949589E+00  0.69995314379E+00  0.00000000000E+00 0. -1.
<mgrwt>
<rscale>  0 0.69870407E+02</rscale>
<asrwt>0</asrwt>
<pdfrwt beam="1">  1        1 0.23246952E-01 0.69870407E+02</pdfrwt>
<pdfrwt beam="2">  1       -2 0.12426071E-02 0.69870407E+02</pdfrwt>
<totfact> 0.22625874E+05</totfact>
</mgrwt>
</event>
<event>
 8    1  0.1319619E-024  0.8004713E+02  0.7818608E-02  0.1328918E+00
          1   -1    0    0  501    0  0.00000000000E+00  0.00000000000E+00  0.58344220333E+01  0.58344242102E+01  0.50400000000E-02 0. -1.
         -2   -1    0    0    0  501 -0.00000000000E+00 -0.00000000000E+00 -0.27455768725E+03  0.27455768726E+03  0.25500000000E-02 0.  1.
        -24    2    1    2    0    0  0.00000000000E+00  0.00000000000E+00 -0.26872326522E+03  0.28039211147E+03  0.80047129286E+02 0.  0.
         66    2    3    3    0    0  0.37795324874E+02  0.11224803612E+02 -0.15804670098E+03  0.16290255520E+03  0.20000001442E+01 0.  0.
         13    1    3    3    0    0 -0.37795324874E+02 -0.11224803612E+02 -0.11067656423E+03  0.11748955627E+03  0.10566000000E+00 0. -1.
         13    1    4    4    0    0  0.70650946876E+01  0.22728969469E+01 -0.30862012005E+02  0.31742031638E+02  0.10566000000E+00 0.  1.
        -13    1    4    4    0    0  0.21087012623E+02  0.54070146522E+01 -0.87521556556E+02  0.90188313738E+02  0.10566000000E+00 0.  1.
         14    1    4    4    0    0  0.96432175625E+01  0.35448920128E+01 -0.39663132423E+02  0.40972209825E+02  0.00000000000E+00 0. -1.
<mgrwt>
<rscale>  0 0.80047129E+02</rscale>
<asrwt>0</asrwt>
<pdfrwt beam="1">  1        1 0.89760377E-03 0.80047129E+02</pdfrwt>
<pdfrwt beam="2">  1       -2 0.42239634E-01 0.80047129E+02</pdfrwt>
<totfact> 0.73517861E+04</totfact>
</mgrwt>
</event>
<event>
 8    1  0.1319619E-024  0.8111481E+02  0.7818608E-02  0.1325917E+00
          1   -1    0    0  501    0  0.00000000000E+00  0.00000000000E+00  0.14736667143E+03  0.14736667151E+03  0.50400000000E-02 0. -1.
         -2   -1    0    0    0  501 -0.00000000000E+00 -0.00000000000E+00 -0.11161973476E+02  0.11161973767E+02  0.25500000000E-02 0.  1.
        -24    2    1    2    0    0 -0.35527136788E-14  0.35527136788E-14  0.13620469795E+03  0.15852864528E+03  0.81114805249E+02 0.  0.
         66    2    3    3    0    0 -0.27529282748E+02  0.27568672055E+02  0.46292649698E+02  0.60538438257E+02  0.20000007527E+01 0.  0.
         13    1    3    3    0    0  0.27529282748E+02 -0.27568672055E+02  0.89912048251E+02  0.97990207022E+02  0.10566000000E+00 0. -1.
         13    1    4    4    0    0 -0.24793030110E+00  0.20510778164E+00  0.33354718240E+00  0.47534870861E+00  0.10566000000E+00 0.  1.
        -13    1    4    4    0    0 -0.20848285175E+02  0.21376169010E+02  0.34652702234E+02  0.45742895978E+02  0.10566000000E+00 0.  1.
        -14    1    4    4    0    0 -0.64330672723E+01  0.59873952635E+01  0.11306400282E+02  0.14320193571E+02  0.00000000000E+00 0.  1.
<mgrwt>
<rscale>  0 0.81114805E+02</rscale>
<asrwt>0</asrwt>
<pdfrwt beam="1">  1        1 0.22671795E-01 0.81114805E+02</pdfrwt>
<pdfrwt beam="2">  1       -2 0.17172268E-02 0.81114805E+02</pdfrwt>
<totfact> 0.15165020E+05</totfact>
</mgrwt>
</event>
<event>
 8    1  0.1319619E-024  0.8154078E+02  0.7818608E-02  0.1324735E+00
          1   -1    0    0  501    0  0.00000000000E+00  0.00000000000E+00  0.10397586629E+03  0.10397586641E+03  0.50400000000E-02 0. -1.
         -2   -1    0    0    0  501 -0.00000000000E+00 -0.00000000000E+00 -0.15986638619E+02  0.15986638822E+02  0.25500000000E-02 0.  1.
        -24    2    1    2    0    0  0.88817841970E-15  0.00000000000E+00  0.87989227670E+02  0.11996250523E+03  0.81540777993E+02 0.  0.
         66    2    3    3    0    0  0.45513820554E+01  0.32652188433E+02  0.87939411564E+01  0.34179144037E+02  0.19999994912E+01 0.  0.
         13    1    3    3    0    0 -0.45513820554E+01 -0.32652188433E+02  0.79195286514E+02  0.85783361196E+02  0.10566000000E+00 0. -1.
         13    1    4    4    0    0  0.14845384076E+01  0.75181841694E+01  0.27490735373E+01  0.81422058951E+01  0.10566000000E+00 0. -1.
        -13    1    4    4    0    0  0.23581386102E+01  0.18302883759E+02  0.42193638632E+01  0.18930677934E+02  0.10566000000E+00 0.  1.
         14    1    4    4    0    0  0.70870503762E+00  0.68311205039E+01  0.18255037559E+01  0.71062602072E+01  0.00000000000E+00 0. -1.
<mgrwt>
<rscale>  0 0.81540778E+02</rscale>
<asrwt>0</asrwt>
<pdfrwt beam="1">  1        1 0.15996287E-01 0.81540778E+02</pdfrwt>
<pdfrwt beam="2">  1       -2 0.24594829E-02 0.81540778E+02</pdfrwt>
<totfact> 0.14052703E+05</totfact>
</mgrwt>
</event>
<event>
 8    1  0.1319619E-024  0.7936117E+02  0.7818608E-02  0.1330874E+00
          1   -1    0    0  501    0  0.00000000000E+00  0.00000000000E+00  0.18399449333E+03  0.18399449340E+03  0.50400000000E-02 0. -1.
         -2   -1    0    0    0  501 -0.00000000000E+00 -0.00000000000E+00 -0.85575873760E+01  0.85575877559E+01  0.25500000000E-02 0.  1.
        -24    2    1    2    0    0  0.00000000000E+00 -0.35527136788E-14  0.17543690596E+03  0.19255208116E+03  0.79361174301E+02 0.  0.
         66    2    3    3    0    0  0.17233120143E+02  0.21228909554E+02  0.18088896555E+02  0.32845931441E+02  0.20000007235E+01 0.  0.
         13    1    3    3    0    0 -0.17233120143E+02 -0.21228909554E+02  0.15734800940E+03  0.15970614972E+03  0.10566000000E+00 0. -1.
         13    1    4    4    0    0  0.94167236342E+01  0.11586962476E+02  0.90997456382E+01  0.17485677514E+02  0.10566000000E+00 0.  1.
        -13    1    4    4    0    0  0.33995360907E+01  0.35725802880E+01  0.31844575723E+01  0.58712953946E+01  0.10566000000E+00 0. -1.
        -14    1    4    4    0    0  0.44168604180E+01  0.60693667909E+01  0.58046933447E+01  0.94889585319E+01  0.00000000000E+00 0.  1.
<mgrwt>
<rscale>  0 0.79361174E+02</rscale>
<asrwt>0</asrwt>
<pdfrwt beam="1">  1        1 0.28306846E-01 0.79361174E+02</pdfrwt>
<pdfrwt beam="2">  1       -2 0.13165519E-02 0.79361174E+02</pdfrwt>
<totfact> 0.16760808E+05</totfact>
</mgrwt>
</event>
<event>
 8    1  0.1319619E-024  0.7987302E+02  0.7818608E-02  0.1329412E+00
         -2   -1    0    0    0  501 -0.00000000000E+00  0.00000000000E+00  0.15108374769E+02  0.15108374985E+02  0.25500000000E-02 0.  1.
          1   -1    0    0  501    0  0.00000000000E+00 -0.00000000000E+00 -0.10556561417E+03  0.10556561429E+03  0.50400000000E-02 0. -1.
        -24    2    1    2    0    0  0.35527136788E-14 -0.35527136788E-14 -0.90457239400E+02  0.12067398927E+03  0.79873021274E+02 0.  0.
         66    2    3    3    0    0 -0.24053439126E+02  0.24367829325E+02 -0.14273573957E+02  0.37149615083E+02  0.19999868797E+01 0.  0.
         13    1    3    3    0    0  0.24053439126E+02 -0.24367829325E+02 -0.76183665443E+02  0.83524374192E+02  0.10566000000E+00 0. -1.
         13    1    4    4    0    0 -0.20257697897E+01  0.13863619742E+01 -0.10332611510E+01  0.26654334369E+01  0.10566000000E+00 0. -1.
        -13    1    4    4    0    0 -0.10639135162E+02  0.10676493233E+02 -0.64546605468E+01  0.16396722586E+02  0.10566000000E+00 0.  1.
        -14    1    4    4    0    0 -0.11388534174E+02  0.12304974117E+02 -0.67856522593E+01  0.18087459060E+02  0.00000000000E+00 0.  1.
<mgrwt>
<rscale>  0 0.79873021E+02</rscale>
<asrwt>0</asrwt>
<pdfrwt beam="1">  1        1 0.16240863E-01 0.79873021E+02</pdfrwt>
<pdfrwt beam="2">  1       -2 0.23243654E-02 0.79873021E+02</pdfrwt>
<totfact> 0.14898144E+05</totfact>
</mgrwt>
</event>
<event>
 8    1  0.1319619E-024  0.7969246E+02  0.7818608E-02  0.1329926E+00
         -2   -1    0    0    0  501 -0.00000000000E+00  0.00000000000E+00  0.30844528293E+03  0.30844528294E+03  0.25500000000E-02 0.  1.
          1   -1    0    0  501    0  0.00000000000E+00 -0.00000000000E+00 -0.51474990307E+01  0.51475014980E+01  0.50400000000E-02 0. -1.
        -24    2    1    2    0    0  0.00000000000E+00  0.00000000000E+00  0.30329778390E+03  0.31359278444E+03  0.79692463469E+02 0.  0.
         66    2    3    3    0    0 -0.20612565534E+02 -0.75735133963E+01  0.28246090386E+03  0.28332031020E+03  0.19999990779E+01 0.  0.
         13    1    3    3    0    0  0.20612565534E+02  0.75735133963E+01  0.20836880040E+02  0.30272474244E+02  0.10566000000E+00 0. -1.
         13    1    4    4    0    0 -0.29737672651E+01 -0.80834938877E+00  0.38309878088E+02  0.38433769574E+02  0.10566000000E+00 0.  1.
        -13    1    4    4    0    0 -0.25611618034E+01 -0.11519616541E+01  0.29581166897E+02  0.29714359567E+02  0.10566000000E+00 0. -1.
         14    1    4    4    0    0 -0.15077636465E+02 -0.56132023535E+01  0.21456985888E+03  0.21517218106E+03  0.00000000000E+00 0. -1.
<mgrwt>
<rscale>  0 0.79692463E+02</rscale>
<asrwt>0</asrwt>
<pdfrwt beam="1">  1        1 0.79192303E-03 0.79692463E+02</pdfrwt>
<pdfrwt beam="2">  1       -2 0.47453126E-01 0.79692463E+02</pdfrwt>
<totfact> 0.69898437E+04</totfact>
</mgrwt>
</event>
<event>
 8    1  0.1319619E-024  0.7923804E+02  0.7818608E-02  0.1331228E+00
          1   -1    0    0  501    0  0.00000000000E+00  0.00000000000E+00  0.10447803130E+02  0.10447804345E+02  0.50400000000E-02 0. -1.
         -2   -1    0    0    0  501 -0.00000000000E+00 -0.00000000000E+00 -0.15023893038E+03  0.15023893040E+03  0.25500000000E-02 0.  1.
        -24    2    1    2    0    0 -0.35527136788E-14  0.00000000000E+00 -0.13979112725E+03  0.16068673475E+03  0.79238043047E+02 0.  0.
         66    2    3    3    0    0  0.24307272548E+02 -0.29292780465E+02 -0.92038616673E+02  0.99619362800E+02  0.19999998968E+01 0.  0.
         13    1    3    3    0    0 -0.24307272548E+02  0.29292780465E+02 -0.47752510581E+02  0.61067371950E+02  0.10566000000E+00 0. -1.
         13    1    4    4    0    0  0.70661417238E+01 -0.79304991192E+01 -0.24308312979E+02  0.26527880033E+02  0.10566000000E+00 0. -1.
        -13    1    4    4    0    0  0.67775732181E+01 -0.77090531187E+01 -0.24374961614E+02  0.26448344304E+02  0.10566000000E+00 0.  1.
         14    1    4    4    0    0  0.10463557606E+02 -0.13653228227E+02 -0.43355342080E+02  0.46643138463E+02  0.00000000000E+00 0. -1.
<mgrwt>
<rscale>  0 0.79238043E+02</rscale>
<asrwt>0</asrwt>
<pdfrwt beam="1">  1        1 0.16073545E-02 0.79238043E+02</pdfrwt>
<pdfrwt beam="2">  1       -2 0.23113680E-01 0.79238043E+02</pdfrwt>
<totfact> 0.96815666E+04</totfact>
</mgrwt>
</event>
<event>
 8    1  0.1319619E-024  0.7805390E+02  0.7818608E-02  0.1334667E+00
         -2   -1    0    0    0  501 -0.00000000000E+00  0.00000000000E+00  0.16069601359E+02  0.16069601561E+02  0.25500000000E-02 0.  1.
          1   -1    0    0  501    0  0.00000000000E+00 -0.00000000000E+00 -0.94781612047E+02  0.94781612181E+02  0.50400000000E-02 0. -1.
        -24    2    1    2    0    0  0.00000000000E+00  0.00000000000E+00 -0.78712010689E+02  0.11085121374E+03  0.78053897798E+02 0.  0.
         66    2    3    3    0    0  0.23867293229E+02  0.13490338014E+02  0.13047784863E-01  0.27488854721E+02  0.20000144604E+01 0.  0.
         13    1    3    3    0    0 -0.23867293229E+02 -0.13490338014E+02 -0.78725058473E+02  0.83362359021E+02  0.10566000000E+00 0. -1.
         13    1    4    4    0    0  0.62031346603E+01  0.37633693280E+01 -0.15520631490E+00  0.72578978601E+01  0.10566000000E+00 0.  1.
        -13    1    4    4    0    0  0.14712578951E+02  0.74010745071E+01  0.59396012996E-02  0.16469580522E+02  0.10566000000E+00 0. -1.
         14    1    4    4    0    0  0.29515796176E+01  0.23258941788E+01  0.16231449846E+00  0.37613763394E+01  0.00000000000E+00 0. -1.
<mgrwt>
<rscale>  0 0.78053898E+02</rscale>
<asrwt>0</asrwt>
<pdfrwt beam="1">  1        1 0.14581786E-01 0.78053898E+02</pdfrwt>
<pdfrwt beam="2">  1       -2 0.24722464E-02 0.78053898E+02</pdfrwt>
<totfact> 0.15570647E+05</totfact>
</mgrwt>
</event>
<event>
 8    1  0.1319619E-024  0.8210442E+02  0.7818608E-02  0.1323183E+00
          1   -1    0    0  501    0  0.00000000000E+00  0.00000000000E+00  0.12058515097E+03  0.12058515107E+03  0.50400000000E-02 0. -1.
         -2   -1    0    0    0  501 -0.00000000000E+00 -0.00000000000E+00 -0.13975883463E+02  0.13975883696E+02  0.25500000000E-02 0.  1.
        -24    2    1    2    0    0  0.88817841970E-15 -0.71054273576E-14  0.10660926750E+03  0.13456103477E+03  0.82104422293E+02 0.  0.
         66    2    3    3    0    0 -0.53173213248E+01 -0.37225467088E+02  0.26442723324E+02  0.46013334200E+02  0.20000003735E+01 0.  0.
         13    1    3    3    0    0  0.53173213248E+01  0.37225467088E+02  0.80166544181E+02  0.88547700568E+02  0.10566000000E+00 0. -1.
         13    1    4    4    0    0 -0.97682093181E+00 -0.58128154046E+01  0.44389059409E+01  0.73795699095E+01  0.10566000000E+00 0.  1.
        -13    1    4    4    0    0 -0.22554011022E+01 -0.21718564118E+02  0.15411834168E+02  0.26726740504E+02  0.10566000000E+00 0. -1.
         14    1    4    4    0    0 -0.20850992908E+01 -0.96940875647E+01  0.65919832149E+01  0.11907023787E+02  0.00000000000E+00 0. -1.
<mgrwt>
<rscale>  0 0.82104422E+02</rscale>
<asrwt>0</asrwt>
<pdfrwt beam="1">  1        1 0.18551562E-01 0.82104422E+02</pdfrwt>
<pdfrwt beam="2">  1       -2 0.21501359E-02 0.82104422E+02</pdfrwt>
<totfact> 0.14154578E+05</totfact>
</mgrwt>
</event>
<event>
 8    1  0.1319619E-024  0.7968066E+02  0.7818608E-02  0.1329960E+00
          1   -1    0    0  501    0  0.00000000000E+00  0.00000000000E+00  0.16734205445E+02  0.16734206204E+02  0.50400000000E-02 0. -1.
         -2   -1    0    0    0  501 -0.00000000000E+00 -0.00000000000E+00 -0.94850750274E+02  0.94850750308E+02  0.25500000000E-02 0.  1.
        -24    2    1    2    0    0 -0.71054273576E-14  0.00000000000E+00 -0.78116544829E+02  0.11158495651E+03  0.79680662294E+02 0.  0.
         66    2    3    3    0    0  0.19901332713E+02 -0.34331700911E+02 -0.43624585648E+02  0.59007060553E+02  0.19999977365E+01 0.  0.
         13    1    3    3    0    0 -0.19901332713E+02  0.34331700911E+02 -0.34491959181E+02  0.52577895959E+02  0.10566000000E+00 0. -1.
         13    1    4    4    0    0  0.65667814050E+01 -0.12247356967E+02 -0.15695901675E+02  0.20964085101E+02  0.10566000000E+00 0. -1.
        -13    1    4    4    0    0  0.89361087117E+00 -0.20891236808E+01 -0.22152999732E+01  0.31751686805E+01  0.10566000000E+00 0.  1.
        -14    1    4    4    0    0  0.12440940437E+02 -0.19995220263E+02 -0.25713384000E+02  0.34867806772E+02  0.00000000000E+00 0.  1.
<mgrwt>
<rscale>  0 0.79680662E+02</rscale>
<asrwt>0</asrwt>
<pdfrwt beam="1">  1        1 0.25744933E-02 0.79680662E+02</pdfrwt>
<pdfrwt beam="2">  1       -2 0.14592423E-01 0.79680662E+02</pdfrwt>
<totfact> 0.10861180E+05</totfact>
</mgrwt>
</event>
<event>
 8    1  0.1319619E-024  0.8323102E+02  0.7818608E-02  0.1320124E+00
          1   -1    0    0  501    0  0.00000000000E+00  0.00000000000E+00  0.17231293180E+03  0.17231293187E+03  0.50400000000E-02 0. -1.
         -2   -1    0    0    0  501 -0.00000000000E+00 -0.00000000000E+00 -0.10050614375E+02  0.10050614699E+02  0.25500000000E-02 0.  1.
        -24    2    1    2    0    0  0.35527136788E-14  0.00000000000E+00  0.16226231742E+03  0.18236354657E+03  0.83231024638E+02 0.  0.
         66    2    3    3    0    0  0.24978014836E+02  0.15162377167E+02  0.16326904095E+02  0.33531577782E+02  0.20000011708E+01 0.  0.
         13    1    3    3    0    0 -0.24978014836E+02 -0.15162377167E+02  0.14593541333E+03  0.14883196879E+03  0.10566000000E+00 0. -1.
         13    1    4    4    0    0  0.42416751295E+01  0.28351366986E+01  0.35201284476E+01  0.61993770919E+01  0.10566000000E+00 0. -1.
        -13    1    4    4    0    0  0.10470857814E+01  0.51497095044E+00  0.82692393577E+00  0.14340679707E+01  0.10566000000E+00 0. -1.
        -14    1    4    4    0    0  0.19689253925E+02  0.11812269518E+02  0.11979851712E+02  0.25898132719E+02  0.00000000000E+00 0.  1.
<mgrwt>
<rscale>  0 0.83231025E+02</rscale>
<asrwt>0</asrwt>
<pdfrwt beam="1">  1        1 0.26509682E-01 0.83231025E+02</pdfrwt>
<pdfrwt beam="2">  1       -2 0.15462484E-02 0.83231025E+02</pdfrwt>
<totfact> 0.14577918E+05</totfact>
</mgrwt>
</event>
<event>
 8    1  0.1319619E-024  0.7863681E+02  0.7818608E-02  0.1332965E+00
          1   -1    0    0  501    0  0.00000000000E+00  0.00000000000E+00  0.69330374161E+02  0.69330374344E+02  0.50400000000E-02 0. -1.
         -2   -1    0    0    0  501 -0.00000000000E+00 -0.00000000000E+00 -0.22298116629E+02  0.22298116775E+02  0.25500000000E-02 0.  1.
        -24    2    1    2    0    0  0.35527136788E-14 -0.35527136788E-14  0.47032257532E+02  0.91628491119E+02  0.78636805227E+02 0.  0.
         66    2    3    3    0    0 -0.20914324020E+02  0.18496322556E+02 -0.86844008214E+01  0.29307707433E+02  0.20000000116E+01 0.  0.
         13    1    3    3    0    0  0.20914324020E+02 -0.18496322556E+02  0.55716658353E+02  0.62320783687E+02  0.10566000000E+00 0. -1.
         13    1    4    4    0    0 -0.11472846836E+02  0.96296990114E+01 -0.45713045372E+01  0.15660948464E+02  0.10566000000E+00 0. -1.
        -13    1    4    4    0    0 -0.88974708175E+01  0.84208073075E+01 -0.41697521577E+01  0.12941135180E+02  0.10566000000E+00 0.  1.
        -14    1    4    4    0    0 -0.54400636582E+00  0.44581623692E+00  0.56655873577E-01  0.70562378869E+00  0.00000000000E+00 0.  1.
<mgrwt>
<rscale>  0 0.78636805E+02</rscale>
<asrwt>0</asrwt>
<pdfrwt beam="1">  1        1 0.10666211E-01 0.78636805E+02</pdfrwt>
<pdfrwt beam="2">  1       -2 0.34304796E-02 0.78636805E+02</pdfrwt>
<totfact> 0.14516272E+05</totfact>
</mgrwt>
</event>
<event>
 8    1  0.1319619E-024  0.8078866E+02  0.7818608E-02  0.1326828E+00
          1   -1    0    0  501    0  0.00000000000E+00  0.00000000000E+00  0.15908025823E+03  0.15908025831E+03  0.50400000000E-02 0. -1.
         -2   -1    0    0    0  501 -0.00000000000E+00 -0.00000000000E+00 -0.10257098406E+02  0.10257098723E+02  0.25500000000E-02 0.  1.
        -24    2    1    2    0    0 -0.35527136788E-14  0.00000000000E+00  0.14882315983E+03  0.16933735704E+03  0.80788660015E+02 0.  0.
         66    2    3    3    0    0 -0.21532669975E+02  0.13832741065E+02  0.90179987925E+01  0.27208912249E+02  0.20000004845E+01 0.  0.
         13    1    3    3    0    0  0.21532669975E+02 -0.13832741065E+02  0.13980516103E+03  0.14212844479E+03  0.10566000000E+00 0. -1.
         13    1    4    4    0    0 -0.15169559352E+02  0.96702797012E+01  0.63252879499E+01  0.19069616465E+02  0.10566000000E+00 0. -1.
        -13    1    4    4    0    0 -0.63655777800E+01  0.41992140856E+01  0.27159155352E+01  0.80957606585E+01  0.10566000000E+00 0.  1.
         14    1    4    4    0    0  0.24671570950E-02 -0.36752721683E-01 -0.23204692613E-01  0.43535125755E-01  0.00000000000E+00 0. -1.
<mgrwt>
<rscale>  0 0.80788660E+02</rscale>
<asrwt>0</asrwt>
<pdfrwt beam="1">  1        1 0.24473886E-01 0.80788660E+02</pdfrwt>
<pdfrwt beam="2">  1       -2 0.15780151E-02 0.80788660E+02</pdfrwt>
<totfact> 0.15548974E+05</totfact>
</mgrwt>
</event>
<event>
 8    1  0.1319619E-024  0.7960356E+02  0.7818608E-02  0.1330180E+00
         -2   -1    0    0    0  501 -0.00000000000E+00  0.00000000000E+00  0.20311553309E+02  0.20311553469E+02  0.25500000000E-02 0.  1.
          1   -1    0    0  501    0  0.00000000000E+00 -0.00000000000E+00 -0.77994115490E+02  0.77994115653E+02  0.50400000000E-02 0. -1.
        -24    2    1    2    0    0 -0.35527136788E-14  0.00000000000E+00 -0.57682562181E+02  0.98305669122E+02  0.79603558977E+02 0.  0.
         66    2    3    3    0    0  0.27437469575E+02 -0.52229495656E+01  0.61153986356E+01  0.28661682252E+02  0.19999975441E+01 0.  0.
         13    1    3    3    0    0 -0.27437469575E+02  0.52229495656E+01 -0.63797960816E+02  0.69643986870E+02  0.10566000000E+00 0. -1.
         13    1    4    4    0    0  0.98803483992E+01 -0.26267976703E+01  0.23304364492E+01  0.10486345816E+02  0.10566000000E+00 0. -1.
        -13    1    4    4    0    0  0.11013247351E+02 -0.14894965250E+01  0.28444332951E+01  0.11472235262E+02  0.10566000000E+00 0.  1.
         14    1    4    4    0    0  0.65438738250E+01 -0.11066553702E+01  0.94052889132E+00  0.67031011735E+01  0.00000000000E+00 0. -1.
<mgrwt>
<rscale>  0 0.79603559E+02</rscale>
<asrwt>0</asrwt>
<pdfrwt beam="1">  1        1 0.11999095E-01 0.79603559E+02</pdfrwt>
<pdfrwt beam="2">  1       -2 0.31248544E-02 0.79603559E+02</pdfrwt>
<totfact> 0.14304025E+05</totfact>
</mgrwt>
</event>
<event>
 8    1  0.1319619E-024  0.7831257E+02  0.7818608E-02  0.1333909E+00
         -2   -1    0    0    0  501 -0.00000000000E+00  0.00000000000E+00  0.55908736290E+02  0.55908736349E+02  0.25500000000E-02 0.  1.
          1   -1    0    0  501    0  0.00000000000E+00 -0.00000000000E+00 -0.27423523492E+02  0.27423523955E+02  0.50400000000E-02 0. -1.
        -24    2    1    2    0    0 -0.17763568394E-14  0.17763568394E-14  0.28485212799E+02  0.83332260304E+02  0.78312567696E+02 0.  0.
         66    2    3    3    0    0 -0.82880626278E+01  0.14497487500E+02  0.51908626487E+02  0.54565324443E+02  0.20000004467E+01 0.  0.
         13    1    3    3    0    0  0.82880626278E+01 -0.14497487500E+02 -0.23423413689E+02  0.28766935861E+02  0.10566000000E+00 0. -1.
         13    1    4    4    0    0 -0.40473411706E+01  0.63906998458E+01  0.22209951778E+02  0.23463058988E+02  0.10566000000E+00 0. -1.
        -13    1    4    4    0    0 -0.16153368030E+01  0.43226957478E+01  0.15792965780E+02  0.16453690883E+02  0.10566000000E+00 0.  1.
        -14    1    4    4    0    0 -0.26253846542E+01  0.37840919066E+01  0.13905708930E+02  0.14648574572E+02  0.00000000000E+00 0.  1.
<mgrwt>
<rscale>  0 0.78312568E+02</rscale>
<asrwt>0</asrwt>
<pdfrwt beam="1">  1        1 0.42190037E-02 0.78312568E+02</pdfrwt>
<pdfrwt beam="2">  1       -2 0.86013440E-02 0.78312568E+02</pdfrwt>
<totfact> 0.12656181E+05</totfact>
</mgrwt>
</event>
<event>
 8    1  0.1319619E-024  0.8501279E+02  0.7818608E-02  0.1315399E+00
          1   -1    0    0  501    0  0.00000000000E+00  0.00000000000E+00  0.12162325355E+02  0.12162326399E+02  0.50400000000E-02 0. -1.
         -2   -1    0    0    0  501 -0.00000000000E+00 -0.00000000000E+00 -0.14855659462E+03  0.14855659464E+03  0.25500000000E-02 0.  1.
        -24    2    1    2    0    0 -0.35527136788E-14  0.35527136788E-14 -0.13639426927E+03  0.16071892104E+03  0.85012792522E+02 0.  0.
         66    2    3    3    0    0 -0.22113238194E+02  0.16622886318E+02 -0.12918696777E+03  0.13213095134E+03  0.20000016060E+01 0.  0.
         13    1    3    3    0    0  0.22113238194E+02 -0.16622886318E+02 -0.72073014947E+01  0.28587969705E+02  0.10566000000E+00 0. -1.
         13    1    4    4    0    0 -0.13893419906E+01  0.13744129655E+01 -0.77341363853E+01  0.79779265369E+01  0.10566000000E+00 0. -1.
        -13    1    4    4    0    0 -0.13176078258E+02  0.90782572747E+01 -0.76281791626E+02  0.77941944364E+02  0.10566000000E+00 0.  1.
        -14    1    4    4    0    0 -0.75478179452E+01  0.61702160780E+01 -0.45171039762E+02  0.46211080439E+02  0.00000000000E+00 0.  1.
<mgrwt>
<rscale>  0 0.85012793E+02</rscale>
<asrwt>0</asrwt>
<pdfrwt beam="1">  1        1 0.18711272E-02 0.85012793E+02</pdfrwt>
<pdfrwt beam="2">  1       -2 0.22854859E-01 0.85012793E+02</pdfrwt>
<totfact> 0.81063679E+04</totfact>
</mgrwt>
</event>
<event>
 8    1  0.1319619E-024  0.7791565E+02  0.7818608E-02  0.1335073E+00
          1   -1    0    0  501    0  0.00000000000E+00  0.00000000000E+00  0.56372470142E+01  0.56372492672E+01  0.50400000000E-02 0. -1.
         -2   -1    0    0    0  501 -0.00000000000E+00 -0.00000000000E+00 -0.26922926757E+03  0.26922926758E+03  0.25500000000E-02 0.  1.
        -24    2    1    2    0    0  0.00000000000E+00  0.00000000000E+00 -0.26359202055E+03  0.27486651685E+03  0.77915651727E+02 0.  0.
         66    2    3    3    0    0  0.10865365597E+02 -0.80414405412E+01 -0.26068086170E+03  0.26103875689E+03  0.20000014439E+01 0.  0.
         13    1    3    3    0    0 -0.10865365597E+02  0.80414405412E+01 -0.29111588522E+01  0.13827759957E+02  0.10566000000E+00 0. -1.
         13    1    4    4    0    0  0.27736760321E+01 -0.14074354298E+01 -0.59118639992E+02  0.59200497563E+02  0.10566000000E+00 0. -1.
        -13    1    4    4    0    0  0.58788988257E+01 -0.51806077427E+01 -0.16001275888E+03  0.16020453900E+03  0.10566000000E+00 0.  1.
        -14    1    4    4    0    0  0.22127907390E+01 -0.14533973687E+01 -0.41549462828E+02  0.41633720325E+02  0.00000000000E+00 0.  1.
<mgrwt>
<rscale>  0 0.77915652E+02</rscale>
<asrwt>0</asrwt>
<pdfrwt beam="1">  1        1 0.86726916E-03 0.77915652E+02</pdfrwt>
<pdfrwt beam="2">  1       -2 0.41419877E-01 0.77915652E+02</pdfrwt>
<totfact> 0.79607756E+04</totfact>
</mgrwt>
</event>
<event>
 8    1  0.1319619E-024  0.8111692E+02  0.7818608E-02  0.1325911E+00
          1   -1    0    0  501    0  0.00000000000E+00  0.00000000000E+00  0.46915543155E+02  0.46915543426E+02  0.50400000000E-02 0. -1.
         -2   -1    0    0    0  501 -0.00000000000E+00 -0.00000000000E+00 -0.35062762384E+02  0.35062762477E+02  0.25500000000E-02 0.  1.
        -24    2    1    2    0    0  0.00000000000E+00 -0.17763568394E-14  0.11852780771E+02  0.81978305903E+02  0.81116917019E+02 0.  0.
         66    2    3    3    0    0 -0.29025578266E+02 -0.10121496447E+02 -0.20771306184E+02  0.37153412175E+02  0.19999979255E+01 0.  0.
         13    1    3    3    0    0  0.29025578266E+02  0.10121496447E+02  0.32624086955E+02  0.44824893727E+02  0.10566000000E+00 0. -1.
         13    1    4    4    0    0 -0.64466149034E+01 -0.22375913735E+01 -0.39027731207E+01  0.78618357230E+01  0.10566000000E+00 0. -1.
        -13    1    4    4    0    0 -0.17148162180E+02 -0.61593284298E+01 -0.13439736652E+02  0.22641432776E+02  0.10566000000E+00 0.  1.
        -14    1    4    4    0    0 -0.54308011827E+01 -0.17245766434E+01 -0.34287964111E+01  0.66501436761E+01  0.00000000000E+00 0.  1.
<mgrwt>
<rscale>  0 0.81116917E+02</rscale>
<asrwt>0</asrwt>
<pdfrwt beam="1">  1        1 0.72177759E-02 0.81116917E+02</pdfrwt>
<pdfrwt beam="2">  1       -2 0.53942711E-02 0.81116917E+02</pdfrwt>
<totfact> 0.12530638E+05</totfact>
</mgrwt>
</event>
<event>
 8    1  0.1319619E-024  0.7842809E+02  0.7818608E-02  0.1333572E+00
         -2   -1    0    0    0  501 -0.00000000000E+00  0.00000000000E+00  0.47570100930E+02  0.47570100999E+02  0.25500000000E-02 0.  1.
          1   -1    0    0  501    0  0.00000000000E+00 -0.00000000000E+00 -0.32325790905E+02  0.32325791298E+02  0.50400000000E-02 0. -1.
        -24    2    1    2    0    0  0.00000000000E+00  0.00000000000E+00  0.15244310025E+02  0.79895892297E+02  0.78428085644E+02 0.  0.
         66    2    3    3    0    0 -0.71799241391E+00 -0.23584256320E+02  0.39501714715E+02  0.46055598185E+02  0.19999998752E+01 0.  0.
         13    1    3    3    0    0  0.71799241391E+00  0.23584256320E+02 -0.24257404690E+02  0.33840294112E+02  0.10566000000E+00 0. -1.
         13    1    4    4    0    0  0.13974187670E+00 -0.50478550015E+01  0.74358294943E+01  0.89890540221E+01  0.10566000000E+00 0. -1.
        -13    1    4    4    0    0  0.84612213704E-01 -0.26803435074E+00  0.49246672828E+00  0.57679212368E+00  0.10566000000E+00 0. -1.
        -14    1    4    4    0    0 -0.94234650432E+00 -0.18268366967E+02  0.31573418492E+02  0.36489752039E+02  0.00000000000E+00 0.  1.
<mgrwt>
<rscale>  0 0.78428086E+02</rscale>
<asrwt>0</asrwt>
<pdfrwt beam="1">  1        1 0.49731987E-02 0.78428086E+02</pdfrwt>
<pdfrwt beam="2">  1       -2 0.73184771E-02 0.78428086E+02</pdfrwt>
<totfact> 0.12967199E+05</totfact>
</mgrwt>
</event>
<event>
 8    1  0.1319619E-024  0.7827167E+02  0.7818608E-02  0.1334029E+00
         -2   -1    0    0    0  501 -0.00000000000E+00  0.00000000000E+00  0.91668655401E+01  0.91668658948E+01  0.25500000000E-02 0.  1.
          1   -1    0    0  501    0  0.00000000000E+00 -0.00000000000E+00 -0.16708148569E+03  0.16708148577E+03  0.50400000000E-02 0. -1.
        -24    2    1    2    0    0 -0.35527136788E-14  0.00000000000E+00 -0.15791462015E+03  0.17624835166E+03  0.78271669243E+02 0.  0.
         66    2    3    3    0    0 -0.24193854913E+02  0.85530327170E+01 -0.12549171367E+02  0.28635270099E+02  0.20000018655E+01 0.  0.
         13    1    3    3    0    0  0.24193854913E+02 -0.85530327170E+01 -0.14536544879E+03  0.14761308156E+03  0.10566000000E+00 0. -1.
         13    1    4    4    0    0 -0.32673642085E+01  0.96587241262E+00 -0.10277154774E+01  0.35603288509E+01  0.10566000000E+00 0. -1.
        -13    1    4    4    0    0 -0.67566113775E+01  0.25281356555E+01 -0.40960122233E+01  0.82964900632E+01  0.10566000000E+00 0.  1.
         14    1    4    4    0    0 -0.14169879327E+02  0.50590246489E+01 -0.74254436664E+01  0.16778451185E+02  0.00000000000E+00 0. -1.
<mgrwt>
<rscale>  0 0.78271669E+02</rscale>
<asrwt>0</asrwt>
<pdfrwt beam="1">  1        1 0.25704842E-01 0.78271669E+02</pdfrwt>
<pdfrwt beam="2">  1       -2 0.14102872E-02 0.78271669E+02</pdfrwt>
<totfact> 0.17073507E+05</totfact>
</mgrwt>
</event>
<event>
 8    1  0.1319619E-024  0.7974778E+02  0.7818608E-02  0.1329769E+00
          1   -1    0    0  501    0  0.00000000000E+00  0.00000000000E+00  0.97637891899E+01  0.97637904907E+01  0.50400000000E-02 0. -1.
         -2   -1    0    0    0  501 -0.00000000000E+00 -0.00000000000E+00 -0.16283913117E+03  0.16283913119E+03  0.25500000000E-02 0.  1.
        -24    2    1    2    0    0  0.00000000000E+00  0.00000000000E+00 -0.15307534198E+03  0.17260292169E+03  0.79747778970E+02 0.  0.
         66    2    3    3    0    0  0.37872797813E+02 -0.12253739467E+02 -0.80587787829E+02  0.89904919191E+02  0.20000006106E+01 0.  0.
         13    1    3    3    0    0 -0.37872797813E+02  0.12253739467E+02 -0.72487554156E+02  0.82698002495E+02  0.10566000000E+00 0. -1.
         13    1    4    4    0    0  0.56183719510E+01 -0.16641470414E+01 -0.12450147327E+02  0.13760553086E+02  0.10566000000E+00 0.  1.
        -13    1    4    4    0    0  0.23087136818E+02 -0.70913570777E+01 -0.47117853362E+02  0.52947204848E+02  0.10566000000E+00 0.  1.
         14    1    4    4    0    0  0.91672890433E+01 -0.34982353477E+01 -0.21019787140E+02  0.23197161256E+02  0.00000000000E+00 0. -1.
<mgrwt>
<rscale>  0 0.79747779E+02</rscale>
<asrwt>0</asrwt>
<pdfrwt beam="1">  1        1 0.15021216E-02 0.79747779E+02</pdfrwt>
<pdfrwt beam="2">  1       -2 0.25052172E-01 0.79747779E+02</pdfrwt>
<totfact> 0.92670339E+04</totfact>
</mgrwt>
</event>
<event>
 8    1  0.1319619E-024  0.7957813E+02  0.7818608E-02  0.1330253E+00
          1   -1    0    0  501    0  0.00000000000E+00  0.00000000000E+00  0.12876944339E+03  0.12876944349E+03  0.50400000000E-02 0. -1.
         -2   -1    0    0    0  501 -0.00000000000E+00 -0.00000000000E+00 -0.12294606840E+02  0.12294607105E+02  0.25500000000E-02 0.  1.
        -24    2    1    2    0    0  0.00000000000E+00  0.17763568394E-14  0.11647483655E+03  0.14106405060E+03  0.79578130291E+02 0.  0.
         66    2    3    3    0    0  0.38149890826E+02 -0.10984910961E+02  0.54277843130E+02  0.67276791576E+02  0.19999977669E+01 0.  0.
         13    1    3    3    0    0 -0.38149890826E+02  0.10984910961E+02  0.62196993421E+02  0.73787259019E+02  0.10566000000E+00 0. -1.
         13    1    4    4    0    0  0.21166799920E+02 -0.62949819978E+01  0.29328738703E+02  0.36713026233E+02  0.10566000000E+00 0. -1.
        -13    1    4    4    0    0  0.52457456927E+01 -0.99176621605E+00  0.71126748895E+01  0.88939730278E+01  0.10566000000E+00 0. -1.
        -14    1    4    4    0    0  0.11737345213E+02 -0.36981627470E+01  0.17836429538E+02  0.21669792316E+02  0.00000000000E+00 0.  1.
<mgrwt>
<rscale>  0 0.79578130E+02</rscale>
<asrwt>0</asrwt>
<pdfrwt beam="1">  1        1 0.19810684E-01 0.79578130E+02</pdfrwt>
<pdfrwt beam="2">  1       -2 0.18914780E-02 0.79578130E+02</pdfrwt>
<totfact> 0.15576236E+05</totfact>
</mgrwt>
</event>
<event>
 8    1  0.1319619E-024  0.7817163E+02  0.7818608E-02  0.1334322E+00
          1   -1    0    0  501    0  0.00000000000E+00  0.00000000000E+00  0.11555440594E+02  0.11555441693E+02  0.50400000000E-02 0. -1.
         -2   -1    0    0    0  501 -0.00000000000E+00 -0.00000000000E+00 -0.13220620386E+03  0.13220620388E+03  0.25500000000E-02 0.  1.
        -24    2    1    2    0    0 -0.17763568394E-14 -0.88817841970E-15 -0.12065076326E+03  0.14376164558E+03  0.78171632083E+02 0.  0.
         66    2    3    3    0    0  0.94179620398E+01  0.78967127432E+01 -0.12854968062E+03  0.12915137041E+03  0.20000020654E+01 0.  0.
         13    1    3    3    0    0 -0.94179620398E+01 -0.78967127432E+01  0.78989173575E+01  0.14610275172E+02  0.10566000000E+00 0. -1.
         13    1    4    4    0    0  0.87940944443E+00  0.92281601404E+00 -0.96406948649E+01  0.97251792724E+01  0.10566000000E+00 0. -1.
        -13    1    4    4    0    0  0.67910187195E+01  0.53240337929E+01 -0.87067883001E+02  0.87494518030E+02  0.10566000000E+00 0.  1.
         14    1    4    4    0    0  0.17475338759E+01  0.16498629363E+01 -0.31841102757E+02  0.31931673102E+02  0.00000000000E+00 0. -1.
<mgrwt>
<rscale>  0 0.78171632E+02</rscale>
<asrwt>0</asrwt>
<pdfrwt beam="1">  1        1 0.17777603E-02 0.78171632E+02</pdfrwt>
<pdfrwt beam="2">  1       -2 0.20339415E-01 0.78171632E+02</pdfrwt>
<totfact> 0.10435382E+05</totfact>
</mgrwt>
</event>
<event>
 8    1  0.1319619E-024  0.8006827E+02  0.7818608E-02  0.1328858E+00
          1   -1    0    0  501    0  0.00000000000E+00  0.00000000000E+00  0.11098209769E+02  0.11098210913E+02  0.50400000000E-02 0. -1.
         -2   -1    0    0    0  501 -0.00000000000E+00 -0.00000000000E+00 -0.14441356546E+03  0.14441356548E+03  0.25500000000E-02 0.  1.
        -24    2    1    2    0    0 -0.44408920985E-15  0.00000000000E+00 -0.13331535569E+03  0.15551177640E+03  0.80068274209E+02 0.  0.
         66    2    3    3    0    0  0.30845509138E+01 -0.38273881929E+02 -0.88528636272E+02  0.96517997973E+02  0.20000000529E+01 0.  0.
         13    1    3    3    0    0 -0.30845509138E+01  0.38273881929E+02 -0.44786719421E+02  0.58993778424E+02  0.10566000000E+00 0. -1.
         13    1    4    4    0    0  0.90254360190E+00 -0.17038623909E+02 -0.38447229039E+02  0.42063403030E+02  0.10566000000E+00 0.  1.
        -13    1    4    4    0    0  0.58064129101E+00 -0.22992083452E+01 -0.52449060988E+01  0.57570571775E+01  0.10566000000E+00 0. -1.
        -14    1    4    4    0    0  0.16013660209E+01 -0.18936049675E+02 -0.44836501134E+02  0.48697537765E+02  0.00000000000E+00 0.  1.
<mgrwt>
<rscale>  0 0.80068274E+02</rscale>
<asrwt>0</asrwt>
<pdfrwt beam="1">  1        1 0.17074171E-02 0.80068274E+02</pdfrwt>
<pdfrwt beam="2">  1       -2 0.22217470E-01 0.80068274E+02</pdfrwt>
<totfact> 0.95470696E+04</totfact>
</mgrwt>
</event>
<event>
 8    1  0.1319619E-024  0.8086120E+02  0.7818608E-02  0.1326625E+00
          1   -1    0    0  501    0  0.00000000000E+00  0.00000000000E+00  0.15430595057E+02  0.15430595880E+02  0.50400000000E-02 0. -1.
         -2   -1    0    0    0  501 -0.00000000000E+00 -0.00000000000E+00 -0.10593456348E+03  0.10593456351E+03  0.25500000000E-02 0.  1.
        -24    2    1    2    0    0  0.00000000000E+00  0.00000000000E+00 -0.90503968421E+02  0.12136515939E+03  0.80861199679E+02 0.  0.
         66    2    3    3    0    0  0.12750282924E+02 -0.93406996879E+01 -0.10109255750E+03  0.10234023448E+03  0.20000066105E+01 0.  0.
         13    1    3    3    0    0 -0.12750282924E+02  0.93406996879E+01  0.10588589075E+02  0.19024924912E+02  0.10566000000E+00 0. -1.
         13    1    4    4    0    0  0.53973706086E+01 -0.32972958777E+01 -0.42066871010E+02  0.42539823345E+02  0.10566000000E+00 0. -1.
        -13    1    4    4    0    0  0.68998587833E+01 -0.57105603121E+01 -0.53321261266E+02  0.54068351347E+02  0.10566000000E+00 0.  1.
         14    1    4    4    0    0  0.45305353209E+00 -0.33284349816E+00 -0.57044252189E+01  0.57320597847E+01  0.00000000000E+00 0. -1.
<mgrwt>
<rscale>  0 0.80861200E+02</rscale>
<asrwt>0</asrwt>
<pdfrwt beam="1">  1        1 0.23739378E-02 0.80861200E+02</pdfrwt>
<pdfrwt beam="2">  1       -2 0.16297625E-01 0.80861200E+02</pdfrwt>
<totfact> 0.10176035E+05</totfact>
</mgrwt>
</event>
<event>
 8    1  0.1319619E-024  0.7992187E+02  0.7818608E-02  0.1329273E+00
          1   -1    0    0  501    0  0.00000000000E+00  0.00000000000E+00  0.85700994723E+02  0.85700994871E+02  0.50400000000E-02 0. -1.
         -2   -1    0    0    0  501 -0.00000000000E+00 -0.00000000000E+00 -0.18633110569E+02  0.18633110743E+02  0.25500000000E-02 0.  1.
        -24    2    1    2    0    0  0.35527136788E-14  0.00000000000E+00  0.67067884154E+02  0.10433410561E+03  0.79921865028E+02 0.  0.
         66    2    3    3    0    0 -0.26501333010E+02 -0.16789877071E+02  0.12954254299E+01  0.31462656377E+02  0.19999989747E+01 0.  0.
         13    1    3    3    0    0  0.26501333010E+02  0.16789877071E+02  0.65772458725E+02  0.72871449238E+02  0.10566000000E+00 0. -1.
         13    1    4    4    0    0 -0.11477957538E+02 -0.67280047327E+01  0.36343902119E+00  0.13309876366E+02  0.10566000000E+00 0. -1.
        -13    1    4    4    0    0 -0.12953499574E+02 -0.86097663030E+01  0.34943817846E+00  0.15558100722E+02  0.10566000000E+00 0.  1.
         14    1    4    4    0    0 -0.20698758980E+01 -0.14521060352E+01  0.58254823025E+00  0.25946792886E+01  0.00000000000E+00 0. -1.
<mgrwt>
<rscale>  0 0.79921865E+02</rscale>
<asrwt>0</asrwt>
<pdfrwt beam="1">  1        1 0.13184768E-01 0.79921865E+02</pdfrwt>
<pdfrwt beam="2">  1       -2 0.28666324E-02 0.79921865E+02</pdfrwt>
<totfact> 0.14366461E+05</totfact>
</mgrwt>
</event>
<event>
 8    1  0.1319619E-024  0.7862589E+02  0.7818608E-02  0.1332997E+00
          1   -1    0    0  501    0  0.00000000000E+00  0.00000000000E+00  0.60702887495E+02  0.60702887704E+02  0.50400000000E-02 0. -1.
         -2   -1    0    0    0  501 -0.00000000000E+00 -0.00000000000E+00 -0.25460201507E+02  0.25460201635E+02  0.25500000000E-02 0.  1.
        -24    2    1    2    0    0  0.00000000000E+00  0.00000000000E+00  0.35242685988E+02  0.86163089339E+02  0.78625892992E+02 0.  0.
         66    2    3    3    0    0  0.34012926585E+02 -0.19538444365E+02  0.20051766113E+02  0.44098791011E+02  0.20000153267E+01 0.  0.
         13    1    3    3    0    0 -0.34012926585E+02  0.19538444365E+02  0.15190919876E+02  0.42064298328E+02  0.10566000000E+00 0. -1.
         13    1    4    4    0    0  0.92013762704E+01 -0.53592924666E+01  0.60093295513E+01  0.12227450540E+02  0.10566000000E+00 0. -1.
        -13    1    4    4    0    0  0.24410031012E+02 -0.14035478440E+02  0.13990177869E+02  0.31441700175E+02  0.10566000000E+00 0.  1.
        -14    1    4    4    0    0  0.40151930303E+00 -0.14367345788E+00  0.52258692111E-01  0.42964029618E+00  0.00000000000E+00 0.  1.
<mgrwt>
<rscale>  0 0.78625893E+02</rscale>
<asrwt>0</asrwt>
<pdfrwt beam="1">  1        1 0.93389057E-02 0.78625893E+02</pdfrwt>
<pdfrwt beam="2">  1       -2 0.39169541E-02 0.78625893E+02</pdfrwt>
<totfact> 0.14225325E+05</totfact>
</mgrwt>
</event>
<event>
 8    1  0.1319619E-024  0.7861326E+02  0.7818608E-02  0.1333033E+00
         -2   -1    0    0    0  501 -0.00000000000E+00  0.00000000000E+00  0.15031657413E+02  0.15031657629E+02  0.25500000000E-02 0.  1.
          1   -1    0    0  501    0  0.00000000000E+00 -0.00000000000E+00 -0.10278382705E+03  0.10278382717E+03  0.50400000000E-02 0. -1.
        -24    2    1    2    0    0  0.71054273576E-14  0.35527136788E-14 -0.87752169633E+02  0.11781548480E+03  0.78613263404E+02 0.  0.
         66    2    3    3    0    0  0.32405791632E+02  0.19864156231E+02 -0.29046652391E+02  0.47879307088E+02  0.19999995016E+01 0.  0.
         13    1    3    3    0    0 -0.32405791632E+02 -0.19864156231E+02 -0.58705517242E+02  0.69936177711E+02  0.10566000000E+00 0. -1.
         13    1    4    4    0    0  0.48700227230E+01  0.28920569545E+01 -0.39472877378E+01  0.69045897250E+01  0.10566000000E+00 0. -1.
        -13    1    4    4    0    0  0.39636394476E+01  0.24960981529E+01 -0.43742179189E+01  0.64098276183E+01  0.10566000000E+00 0.  1.
        -14    1    4    4    0    0  0.23572129462E+02  0.14476001123E+02 -0.20725146734E+02  0.34564889745E+02  0.00000000000E+00 0.  1.
<mgrwt>
<rscale>  0 0.78613263E+02</rscale>
<asrwt>0</asrwt>
<pdfrwt beam="1">  1        1 0.15812896E-01 0.78613263E+02</pdfrwt>
<pdfrwt beam="2">  1       -2 0.23125628E-02 0.78613263E+02</pdfrwt>
<totfact> 0.15480536E+05</totfact>
</mgrwt>
</event>
<event>
 8    1  0.1319619E-024  0.7977169E+02  0.7818608E-02  0.1329701E+00
          1   -1    0    0  501    0  0.00000000000E+00  0.00000000000E+00  0.86326110701E+01  0.86326125414E+01  0.50400000000E-02 0. -1.
         -2   -1    0    0    0  501 -0.00000000000E+00 -0.00000000000E+00 -0.18428729828E+03  0.18428729830E+03  0.25500000000E-02 0.  1.
        -24    2    1    2    0    0  0.71054273576E-14  0.35527136788E-14 -0.17565468721E+03  0.19291991084E+03  0.79771692093E+02 0.  0.
         66    2    3    3    0    0 -0.33569718117E+02 -0.20472284261E+02 -0.72054266008E+02  0.82108815570E+02  0.19999867737E+01 0.  0.
         13    1    3    3    0    0  0.33569718117E+02  0.20472284261E+02 -0.10360042120E+03  0.11081109527E+03  0.10566000000E+00 0. -1.
         13    1    4    4    0    0 -0.29484572816E+01 -0.14959742746E+01 -0.70989074111E+01  0.78317935263E+01  0.10566000000E+00 0. -1.
        -13    1    4    4    0    0 -0.13637396843E+02 -0.85936264390E+01 -0.28882977326E+02  0.33076676848E+02  0.10566000000E+00 0.  1.
         14    1    4    4    0    0 -0.16983863993E+02 -0.10382683548E+02 -0.36072381271E+02  0.41200345196E+02  0.00000000000E+00 0. -1.
<mgrwt>
<rscale>  0 0.79771692E+02</rscale>
<asrwt>0</asrwt>
<pdfrwt beam="1">  1        1 0.13280943E-02 0.79771692E+02</pdfrwt>
<pdfrwt beam="2">  1       -2 0.28351889E-01 0.79771692E+02</pdfrwt>
<totfact> 0.88511938E+04</totfact>
</mgrwt>
</event>
<event>
 8    1  0.1319619E-024  0.7943213E+02  0.7818608E-02  0.1330671E+00
         -2   -1    0    0    0  501 -0.00000000000E+00  0.00000000000E+00  0.12592159394E+02  0.12592159652E+02  0.25500000000E-02 0.  1.
          1   -1    0    0  501    0  0.00000000000E+00 -0.00000000000E+00 -0.12526571736E+03  0.12526571747E+03  0.50400000000E-02 0. -1.
        -24    2    1    2    0    0 -0.35527136788E-14  0.00000000000E+00 -0.11267355797E+03  0.13785787712E+03  0.79432132149E+02 0.  0.
         66    2    3    3    0    0  0.30926706703E+02  0.23553354555E+02 -0.42472954102E+02  0.57612268853E+02  0.19999984967E+01 0.  0.
         13    1    3    3    0    0 -0.30926706703E+02 -0.23553354555E+02 -0.70200603868E+02  0.80245608265E+02  0.10566000000E+00 0. -1.
         13    1    4    4    0    0  0.71325410854E+01  0.61726861083E+01 -0.96513955821E+01  0.13495769591E+02  0.10566000000E+00 0. -1.
        -13    1    4    4    0    0  0.17322591101E+02  0.13118139196E+02 -0.24283885569E+02  0.32586438909E+02  0.10566000000E+00 0.  1.
         14    1    4    4    0    0  0.64715745169E+01  0.42625292502E+01 -0.85376729515E+01  0.11530060354E+02  0.00000000000E+00 0. -1.
<mgrwt>
<rscale>  0 0.79432132E+02</rscale>
<asrwt>0</asrwt>
<pdfrwt beam="1">  1        1 0.19271648E-01 0.79432132E+02</pdfrwt>
<pdfrwt beam="2">  1       -2 0.19372554E-02 0.79432132E+02</pdfrwt>
<totfact> 0.15576649E+05</totfact>
</mgrwt>
</event>
<event>
 8    1  0.1319619E-024  0.8035239E+02  0.7818608E-02  0.1328054E+00
          1   -1    0    0  501    0  0.00000000000E+00  0.00000000000E+00  0.84806967753E+01  0.84806982730E+01  0.50400000000E-02 0. -1.
         -2   -1    0    0    0  501 -0.00000000000E+00 -0.00000000000E+00 -0.19032947616E+03  0.19032947617E+03  0.25500000000E-02 0.  1.
        -24    2    1    2    0    0  0.00000000000E+00  0.00000000000E+00 -0.18184877938E+03  0.19881017445E+03  0.80352392006E+02 0.  0.
         66    2    3    3    0    0 -0.38788180998E+02  0.45433610265E+01 -0.11405287839E+03  0.12057041173E+03  0.20000003135E+01 0.  0.
         13    1    3    3    0    0  0.38788180998E+02 -0.45433610265E+01 -0.67795900987E+02  0.78239762712E+02  0.10566000000E+00 0. -1.
         13    1    4    4    0    0 -0.90401751608E+01  0.92973087646E+00 -0.25176101636E+02  0.26766330045E+02  0.10566000000E+00 0. -1.
        -13    1    4    4    0    0 -0.26275986718E+02  0.33224251065E+01 -0.79870581731E+02  0.84147412180E+02  0.10566000000E+00 0.  1.
        -14    1    4    4    0    0 -0.34720191197E+01  0.29120504356E+00 -0.90061950273E+01  0.96566695095E+01  0.00000000000E+00 0.  1.
<mgrwt>
<rscale>  0 0.80352392E+02</rscale>
<asrwt>0</asrwt>
<pdfrwt beam="1">  1        1 0.13047228E-02 0.80352392E+02</pdfrwt>
<pdfrwt beam="2">  1       -2 0.29281455E-01 0.80352392E+02</pdfrwt>
<totfact> 0.85794762E+04</totfact>
</mgrwt>
</event>
<event>
 8    1  0.1319619E-024  0.7931518E+02  0.7818608E-02  0.1331006E+00
          1   -1    0    0  501    0  0.00000000000E+00  0.00000000000E+00  0.32596765197E+01  0.32596804160E+01  0.50400000000E-02 0. -1.
         -2   -1    0    0    0  501 -0.00000000000E+00 -0.00000000000E+00 -0.48247844179E+03  0.48247844179E+03  0.25500000000E-02 0.  1.
        -24    2    1    2    0    0  0.00000000000E+00  0.00000000000E+00 -0.47921876527E+03  0.48573812221E+03  0.79315183815E+02 0.  0.
         66    2    3    3    0    0  0.17361939830E+02  0.16520575322E+02 -0.43307051443E+03  0.43373775122E+03  0.20000005452E+01 0.  0.
         13    1    3    3    0    0 -0.17361939830E+02 -0.16520575322E+02 -0.46148250841E+02  0.52000370993E+02  0.10566000000E+00 0. -1.
         13    1    4    4    0    0  0.97240126269E+00  0.12734213331E+01 -0.24217301566E+02  0.24270476413E+02  0.10566000000E+00 0. -1.
        -13    1    4    4    0    0  0.35997605652E+01  0.27379959892E+01 -0.80138435087E+02  0.80266025443E+02  0.10566000000E+00 0.  1.
         14    1    4    4    0    0  0.12789778002E+02  0.12509158000E+02 -0.32871477777E+03  0.32920124936E+03  0.00000000000E+00 0. -1.
<mgrwt>
<rscale>  0 0.79315184E+02</rscale>
<asrwt>0</asrwt>
<pdfrwt beam="1">  1        1 0.50148938E-03 0.79315184E+02</pdfrwt>
<pdfrwt beam="2">  1       -2 0.74227396E-01 0.79315184E+02</pdfrwt>
<totfact> 0.52932099E+04</totfact>
</mgrwt>
</event>
<event>
 8    1  0.1319619E-024  0.7990450E+02  0.7818608E-02  0.1329323E+00
         -2   -1    0    0    0  501 -0.00000000000E+00  0.00000000000E+00  0.12159181597E+02  0.12159181865E+02  0.25500000000E-02 0.  1.
          1   -1    0    0  501    0  0.00000000000E+00 -0.00000000000E+00 -0.13127382794E+03  0.13127382804E+03  0.50400000000E-02 0. -1.
        -24    2    1    2    0    0  0.00000000000E+00  0.00000000000E+00 -0.11911464634E+03  0.14343300990E+03  0.79904501475E+02 0.  0.
         66    2    3    3    0    0  0.32300825547E+02 -0.22189328187E+02 -0.73320281838E+02  0.83159926349E+02  0.20000013039E+01 0.  0.
         13    1    3    3    0    0 -0.32300825547E+02  0.22189328187E+02 -0.45794364503E+02  0.60273083551E+02  0.10566000000E+00 0. -1.
         13    1    4    4    0    0  0.22204291515E+02 -0.15139287135E+02 -0.51934495407E+02  0.58475905754E+02  0.10566000000E+00 0. -1.
        -13    1    4    4    0    0  0.71623408152E+01 -0.47965680982E+01 -0.15322064923E+02  0.17580757351E+02  0.10566000000E+00 0.  1.
         14    1    4    4    0    0  0.29341932166E+01 -0.22534729546E+01 -0.60637215079E+01  0.71032632441E+01  0.00000000000E+00 0. -1.
<mgrwt>
<rscale>  0 0.79904501E+02</rscale>
<asrwt>0</asrwt>
<pdfrwt beam="1">  1        1 0.20195973E-01 0.79904501E+02</pdfrwt>
<pdfrwt beam="2">  1       -2 0.18706434E-02 0.79904501E+02</pdfrwt>
<totfact> 0.15459394E+05</totfact>
</mgrwt>
</event>
<event>
 8    1  0.1319619E-024  0.7860931E+02  0.7818608E-02  0.1333045E+00
         -2   -1    0    0    0  501 -0.00000000000E+00  0.00000000000E+00  0.34246926520E+02  0.34246926615E+02  0.25500000000E-02 0.  1.
          1   -1    0    0  501    0  0.00000000000E+00 -0.00000000000E+00 -0.45109326492E+02  0.45109326774E+02  0.50400000000E-02 0. -1.
        -24    2    1    2    0    0  0.35527136788E-14 -0.35527136788E-14 -0.10862399973E+02  0.79356253389E+02  0.78609307456E+02 0.  0.
         66    2    3    3    0    0 -0.25567745635E+02 -0.24704745768E+02  0.11421764611E+02  0.37396400725E+02  0.20000000204E+01 0.  0.
         13    1    3    3    0    0  0.25567745635E+02  0.24704745768E+02 -0.22284164584E+02  0.41959852663E+02  0.10566000000E+00 0. -1.
         13    1    4    4    0    0 -0.44220851255E+01 -0.46778135289E+01  0.17608013691E+01  0.66744559153E+01  0.10566000000E+00 0. -1.
        -13    1    4    4    0    0 -0.50067835371E+01 -0.38997908556E+01  0.20189821131E+01  0.66606082991E+01  0.10566000000E+00 0.  1.
        -14    1    4    4    0    0 -0.16138876973E+02 -0.16127141383E+02  0.76419811286E+01  0.24061336511E+02  0.00000000000E+00 0.  1.
<mgrwt>
<rscale>  0 0.78609307E+02</rscale>
<asrwt>0</asrwt>
<pdfrwt beam="1">  1        1 0.69398964E-02 0.78609307E+02</pdfrwt>
<pdfrwt beam="2">  1       -2 0.52687580E-02 0.78609307E+02</pdfrwt>
<totfact> 0.13594641E+05</totfact>
</mgrwt>
</event>
<event>
 8    1  0.1319619E-024  0.8127426E+02  0.7818608E-02  0.1325474E+00
         -2   -1    0    0    0  501 -0.00000000000E+00  0.00000000000E+00  0.26492131727E+02  0.26492131850E+02  0.25500000000E-02 0.  1.
          1   -1    0    0  501    0  0.00000000000E+00 -0.00000000000E+00 -0.62334594236E+02  0.62334594440E+02  0.50400000000E-02 0. -1.
        -24    2    1    2    0    0  0.00000000000E+00 -0.17763568394E-14 -0.35842462509E+02  0.88826726290E+02  0.81274259053E+02 0.  0.
         66    2    3    3    0    0 -0.22304831544E+02 -0.69654215252E+01  0.18371324509E+02  0.29791410807E+02  0.19999966157E+01 0.  0.
         13    1    3    3    0    0  0.22304831544E+02  0.69654215252E+01 -0.54213787018E+02  0.59035315482E+02  0.10566000000E+00 0. -1.
         13    1    4    4    0    0 -0.80731222904E+00 -0.35041822488E-01  0.44325081171E+00  0.92769406712E+00  0.10566000000E+00 0. -1.
        -13    1    4    4    0    0 -0.71168174275E+01 -0.23797715469E+01  0.66917974470E+01  0.10055034561E+02  0.10566000000E+00 0.  1.
         14    1    4    4    0    0 -0.14380701887E+02 -0.45506081557E+01  0.11236276250E+02  0.18808682180E+02  0.00000000000E+00 0. -1.
<mgrwt>
<rscale>  0 0.81274259E+02</rscale>
<asrwt>0</asrwt>
<pdfrwt beam="1">  1        1 0.95899376E-02 0.81274259E+02</pdfrwt>
<pdfrwt beam="2">  1       -2 0.40757126E-02 0.81274259E+02</pdfrwt>
<totfact> 0.13039419E+05</totfact>
</mgrwt>
</event>
<event>
 8    1  0.1319619E-024  0.7897103E+02  0.7818608E-02  0.1331997E+00
          1   -1    0    0  501    0  0.00000000000E+00  0.00000000000E+00  0.22921399804E+03  0.22921399810E+03  0.50400000000E-02 0. -1.
         -2   -1    0    0    0  501 -0.00000000000E+00 -0.00000000000E+00 -0.68019651925E+01  0.68019656705E+01  0.25500000000E-02 0.  1.
        -24    2    1    2    0    0  0.00000000000E+00  0.00000000000E+00  0.22241203285E+03  0.23601596377E+03  0.78971025047E+02 0.  0.
         66    2    3    3    0    0  0.15269452427E+02  0.30483887709E+02  0.51903377051E+02  0.62131989654E+02  0.20000004498E+01 0.  0.
         13    1    3    3    0    0 -0.15269452427E+02 -0.30483887709E+02  0.17050865580E+03  0.17388397411E+03  0.10566000000E+00 0. -1.
         13    1    4    4    0    0  0.91981964229E+01  0.19778415659E+02  0.33539923394E+02  0.40009126068E+02  0.10566000000E+00 0.  1.
        -13    1    4    4    0    0  0.11958430660E+01  0.17263380628E+01  0.27131157928E+01  0.34325566399E+01  0.10566000000E+00 0. -1.
        -14    1    4    4    0    0  0.48754129382E+01  0.89791339872E+01  0.15650337864E+02  0.18690306946E+02  0.00000000000E+00 0.  1.
<mgrwt>
<rscale>  0 0.78971025E+02</rscale>
<asrwt>0</asrwt>
<pdfrwt beam="1">  1        1 0.35263690E-01 0.78971025E+02</pdfrwt>
<pdfrwt beam="2">  1       -2 0.10464563E-02 0.78971025E+02</pdfrwt>
<totfact> 0.17719621E+05</totfact>
</mgrwt>
</event>
<event>
 8    1  0.1319619E-024  0.8242945E+02  0.7818608E-02  0.1322295E+00
          1   -1    0    0  501    0  0.00000000000E+00  0.00000000000E+00  0.20068501643E+02  0.20068502276E+02  0.50400000000E-02 0. -1.
         -2   -1    0    0    0  501 -0.00000000000E+00 -0.00000000000E+00 -0.84642767084E+02  0.84642767123E+02  0.25500000000E-02 0.  1.
        -24    2    1    2    0    0  0.88817841970E-15  0.71054273576E-14 -0.64574265441E+02  0.10471126940E+03  0.82429449724E+02 0.  0.
         66    2    3    3    0    0 -0.40693613348E+01 -0.32650209449E+02 -0.63784572768E+02  0.71798799766E+02  0.20000114945E+01 0.  0.
         13    1    3    3    0    0  0.40693613348E+01  0.32650209449E+02 -0.78969267331E+00  0.32912469633E+02  0.10566000000E+00 0. -1.
         13    1    4    4    0    0  0.62974363830E-01 -0.11201108608E+01 -0.22718355874E+01  0.25359446135E+01  0.10566000000E+00 0. -1.
        -13    1    4    4    0    0 -0.17549316329E+00 -0.13902975199E+01 -0.34179060890E+01  0.36955339415E+01  0.10566000000E+00 0.  1.
         14    1    4    4    0    0 -0.39568425354E+01 -0.30139801069E+02 -0.58094831091E+02  0.65567321211E+02  0.00000000000E+00 0. -1.
<mgrwt>
<rscale>  0 0.82429450E+02</rscale>
<asrwt>0</asrwt>
<pdfrwt beam="1">  1        1 0.30874619E-02 0.82429450E+02</pdfrwt>
<pdfrwt beam="2">  1       -2 0.13021964E-01 0.82429450E+02</pdfrwt>
<totfact> 0.10226789E+05</totfact>
</mgrwt>
</event>
<event>
 8    1  0.1319619E-024  0.7910315E+02  0.7818608E-02  0.1331616E+00
          1   -1    0    0  501    0  0.00000000000E+00  0.00000000000E+00  0.10113552153E+02  0.10113553408E+02  0.50400000000E-02 0. -1.
         -2   -1    0    0    0  501 -0.00000000000E+00 -0.00000000000E+00 -0.15467632338E+03  0.15467632340E+03  0.25500000000E-02 0.  1.
        -24    2    1    2    0    0  0.00000000000E+00 -0.35527136788E-14 -0.14456277123E+03  0.16478987681E+03  0.79103152111E+02 0.  0.
         66    2    3    3    0    0 -0.11405210032E+02 -0.29545156078E+02 -0.12159600281E+03  0.12566854402E+03  0.19999984101E+01 0.  0.
         13    1    3    3    0    0  0.11405210032E+02  0.29545156078E+02 -0.22966768418E+02  0.39121332788E+02  0.10566000000E+00 0. -1.
         13    1    4    4    0    0 -0.71359446417E+01 -0.17053109850E+02 -0.73228256383E+02  0.75525617895E+02  0.10566000000E+00 0. -1.
        -13    1    4    4    0    0 -0.40643593221E+01 -0.12209527940E+02 -0.46819119579E+02  0.48555460161E+02  0.10566000000E+00 0.  1.
         14    1    4    4    0    0 -0.20490606788E+00 -0.28251828826E+00 -0.15486268453E+01  0.15874659637E+01  0.00000000000E+00 0. -1.
<mgrwt>
<rscale>  0 0.79103152E+02</rscale>
<asrwt>0</asrwt>
<pdfrwt beam="1">  1        1 0.15559313E-02 0.79103152E+02</pdfrwt>
<pdfrwt beam="2">  1       -2 0.23796356E-01 0.79103152E+02</pdfrwt>
<totfact> 0.96305397E+04</totfact>
</mgrwt>
</event>
<event>
 8    1  0.1319619E-024  0.7835536E+02  0.7818608E-02  0.1333785E+00
         -2   -1    0    0    0  501 -0.00000000000E+00  0.00000000000E+00  0.17880873087E+02  0.17880873268E+02  0.25500000000E-02 0.  1.
          1   -1    0    0  501    0  0.00000000000E+00 -0.00000000000E+00 -0.85839791374E+02  0.85839791521E+02  0.50400000000E-02 0. -1.
        -24    2    1    2    0    0  0.00000000000E+00  0.00000000000E+00 -0.67958918287E+02  0.10372066479E+03  0.78355355463E+02 0.  0.
         66    2    3    3    0    0  0.23161840305E+01 -0.38892004263E+02 -0.28886282273E+02  0.48542455747E+02  0.20000005739E+01 0.  0.
         13    1    3    3    0    0 -0.23161840305E+01  0.38892004263E+02 -0.39072636014E+02  0.55178209043E+02  0.10566000000E+00 0. -1.
         13    1    4    4    0    0  0.76842475719E+00 -0.93425548694E+01 -0.61243642464E+01  0.11197893085E+02  0.10566000000E+00 0. -1.
        -13    1    4    4    0    0  0.16153377896E+01 -0.25040875658E+02 -0.19080307121E+02  0.31523388996E+02  0.10566000000E+00 0.  1.
        -14    1    4    4    0    0 -0.67578516211E-01 -0.45085737359E+01 -0.36816109054E+01  0.58211736657E+01  0.00000000000E+00 0.  1.
<mgrwt>
<rscale>  0 0.78355355E+02</rscale>
<asrwt>0</asrwt>
<pdfrwt beam="1">  1        1 0.13206122E-01 0.78355355E+02</pdfrwt>
<pdfrwt beam="2">  1       -2 0.27509036E-02 0.78355355E+02</pdfrwt>
<totfact> 0.15162910E+05</totfact>
</mgrwt>
</event>
<event>
 8    1  0.1319619E-024  0.8105084E+02  0.7818608E-02  0.1326095E+00
         -2   -1    0    0    0  501 -0.00000000000E+00  0.00000000000E+00  0.31073989057E+03  0.31073989058E+03  0.25500000000E-02 0.  1.
          1   -1    0    0  501    0  0.00000000000E+00 -0.00000000000E+00 -0.52851572456E+01  0.52851596487E+01  0.50400000000E-02 0. -1.
        -24    2    1    2    0    0 -0.71054273576E-14  0.00000000000E+00  0.30545473333E+03  0.31602505023E+03  0.81050837516E+02 0.  0.
         66    2    3    3    0    0 -0.18794948642E+02  0.33866018103E+02  0.19897910235E+03  0.20272355672E+03  0.19999998402E+01 0.  0.
         13    1    3    3    0    0  0.18794948642E+02 -0.33866018103E+02  0.10647563097E+03  0.11330149351E+03  0.10566000000E+00 0. -1.
         13    1    4    4    0    0 -0.10526027074E+02  0.17773745630E+02  0.10866639774E+03  0.11061238828E+03  0.10566000000E+00 0. -1.
        -13    1    4    4    0    0 -0.65399127462E+01  0.11986149458E+02  0.68821153501E+02  0.70162672203E+02  0.10566000000E+00 0.  1.
         14    1    4    4    0    0 -0.17290088221E+01  0.41061230156E+01  0.21491551111E+02  0.21948496233E+02  0.00000000000E+00 0. -1.
<mgrwt>
<rscale>  0 0.81050838E+02</rscale>
<asrwt>0</asrwt>
<pdfrwt beam="1">  1        1 0.81310145E-03 0.81050838E+02</pdfrwt>
<pdfrwt beam="2">  1       -2 0.47806128E-01 0.81050838E+02</pdfrwt>
<totfact> 0.66635452E+04</totfact>
</mgrwt>
</event>
<event>
 8    1  0.1319619E-024  0.8999456E+02  0.7818608E-02  0.1302865E+00
          1   -1    0    0  501    0  0.00000000000E+00  0.00000000000E+00  0.10193075560E+02  0.10193076806E+02  0.50400000000E-02 0. -1.
         -2   -1    0    0    0  501 -0.00000000000E+00 -0.00000000000E+00 -0.19864026976E+03  0.19864026977E+03  0.25500000000E-02 0.  1.
        -24    2    1    2    0    0  0.00000000000E+00  0.22204460493E-15 -0.18844719420E+03  0.20883334658E+03  0.89994564519E+02 0.  0.
         66    2    3    3    0    0 -0.31097889435E+02 -0.13490242357E+01 -0.16960093213E+03  0.17244528052E+03  0.20000000932E+01 0.  0.
         13    1    3    3    0    0  0.31097889435E+02  0.13490242357E+01 -0.18846262068E+02  0.36388066062E+02  0.10566000000E+00 0. -1.
         13    1    4    4    0    0 -0.78679137419E+01 -0.10716945484E+01 -0.41081401868E+02  0.41841908888E+02  0.10566000000E+00 0. -1.
        -13    1    4    4    0    0 -0.68508573574E+01 -0.28339345714E+00 -0.38367229744E+02  0.38975249077E+02  0.10566000000E+00 0.  1.
         14    1    4    4    0    0 -0.16379118336E+02  0.60637697858E-02 -0.90152300517E+02  0.91628122554E+02  0.00000000000E+00 0. -1.
<mgrwt>
<rscale>  0 0.89994565E+02</rscale>
<asrwt>0</asrwt>
<pdfrwt beam="1">  1        1 0.15681657E-02 0.89994565E+02</pdfrwt>
<pdfrwt beam="2">  1       -2 0.30560039E-01 0.89994565E+02</pdfrwt>
<totfact> 0.62902389E+04</totfact>
</mgrwt>
</event>
<event>
 8    1  0.1319619E-024  0.7935099E+02  0.7818608E-02  0.1330903E+00
          1   -1    0    0  501    0  0.00000000000E+00  0.00000000000E+00  0.30552475934E+02  0.30552476349E+02  0.50400000000E-02 0. -1.
         -2   -1    0    0    0  501 -0.00000000000E+00 -0.00000000000E+00 -0.51522655928E+02  0.51522655991E+02  0.25500000000E-02 0.  1.
        -24    2    1    2    0    0 -0.17763568394E-14 -0.71054273576E-14 -0.20970179994E+02  0.82075132340E+02  0.79350985499E+02 0.  0.
         66    2    3    3    0    0  0.14587111262E+02 -0.36502230503E+02 -0.51228575286E+01  0.39691816754E+02  0.20000003378E+01 0.  0.
         13    1    3    3    0    0 -0.14587111262E+02  0.36502230503E+02 -0.15847322466E+02  0.42383315586E+02  0.10566000000E+00 0. -1.
         13    1    4    4    0    0  0.38349144227E+01 -0.10579135514E+02 -0.16190320506E+01  0.11369129504E+02  0.10566000000E+00 0. -1.
        -13    1    4    4    0    0  0.10563242971E+02 -0.25312241438E+02 -0.31981369799E+01  0.27613962281E+02  0.10566000000E+00 0.  1.
         14    1    4    4    0    0  0.18895386855E+00 -0.61085355104E+00 -0.30568849811E+00  0.70872497002E+00  0.00000000000E+00 0. -1.
<mgrwt>
<rscale>  0 0.79350985E+02</rscale>
<asrwt>0</asrwt>
<pdfrwt beam="1">  1        1 0.47003810E-02 0.79350985E+02</pdfrwt>
<pdfrwt beam="2">  1       -2 0.79265625E-02 0.79350985E+02</pdfrwt>
<totfact> 0.12420594E+05</totfact>
</mgrwt>
</event>
<event>
 8    1  0.1319619E-024  0.8095858E+02  0.7818608E-02  0.1326353E+00
          1   -1    0    0  501    0  0.00000000000E+00  0.00000000000E+00  0.94788754741E+01  0.94788768140E+01  0.50400000000E-02 0. -1.
         -2   -1    0    0    0  501 -0.00000000000E+00 -0.00000000000E+00 -0.17286575411E+03  0.17286575413E+03  0.25500000000E-02 0.  1.
        -24    2    1    2    0    0  0.00000000000E+00  0.00000000000E+00 -0.16338687864E+03  0.18234463095E+03  0.80958584001E+02 0.  0.
         66    2    3    3    0    0  0.55945179243E+01 -0.39309746560E+02 -0.99191486101E+02  0.10686208732E+03  0.19999963737E+01 0.  0.
         13    1    3    3    0    0 -0.55945179243E+01  0.39309746560E+02 -0.64195392537E+02  0.75482543628E+02  0.10566000000E+00 0. -1.
         13    1    4    4    0    0  0.28581162603E+01 -0.22582841669E+02 -0.55150772786E+02  0.59663828818E+02  0.10566000000E+00 0. -1.
        -13    1    4    4    0    0  0.20180114200E+01 -0.11844770776E+02 -0.30087772645E+02  0.32398397979E+02  0.10566000000E+00 0.  1.
         14    1    4    4    0    0  0.71839024397E+00 -0.48821341158E+01 -0.13952940671E+02  0.14799860521E+02  0.00000000000E+00 0. -1.
<mgrwt>
<rscale>  0 0.80958584E+02</rscale>
<asrwt>0</asrwt>
<pdfrwt beam="1">  1        1 0.14582888E-02 0.80958584E+02</pdfrwt>
<pdfrwt beam="2">  1       -2 0.26594729E-01 0.80958584E+02</pdfrwt>
<totfact> 0.87263750E+04</totfact>
</mgrwt>
</event>
<event>
 8    1  0.1319619E-024  0.8099477E+02  0.7818608E-02  0.1326252E+00
          1   -1    0    0  501    0  0.00000000000E+00  0.00000000000E+00  0.17055824860E+03  0.17055824867E+03  0.50400000000E-02 0. -1.
         -2   -1    0    0    0  501 -0.00000000000E+00 -0.00000000000E+00 -0.96157064460E+01  0.96157067841E+01  0.25500000000E-02 0.  1.
        -24    2    1    2    0    0  0.00000000000E+00  0.00000000000E+00  0.16094254215E+03  0.18017395546E+03  0.80994767427E+02 0.  0.
         66    2    3    3    0    0  0.23603828146E+02 -0.13757902874E+02  0.14096490983E+02  0.30807980407E+02  0.20000010216E+01 0.  0.
         13    1    3    3    0    0 -0.23603828146E+02  0.13757902874E+02  0.14684605117E+03  0.14936597505E+03  0.10566000000E+00 0. -1.
         13    1    4    4    0    0  0.38714109850E+01 -0.26448828894E+01  0.28892920021E+01  0.55083936699E+01  0.10566000000E+00 0. -1.
        -13    1    4    4    0    0  0.11756154841E+02 -0.63659325359E+01  0.72558670253E+01  0.15211543117E+02  0.10566000000E+00 0.  1.
         14    1    4    4    0    0  0.79762623199E+01 -0.47470874487E+01  0.39513319554E+01  0.10088043619E+02  0.00000000000E+00 0. -1.
<mgrwt>
<rscale>  0 0.80994767E+02</rscale>
<asrwt>0</asrwt>
<pdfrwt beam="1">  1        1 0.26239732E-01 0.80994767E+02</pdfrwt>
<pdfrwt beam="2">  1       -2 0.14793394E-02 0.80994767E+02</pdfrwt>
<totfact> 0.15647719E+05</totfact>
</mgrwt>
</event>
<event>
 8    1  0.1319619E-024  0.7947502E+02  0.7818608E-02  0.1330548E+00
          1   -1    0    0  501    0  0.00000000000E+00  0.00000000000E+00  0.72589246266E+01  0.72589263762E+01  0.50400000000E-02 0. -1.
         -2   -1    0    0    0  501 -0.00000000000E+00 -0.00000000000E+00 -0.21753490158E+03  0.21753490160E+03  0.25500000000E-02 0.  1.
        -24    2    1    2    0    0  0.00000000000E+00  0.35527136788E-14 -0.21027597695E+03  0.22479382797E+03  0.79475018781E+02 0.  0.
         66    2    3    3    0    0  0.38790272683E+01 -0.22365986399E+02 -0.19737046484E+03  0.19868161613E+03  0.19999996970E+01 0.  0.
         13    1    3    3    0    0 -0.38790272683E+01  0.22365986399E+02 -0.12905512118E+02  0.26112211840E+02  0.10566000000E+00 0. -1.
         13    1    4    4    0    0  0.24509985557E-01 -0.20680095196E+01 -0.15118328199E+02  0.15259497884E+02  0.10566000000E+00 0. -1.
        -13    1    4    4    0    0  0.37270660043E+01 -0.18763992523E+02 -0.16680208290E+03  0.16789557606E+03  0.10566000000E+00 0.  1.
        -14    1    4    4    0    0  0.12745127846E+00 -0.15339843562E+01 -0.15450053737E+02  0.15526542188E+02  0.00000000000E+00 0.  1.
<mgrwt>
<rscale>  0 0.79475019E+02</rscale>
<asrwt>0</asrwt>
<pdfrwt beam="1">  1        1 0.11167579E-02 0.79475019E+02</pdfrwt>
<pdfrwt beam="2">  1       -2 0.33466903E-01 0.79475019E+02</pdfrwt>
<totfact> 0.83544746E+04</totfact>
</mgrwt>
</event>
<event>
 8    1  0.1319619E-024  0.7991728E+02  0.7818608E-02  0.1329286E+00
         -2   -1    0    0    0  501 -0.00000000000E+00  0.00000000000E+00  0.34234188201E+02  0.34234188296E+02  0.25500000000E-02 0.  1.
          1   -1    0    0  501    0  0.00000000000E+00 -0.00000000000E+00 -0.46640298096E+02  0.46640298369E+02  0.50400000000E-02 0. -1.
        -24    2    1    2    0    0  0.00000000000E+00  0.71054273576E-14 -0.12406109895E+02  0.80874486665E+02  0.79917276171E+02 0.  0.
         66    2    3    3    0    0 -0.16865570597E+02 -0.36003114990E+02 -0.24182876679E+01  0.39881322388E+02  0.19999999106E+01 0.  0.
         13    1    3    3    0    0  0.16865570597E+02  0.36003114990E+02 -0.99878222275E+01  0.40993164277E+02  0.10566000000E+00 0. -1.
         13    1    4    4    0    0 -0.34886658522E+01 -0.89171902999E+01 -0.75073965099E+00  0.96053030317E+01  0.10566000000E+00 0. -1.
        -13    1    4    4    0    0 -0.66120980799E+01 -0.14644399978E+02 -0.85320372360E+00  0.16090910861E+02  0.10566000000E+00 0.  1.
         14    1    4    4    0    0 -0.67648066654E+01 -0.12441524712E+02 -0.81434429328E+00  0.14185108495E+02  0.00000000000E+00 0. -1.
<mgrwt>
<rscale>  0 0.79917276E+02</rscale>
<asrwt>0</asrwt>
<pdfrwt beam="1">  1        1 0.71754305E-02 0.79917276E+02</pdfrwt>
<pdfrwt beam="2">  1       -2 0.52667982E-02 0.79917276E+02</pdfrwt>
<totfact> 0.13051200E+05</totfact>
</mgrwt>
</event>
<event>
 8    1  0.1319619E-024  0.8057787E+02  0.7818608E-02  0.1327419E+00
         -2   -1    0    0    0  501 -0.00000000000E+00  0.00000000000E+00  0.25575967162E+02  0.25575967289E+02  0.25500000000E-02 0.  1.
          1   -1    0    0  501    0  0.00000000000E+00 -0.00000000000E+00 -0.63465769764E+02  0.63465769964E+02  0.50400000000E-02 0. -1.
        -24    2    1    2    0    0  0.17763568394E-14 -0.35527136788E-14 -0.37889802602E+02  0.89041737252E+02  0.80577874331E+02 0.  0.
         66    2    3    3    0    0 -0.13805282469E+02  0.31419496062E+02  0.43129524137E+01  0.34646385872E+02  0.19999846519E+01 0.  0.
         13    1    3    3    0    0  0.13805282469E+02 -0.31419496062E+02 -0.42202755016E+02  0.54395351380E+02  0.10566000000E+00 0. -1.
         13    1    4    4    0    0 -0.57014530862E+01  0.11802749773E+02  0.19297287397E+01  0.13249395705E+02  0.10566000000E+00 0.  1.
        -13    1    4    4    0    0 -0.66637347982E+01  0.16248395888E+02  0.14821931780E+01  0.17624522435E+02  0.10566000000E+00 0. -1.
         14    1    4    4    0    0 -0.14400945842E+01  0.33683504008E+01  0.90103049597E+00  0.37724677319E+01  0.00000000000E+00 0. -1.
<mgrwt>
<rscale>  0 0.80577874E+02</rscale>
<asrwt>0</asrwt>
<pdfrwt beam="1">  1        1 0.97639646E-02 0.80577874E+02</pdfrwt>
<pdfrwt beam="2">  1       -2 0.39347642E-02 0.80577874E+02</pdfrwt>
<totfact> 0.13390364E+05</totfact>
</mgrwt>
</event>
<event>
 8    1  0.1319619E-024  0.7956926E+02  0.7818608E-02  0.1330278E+00
          1   -1    0    0  501    0  0.00000000000E+00  0.00000000000E+00  0.22328613242E+03  0.22328613248E+03  0.50400000000E-02 0. -1.
         -2   -1    0    0    0  501 -0.00000000000E+00 -0.00000000000E+00 -0.70887378537E+01  0.70887383124E+01  0.25500000000E-02 0.  1.
        -24    2    1    2    0    0  0.17763568394E-14  0.00000000000E+00  0.21619739456E+03  0.23037487079E+03  0.79569263374E+02 0.  0.
         66    2    3    3    0    0 -0.10430439287E+02  0.31562276321E+02  0.45009942369E+02  0.55989876296E+02  0.19999963331E+01 0.  0.
         13    1    3    3    0    0  0.10430439287E+02 -0.31562276321E+02  0.17118745220E+03  0.17438499449E+03  0.10566000000E+00 0. -1.
         13    1    4    4    0    0 -0.36832015473E+00  0.95253265490E+00  0.11039748977E+01  0.15076149393E+01  0.10566000000E+00 0. -1.
        -13    1    4    4    0    0 -0.89505992236E+01  0.27353741125E+02  0.39980169676E+02  0.49262211799E+02  0.10566000000E+00 0.  1.
        -14    1    4    4    0    0 -0.11115199090E+01  0.32560025416E+01  0.39257977952E+01  0.52200495580E+01  0.00000000000E+00 0.  1.
<mgrwt>
<rscale>  0 0.79569263E+02</rscale>
<asrwt>0</asrwt>
<pdfrwt beam="1">  1        1 0.34351715E-01 0.79569263E+02</pdfrwt>
<pdfrwt beam="2">  1       -2 0.10905750E-02 0.79569263E+02</pdfrwt>
<totfact> 0.17280825E+05</totfact>
</mgrwt>
</event>
<event>
 8    1  0.1319619E-024  0.7951535E+02  0.7818608E-02  0.1330432E+00
          1   -1    0    0  501    0  0.00000000000E+00  0.00000000000E+00  0.58085562648E+02  0.58085562866E+02  0.50400000000E-02 0. -1.
         -2   -1    0    0    0  501 -0.00000000000E+00 -0.00000000000E+00 -0.27212832815E+02  0.27212832934E+02  0.25500000000E-02 0.  1.
        -24    2    1    2    0    0 -0.35527136788E-14 -0.35527136788E-14  0.30872729833E+02  0.85298395800E+02  0.79515349957E+02 0.  0.
         66    2    3    3    0    0 -0.16552917819E+02 -0.23300732679E+02 -0.14160907394E+02  0.31960202378E+02  0.20000015326E+01 0.  0.
         13    1    3    3    0    0  0.16552917819E+02  0.23300732679E+02  0.45033637227E+02  0.53338193423E+02  0.10566000000E+00 0. -1.
         13    1    4    4    0    0 -0.74904223555E+01 -0.94445816189E+01 -0.59550266466E+01  0.13445447386E+02  0.10566000000E+00 0. -1.
        -13    1    4    4    0    0 -0.48909892964E+01 -0.69364689141E+01 -0.36561165069E+01  0.92420089397E+01  0.10566000000E+00 0.  1.
         14    1    4    4    0    0 -0.41715061668E+01 -0.69196821457E+01 -0.45497642404E+01  0.92727460518E+01  0.00000000000E+00 0. -1.
<mgrwt>
<rscale>  0 0.79515350E+02</rscale>
<asrwt>0</asrwt>
<pdfrwt beam="1">  1        1 0.89362403E-02 0.79515350E+02</pdfrwt>
<pdfrwt beam="2">  1       -2 0.41865897E-02 0.79515350E+02</pdfrwt>
<totfact> 0.13697691E+05</totfact>
</mgrwt>
</event>
<event>
 8    1  0.1319619E-024  0.7811262E+02  0.7818608E-02  0.1334494E+00
         -2   -1    0    0    0  501 -0.00000000000E+00  0.00000000000E+00  0.79872800374E+01  0.79872804444E+01  0.25500000000E-02 0.  1.
          1   -1    0    0  501    0  0.00000000000E+00 -0.00000000000E+00 -0.19097807336E+03  0.19097807342E+03  0.50400000000E-02 0. -1.
        -24    2    1    2    0    0  0.00000000000E+00 -0.44408920985E-15 -0.18299079332E+03  0.19896535387E+03  0.78112621260E+02 0.  0.
         66    2    3    3    0    0 -0.38807176266E+02 -0.39405887336E+01 -0.95034018217E+02  0.10274721306E+03  0.20000011679E+01 0.  0.
         13    1    3    3    0    0  0.38807176266E+02  0.39405887336E+01 -0.87956775103E+02  0.96218140804E+02  0.10566000000E+00 0. -1.
         13    1    4    4    0    0 -0.95752885181E+00 -0.36875833114E-01 -0.31040709681E+01  0.32503295125E+01  0.10566000000E+00 0. -1.
        -13    1    4    4    0    0 -0.96628150062E+00 -0.17259613780E+00 -0.24673955835E+01  0.26575730218E+01  0.10566000000E+00 0.  1.
        -14    1    4    4    0    0 -0.36883365913E+02 -0.37311167627E+01 -0.89462551666E+02  0.96839310530E+02  0.00000000000E+00 0.  1.
<mgrwt>
<rscale>  0 0.78112621E+02</rscale>
<asrwt>0</asrwt>
<pdfrwt beam="1">  1        1 0.29381239E-01 0.78112621E+02</pdfrwt>
<pdfrwt beam="2">  1       -2 0.12288125E-02 0.78112621E+02</pdfrwt>
<totfact> 0.17606552E+05</totfact>
</mgrwt>
</event>
<event>
 8    1  0.1319619E-024  0.8276898E+02  0.7818608E-02  0.1321372E+00
          1   -1    0    0  501    0  0.00000000000E+00  0.00000000000E+00  0.89112265751E+01  0.89112280004E+01  0.50400000000E-02 0. -1.
         -2   -1    0    0    0  501 -0.00000000000E+00 -0.00000000000E+00 -0.19219307728E+03  0.19219307730E+03  0.25500000000E-02 0.  1.
        -24    2    1    2    0    0  0.00000000000E+00  0.00000000000E+00 -0.18328185071E+03  0.20110430530E+03  0.82768984598E+02 0.  0.
         66    2    3    3    0    0 -0.10313470913E+01 -0.38595977932E+02 -0.12772920939E+03  0.13345210422E+03  0.20000001739E+01 0.  0.
         13    1    3    3    0    0  0.10313470913E+01  0.38595977932E+02 -0.55552641321E+02  0.67652201081E+02  0.10566000000E+00 0. -1.
         13    1    4    4    0    0 -0.10288797870E+01 -0.14122506842E+02 -0.45023495211E+02  0.47197776199E+02  0.10566000000E+00 0. -1.
        -13    1    4    4    0    0 -0.20479950769E+00 -0.32900566961E+01 -0.10638623624E+02  0.11138127874E+02  0.10566000000E+00 0.  1.
        -14    1    4    4    0    0  0.20233220339E+00 -0.21183414394E+02 -0.72067090554E+02  0.75116200148E+02  0.00000000000E+00 0.  1.
<mgrwt>
<rscale>  0 0.82768985E+02</rscale>
<asrwt>0</asrwt>
<pdfrwt beam="1">  1        1 0.13709582E-02 0.82768985E+02</pdfrwt>
<pdfrwt beam="2">  1       -2 0.29568163E-01 0.82768985E+02</pdfrwt>
<totfact> 0.79172433E+04</totfact>
</mgrwt>
</event>
<event>
 8    1  0.1319619E-024  0.8176897E+02  0.7818608E-02  0.1324105E+00
         -2   -1    0    0    0  501 -0.00000000000E+00  0.00000000000E+00  0.79100059929E+02  0.79100059970E+02  0.25500000000E-02 0.  1.
          1   -1    0    0  501    0  0.00000000000E+00 -0.00000000000E+00 -0.21131980919E+02  0.21131981520E+02  0.50400000000E-02 0. -1.
        -24    2    1    2    0    0 -0.71054273576E-14  0.35527136788E-14  0.57968079010E+02  0.10023204149E+03  0.81768966957E+02 0.  0.
         66    2    3    3    0    0 -0.35552152690E+02  0.17404089223E+02  0.41422343944E+02  0.57329472856E+02  0.19999993774E+01 0.  0.
         13    1    3    3    0    0  0.35552152690E+02 -0.17404089223E+02  0.16545735065E+02  0.42902568635E+02  0.10566000000E+00 0. -1.
         13    1    4    4    0    0 -0.53773460713E+01  0.24536235325E+01  0.58377246210E+01  0.83082075080E+01  0.10566000000E+00 0. -1.
        -13    1    4    4    0    0 -0.19604753653E+01  0.58255572323E+00  0.24030286441E+01  0.31573003545E+01  0.10566000000E+00 0.  1.
        -14    1    4    4    0    0 -0.28214331253E+02  0.14367909968E+02  0.33181590679E+02  0.45863964993E+02  0.00000000000E+00 0.  1.
<mgrwt>
<rscale>  0 0.81768967E+02</rscale>
<asrwt>0</asrwt>
<pdfrwt beam="1">  1        1 0.32510741E-02 0.81768967E+02</pdfrwt>
<pdfrwt beam="2">  1       -2 0.12169240E-01 0.81768967E+02</pdfrwt>
<totfact> 0.10595906E+05</totfact>
</mgrwt>
</event>
<event>
 8    1  0.1319619E-024  0.8018192E+02  0.7818608E-02  0.1328536E+00
         -2   -1    0    0    0  501 -0.00000000000E+00  0.00000000000E+00  0.82485483793E+02  0.82485483832E+02  0.25500000000E-02 0.  1.
          1   -1    0    0  501    0  0.00000000000E+00 -0.00000000000E+00 -0.19485670363E+02  0.19485671014E+02  0.50400000000E-02 0. -1.
        -24    2    1    2    0    0 -0.44408920985E-15  0.71054273576E-14  0.62999813430E+02  0.10197115485E+03  0.80181917715E+02 0.  0.
         66    2    3    3    0    0  0.24020379471E+01 -0.36678615061E+02  0.51795327020E+02  0.63544051536E+02  0.19999988681E+01 0.  0.
         13    1    3    3    0    0 -0.24020379471E+01  0.36678615061E+02  0.11204486410E+02  0.38427103310E+02  0.10566000000E+00 0. -1.
         13    1    4    4    0    0  0.15164919421E+01 -0.11070661456E+02  0.15620057971E+02  0.19205641565E+02  0.10566000000E+00 0. -1.
        -13    1    4    4    0    0  0.35759052982E+00 -0.89863457585E+01  0.12036550879E+02  0.15025711370E+02  0.10566000000E+00 0.  1.
         14    1    4    4    0    0  0.52795547518E+00 -0.16621607847E+02  0.24138718170E+02  0.29312698601E+02  0.00000000000E+00 0. -1.
<mgrwt>
<rscale>  0 0.80181918E+02</rscale>
<asrwt>0</asrwt>
<pdfrwt beam="1">  1        1 0.29977956E-02 0.80181918E+02</pdfrwt>
<pdfrwt beam="2">  1       -2 0.12690074E-01 0.80181918E+02</pdfrwt>
<totfact> 0.11037619E+05</totfact>
</mgrwt>
</event>
<event>
 8    1  0.1319619E-024  0.7984305E+02  0.7818608E-02  0.1329497E+00
          1   -1    0    0  501    0  0.00000000000E+00  0.00000000000E+00  0.45725141318E+02  0.45725141596E+02  0.50400000000E-02 0. -1.
         -2   -1    0    0    0  501 -0.00000000000E+00 -0.00000000000E+00 -0.34854525654E+02  0.34854525747E+02  0.25500000000E-02 0.  1.
        -24    2    1    2    0    0  0.00000000000E+00 -0.44408920985E-15  0.10870615664E+02  0.80579667343E+02  0.79843049191E+02 0.  0.
         66    2    3    3    0    0  0.32430798483E+02 -0.31611102289E+01 -0.17794841625E+02  0.37180716736E+02  0.20000001130E+01 0.  0.
         13    1    3    3    0    0 -0.32430798483E+02  0.31611102289E+01  0.28665457289E+02  0.43398950606E+02  0.10566000000E+00 0. -1.
         13    1    4    4    0    0  0.20603495809E+02 -0.10853190628E+01 -0.11132366750E+02  0.23444033580E+02  0.10566000000E+00 0. -1.
        -13    1    4    4    0    0  0.62077169957E+01 -0.12390324964E+01 -0.34682487014E+01  0.72187855569E+01  0.10566000000E+00 0.  1.
         14    1    4    4    0    0  0.56195856784E+01 -0.83675866980E+00 -0.31942261734E+01  0.65178975993E+01  0.00000000000E+00 0. -1.
<mgrwt>
<rscale>  0 0.79843049E+02</rscale>
<asrwt>0</asrwt>
<pdfrwt beam="1">  1        1 0.70346372E-02 0.79843049E+02</pdfrwt>
<pdfrwt beam="2">  1       -2 0.53622347E-02 0.79843049E+02</pdfrwt>
<totfact> 0.13044153E+05</totfact>
</mgrwt>
</event>
<event>
 8    1  0.1319619E-024  0.8207092E+02  0.7818608E-02  0.1323275E+00
         -2   -1    0    0    0  501 -0.00000000000E+00  0.00000000000E+00  0.17331974479E+02  0.17331974667E+02  0.25500000000E-02 0.  1.
          1   -1    0    0  501    0  0.00000000000E+00 -0.00000000000E+00 -0.97156210468E+02  0.97156210599E+02  0.50400000000E-02 0. -1.
        -24    2    1    2    0    0 -0.22204460493E-15  0.00000000000E+00 -0.79824235989E+02  0.11448818527E+03  0.82070920028E+02 0.  0.
         66    2    3    3    0    0 -0.15694471908E+01  0.33663020948E+02 -0.73322819298E+01  0.34545976695E+02  0.20000009238E+01 0.  0.
         13    1    3    3    0    0  0.15694471908E+01 -0.33663020948E+02 -0.72491954059E+02  0.79942208571E+02  0.10566000000E+00 0. -1.
         13    1    4    4    0    0  0.40161020437E-01  0.34381137849E+01 -0.72929737658E+00  0.35164297241E+01  0.10566000000E+00 0.  1.
        -13    1    4    4    0    0  0.29283262838E+00  0.92989277866E+01 -0.18449290175E+01  0.94852905092E+01  0.10566000000E+00 0.  1.
        -14    1    4    4    0    0 -0.19024408396E+01  0.20925979376E+02 -0.47580555357E+01  0.21544256462E+02  0.00000000000E+00 0.  1.
<mgrwt>
<rscale>  0 0.82070920E+02</rscale>
<asrwt>0</asrwt>
<pdfrwt beam="1">  1        1 0.14947109E-01 0.82070920E+02</pdfrwt>
<pdfrwt beam="2">  1       -2 0.26664577E-02 0.82070920E+02</pdfrwt>
<totfact> 0.13649418E+05</totfact>
</mgrwt>
</event>
<event>
 8    1  0.1319619E-024  0.8328203E+02  0.7818608E-02  0.1319987E+00
         -2   -1    0    0    0  501 -0.00000000000E+00  0.00000000000E+00  0.12242553854E+03  0.12242553857E+03  0.25500000000E-02 0.  1.
          1   -1    0    0  501    0  0.00000000000E+00 -0.00000000000E+00 -0.14163499757E+02  0.14163500654E+02  0.50400000000E-02 0. -1.
        -24    2    1    2    0    0 -0.71054273576E-14  0.71054273576E-14  0.10826203879E+03  0.13658903922E+03  0.83282030437E+02 0.  0.
         66    2    3    3    0    0  0.26015411544E+02 -0.32328872988E+02  0.48972793408E+02  0.64220652147E+02  0.20000003879E+01 0.  0.
         13    1    3    3    0    0 -0.26015411544E+02  0.32328872988E+02  0.59289245377E+02  0.72368387076E+02  0.10566000000E+00 0. -1.
         13    1    4    4    0    0  0.50282007660E+01 -0.73131145075E+01  0.10152876111E+02  0.13485418203E+02  0.10566000000E+00 0. -1.
        -13    1    4    4    0    0  0.35434734090E+01 -0.38922755651E+01  0.66339597796E+01  0.84691557589E+01  0.10566000000E+00 0.  1.
         14    1    4    4    0    0  0.17443737369E+02 -0.21123482915E+02  0.32185957517E+02  0.42266078185E+02  0.00000000000E+00 0. -1.
<mgrwt>
<rscale>  0 0.83282030E+02</rscale>
<asrwt>0</asrwt>
<pdfrwt beam="1">  1        1 0.21790001E-02 0.83282030E+02</pdfrwt>
<pdfrwt beam="2">  1       -2 0.18834698E-01 0.83282030E+02</pdfrwt>
<totfact> 0.90702130E+04</totfact>
</mgrwt>
</event>
<event>
 8    1  0.1319619E-024  0.8464493E+02  0.7818608E-02  0.1316364E+00
         -2   -1    0    0    0  501 -0.00000000000E+00  0.00000000000E+00  0.19494513754E+02  0.19494513921E+02  0.25500000000E-02 0.  1.
          1   -1    0    0  501    0  0.00000000000E+00 -0.00000000000E+00 -0.91881794031E+02  0.91881794170E+02  0.50400000000E-02 0. -1.
        -24    2    1    2    0    0  0.00000000000E+00  0.00000000000E+00 -0.72387280277E+02  0.11137630809E+03  0.84644926948E+02 0.  0.
         66    2    3    3    0    0  0.80571426278E+01 -0.41521293890E+02 -0.35555235613E+02  0.55291140071E+02  0.19999993090E+01 0.  0.
         13    1    3    3    0    0 -0.80571426278E+01  0.41521293890E+02 -0.36832044664E+02  0.56085168020E+02  0.10566000000E+00 0. -1.
         13    1    4    4    0    0  0.28630264970E+01 -0.12868635340E+02 -0.11743302577E+02  0.17655452859E+02  0.10566000000E+00 0. -1.
        -13    1    4    4    0    0  0.32596388264E+01 -0.14595181076E+02 -0.12197268489E+02  0.19298421659E+02  0.10566000000E+00 0.  1.
        -14    1    4    4    0    0  0.19344773044E+01 -0.14057477474E+02 -0.11614664548E+02  0.18337265552E+02  0.00000000000E+00 0.  1.
<mgrwt>
<rscale>  0 0.84644927E+02</rscale>
<asrwt>0</asrwt>
<pdfrwt beam="1">  1        1 0.14135660E-01 0.84644927E+02</pdfrwt>
<pdfrwt beam="2">  1       -2 0.29991560E-02 0.84644927E+02</pdfrwt>
<totfact> 0.12430090E+05</totfact>
</mgrwt>
</event>
<event>
 8    1  0.1319619E-024  0.7798083E+02  0.7818608E-02  0.1334881E+00
         -2   -1    0    0    0  501 -0.00000000000E+00  0.00000000000E+00  0.10189525469E+03  0.10189525472E+03  0.25500000000E-02 0.  1.
          1   -1    0    0  501    0  0.00000000000E+00 -0.00000000000E+00 -0.14919755453E+02  0.14919756304E+02  0.50400000000E-02 0. -1.
        -24    2    1    2    0    0 -0.35527136788E-14  0.00000000000E+00  0.86975499236E+02  0.11681501102E+03  0.77980826703E+02 0.  0.
         66    2    3    3    0    0 -0.22866047170E+02 -0.31219378520E+02  0.36693941442E+02  0.53366197587E+02  0.19999994956E+01 0.  0.
         13    1    3    3    0    0  0.22866047170E+02  0.31219378520E+02  0.50281557794E+02  0.63448813437E+02  0.10566000000E+00 0. -1.
         13    1    4    4    0    0 -0.51363647473E+01 -0.71543496946E+01  0.91973379378E+01  0.12734565228E+02  0.10566000000E+00 0. -1.
        -13    1    4    4    0    0 -0.92381188235E+01 -0.13236758795E+02  0.14280280648E+02  0.21552081158E+02  0.10566000000E+00 0.  1.
        -14    1    4    4    0    0 -0.84915635996E+01 -0.10828270030E+02  0.13216322856E+02  0.19079551201E+02  0.00000000000E+00 0.  1.
<mgrwt>
<rscale>  0 0.77980827E+02</rscale>
<asrwt>0</asrwt>
<pdfrwt beam="1">  1        1 0.22953469E-02 0.77980827E+02</pdfrwt>
<pdfrwt beam="2">  1       -2 0.15676194E-01 0.77980827E+02</pdfrwt>
<totfact> 0.11277236E+05</totfact>
</mgrwt>
</event>
<event>
 8    1  0.1319619E-024  0.7983699E+02  0.7818608E-02  0.1329515E+00
          1   -1    0    0  501    0  0.00000000000E+00  0.00000000000E+00  0.53807125785E+01  0.53807149390E+01  0.50400000000E-02 0. -1.
         -2   -1    0    0    0  501 -0.00000000000E+00 -0.00000000000E+00 -0.29614773272E+03  0.29614773273E+03  0.25500000000E-02 0.  1.
        -24    2    1    2    0    0 -0.35527136788E-14  0.00000000000E+00 -0.29076702015E+03  0.30152844767E+03  0.79836988623E+02 0.  0.
         66    2    3    3    0    0 -0.25615398119E+02  0.15080842886E+02 -0.24596159844E+03  0.24775933553E+03  0.19999975255E+01 0.  0.
         13    1    3    3    0    0  0.25615398119E+02 -0.15080842886E+02 -0.44805421705E+02  0.53769112148E+02  0.10566000000E+00 0. -1.
         13    1    4    4    0    0 -0.34392573968E+01  0.19647958600E+01 -0.34048452386E+02  0.34278231987E+02  0.10566000000E+00 0.  1.
        -13    1    4    4    0    0 -0.43566871365E+01  0.22066146482E+01 -0.45493810397E+02  0.45755303730E+02  0.10566000000E+00 0.  1.
        -14    1    4    4    0    0 -0.17819453586E+02  0.10909432378E+02 -0.16641933566E+03  0.16772579981E+03  0.00000000000E+00 0.  1.
<mgrwt>
<rscale>  0 0.79836989E+02</rscale>
<asrwt>0</asrwt>
<pdfrwt beam="1">  1        1 0.82780235E-03 0.79836989E+02</pdfrwt>
<pdfrwt beam="2">  1       -2 0.45561177E-01 0.79836989E+02</pdfrwt>
<totfact> 0.71136979E+04</totfact>
</mgrwt>
</event>
<event>
 8    1  0.1319619E-024  0.8053357E+02  0.7818608E-02  0.1327544E+00
          1   -1    0    0  501    0  0.00000000000E+00  0.00000000000E+00  0.97033660564E+02  0.97033660695E+02  0.50400000000E-02 0. -1.
         -2   -1    0    0    0  501 -0.00000000000E+00 -0.00000000000E+00 -0.16709808404E+02  0.16709808599E+02  0.25500000000E-02 0.  1.
        -24    2    1    2    0    0  0.00000000000E+00  0.00000000000E+00  0.80323852160E+02  0.11374346929E+03  0.80533568039E+02 0.  0.
         66    2    3    3    0    0  0.31401332246E+02  0.18848792834E+02  0.16633917448E+02  0.40274158654E+02  0.19999968764E+01 0.  0.
         13    1    3    3    0    0 -0.31401332246E+02 -0.18848792834E+02  0.63689934712E+02  0.73469310639E+02  0.10566000000E+00 0. -1.
         13    1    4    4    0    0  0.27553656612E+01  0.14462306659E+01  0.18011985920E+01  0.35970965332E+01  0.10566000000E+00 0. -1.
        -13    1    4    4    0    0  0.39302787335E+01  0.21376206388E+01  0.24068735230E+01  0.50814089689E+01  0.10566000000E+00 0.  1.
        -14    1    4    4    0    0  0.24715687851E+02  0.15264941530E+02  0.12425845333E+02  0.31595653152E+02  0.00000000000E+00 0.  1.
<mgrwt>
<rscale>  0 0.80533568E+02</rscale>
<asrwt>0</asrwt>
<pdfrwt beam="1">  1        1 0.14928256E-01 0.80533568E+02</pdfrwt>
<pdfrwt beam="2">  1       -2 0.25707398E-02 0.80533568E+02</pdfrwt>
<totfact> 0.14364334E+05</totfact>
</mgrwt>
</event>
<event>
 8    1  0.1319619E-024  0.8041477E+02  0.7818608E-02  0.1327878E+00
          1   -1    0    0  501    0  0.00000000000E+00  0.00000000000E+00  0.33506988236E+02  0.33506988615E+02  0.50400000000E-02 0. -1.
         -2   -1    0    0    0  501 -0.00000000000E+00 -0.00000000000E+00 -0.48247660943E+02  0.48247661011E+02  0.25500000000E-02 0.  1.
        -24    2    1    2    0    0  0.00000000000E+00 -0.35527136788E-14 -0.14740672707E+02  0.81754649626E+02  0.80414770432E+02 0.  0.
         66    2    3    3    0    0  0.33512865726E+01 -0.31231694959E+02 -0.32851935278E+02  0.45496148724E+02  0.20000013874E+01 0.  0.
         13    1    3    3    0    0 -0.33512865726E+01  0.31231694959E+02  0.18111262571E+02  0.36258500902E+02  0.10566000000E+00 0. -1.
         13    1    4    4    0    0  0.25947953056E+00 -0.26176560863E+01 -0.32057060151E+01  0.41481523722E+01  0.10566000000E+00 0. -1.
        -13    1    4    4    0    0  0.10017829178E+01 -0.61111998442E+01 -0.71634783081E+01  0.94697897578E+01  0.10566000000E+00 0.  1.
         14    1    4    4    0    0  0.20900241242E+01 -0.22502839029E+02 -0.22482750955E+02  0.31878206594E+02  0.00000000000E+00 0. -1.
<mgrwt>
<rscale>  0 0.80414770E+02</rscale>
<asrwt>0</asrwt>
<pdfrwt beam="1">  1        1 0.51549213E-02 0.80414770E+02</pdfrwt>
<pdfrwt beam="2">  1       -2 0.74227171E-02 0.80414770E+02</pdfrwt>
<totfact> 0.12148670E+05</totfact>
</mgrwt>
</event>
<event>
 8    1  0.1319619E-024  0.7933225E+02  0.7818608E-02  0.1330957E+00
         -2   -1    0    0    0  501 -0.00000000000E+00  0.00000000000E+00  0.69199247714E+02  0.69199247761E+02  0.25500000000E-02 0.  1.
          1   -1    0    0  501    0  0.00000000000E+00 -0.00000000000E+00 -0.22737264057E+02  0.22737264616E+02  0.50400000000E-02 0. -1.
        -24    2    1    2    0    0  0.00000000000E+00  0.00000000000E+00  0.46461983657E+02  0.91936512376E+02  0.79332253104E+02 0.  0.
         66    2    3    3    0    0 -0.33282281508E+02 -0.13323740488E+02  0.42849773384E+02  0.55904699349E+02  0.20000018235E+01 0.  0.
         13    1    3    3    0    0  0.33282281508E+02  0.13323740488E+02  0.36122102727E+01  0.36031813027E+02  0.10566000000E+00 0. -1.
         13    1    4    4    0    0 -0.13186997756E+02 -0.47095394091E+01  0.17563208476E+02  0.22462282325E+02  0.10566000000E+00 0. -1.
        -13    1    4    4    0    0 -0.11291802032E+02 -0.43904383691E+01  0.14379336061E+02  0.18803117077E+02  0.10566000000E+00 0.  1.
        -14    1    4    4    0    0 -0.88034817203E+01 -0.42237627094E+01  0.10907228847E+02  0.14639299947E+02  0.00000000000E+00 0.  1.
<mgrwt>
<rscale>  0 0.79332253E+02</rscale>
<asrwt>0</asrwt>
<pdfrwt beam="1">  1        1 0.34980407E-02 0.79332253E+02</pdfrwt>
<pdfrwt beam="2">  1       -2 0.10646038E-01 0.79332253E+02</pdfrwt>
<totfact> 0.11765390E+05</totfact>
</mgrwt>
</event>
<event>
 8    1  0.1319619E-024  0.7292629E+02  0.7818608E-02  0.1350416E+00
         -2   -1    0    0    0  501 -0.00000000000E+00  0.00000000000E+00  0.38908862574E+03  0.38908862575E+03  0.25500000000E-02 0.  1.
          1   -1    0    0  501    0  0.00000000000E+00 -0.00000000000E+00 -0.34171143005E+01  0.34171180173E+01  0.50400000000E-02 0. -1.
        -24    2    1    2    0    0  0.00000000000E+00  0.00000000000E+00  0.38567151144E+03  0.39250574377E+03  0.72926292605E+02 0.  0.
         66    2    3    3    0    0 -0.36372671869E+02 -0.19707575041E+01  0.18847389043E+03  0.19197203578E+03  0.20000005980E+01 0.  0.
         13    1    3    3    0    0  0.36372671869E+02  0.19707575041E+01  0.19719762101E+03  0.20053370799E+03  0.10566000000E+00 0. -1.
         13    1    4    4    0    0 -0.11421573850E+02 -0.15048349969E+00  0.61263631019E+02  0.62319488478E+02  0.10566000000E+00 0. -1.
        -13    1    4    4    0    0 -0.23724378323E+02 -0.19741512929E+01  0.12139465395E+03  0.12370697867E+03  0.10566000000E+00 0.  1.
        -14    1    4    4    0    0 -0.12267196961E+01  0.15387728846E+00  0.58156054596E+01  0.59455686267E+01  0.00000000000E+00 0.  1.
<mgrwt>
<rscale>  0 0.72926293E+02</rscale>
<asrwt>0</asrwt>
<pdfrwt beam="1">  1        1 0.52570985E-03 0.72926293E+02</pdfrwt>
<pdfrwt beam="2">  1       -2 0.59859826E-01 0.72926293E+02</pdfrwt>
<totfact> 0.76365109E+04</totfact>
</mgrwt>
</event>
<event>
 8    1  0.1319619E-024  0.7810345E+02  0.7818608E-02  0.1334521E+00
         -2   -1    0    0    0  501 -0.00000000000E+00  0.00000000000E+00  0.10467552963E+03  0.10467552966E+03  0.25500000000E-02 0.  1.
          1   -1    0    0  501    0  0.00000000000E+00 -0.00000000000E+00 -0.14569184649E+02  0.14569185521E+02  0.50400000000E-02 0. -1.
        -24    2    1    2    0    0  0.00000000000E+00  0.00000000000E+00  0.90106344981E+02  0.11924471518E+03  0.78103448663E+02 0.  0.
         66    2    3    3    0    0  0.85919942133E+00 -0.21091892148E+02  0.95197048730E+02  0.97529914545E+02  0.20000015668E+01 0.  0.
         13    1    3    3    0    0 -0.85919942133E+00  0.21091892148E+02 -0.50907037487E+01  0.21714800637E+02  0.10566000000E+00 0. -1.
         13    1    4    4    0    0 -0.39374798201E-01 -0.45754528518E+01  0.20904009082E+02  0.21399184071E+02  0.10566000000E+00 0. -1.
        -13    1    4    4    0    0  0.37073448033E+00 -0.15213421119E+02  0.67667278233E+02  0.69357460548E+02  0.10566000000E+00 0.  1.
        -14    1    4    4    0    0  0.52783973920E+00 -0.13030181772E+01  0.66257614156E+01  0.67732699265E+01  0.00000000000E+00 0.  1.
<mgrwt>
<rscale>  0 0.78103449E+02</rscale>
<asrwt>0</asrwt>
<pdfrwt beam="1">  1        1 0.22414131E-02 0.78103449E+02</pdfrwt>
<pdfrwt beam="2">  1       -2 0.16103927E-01 0.78103449E+02</pdfrwt>
<totfact> 0.11155916E+05</totfact>
</mgrwt>
</event>
<event>
 8    1  0.1319619E-024  0.8039450E+02  0.7818608E-02  0.1327936E+00
         -2   -1    0    0    0  501 -0.00000000000E+00  0.00000000000E+00  0.23670294153E+02  0.23670294290E+02  0.25500000000E-02 0.  1.
          1   -1    0    0  501    0  0.00000000000E+00 -0.00000000000E+00 -0.68263568276E+02  0.68263568462E+02  0.50400000000E-02 0. -1.
        -24    2    1    2    0    0 -0.71054273576E-14  0.00000000000E+00 -0.44593274123E+02  0.91933862752E+02  0.80394496226E+02 0.  0.
         66    2    3    3    0    0  0.29872097077E+02  0.44903856631E+01  0.79729303819E+01  0.31306123496E+02  0.20000005764E+01 0.  0.
         13    1    3    3    0    0 -0.29872097077E+02 -0.44903856631E+01 -0.52566204505E+02  0.60627739256E+02  0.10566000000E+00 0. -1.
         13    1    4    4    0    0  0.97653669911E+01  0.10721761001E+01  0.32993529604E+01  0.10363824007E+02  0.10566000000E+00 0. -1.
        -13    1    4    4    0    0  0.19669850197E+01  0.52314684876E+00  0.30667056480E+00  0.20610491415E+01  0.10566000000E+00 0.  1.
         14    1    4    4    0    0  0.18139745066E+02  0.28950627143E+01  0.43669068567E+01  0.18881250347E+02  0.00000000000E+00 0. -1.
<mgrwt>
<rscale>  0 0.80394496E+02</rscale>
<asrwt>0</asrwt>
<pdfrwt beam="1">  1        1 0.10502087E-01 0.80394496E+02</pdfrwt>
<pdfrwt beam="2">  1       -2 0.36415838E-02 0.80394496E+02</pdfrwt>
<totfact> 0.13630581E+05</totfact>
</mgrwt>
</event>
<event>
 8    1  0.1319619E-024  0.7703497E+02  0.7818608E-02  0.1337683E+00
          1   -1    0    0  501    0  0.00000000000E+00  0.00000000000E+00  0.59274877938E+02  0.59274878152E+02  0.50400000000E-02 0. -1.
         -2   -1    0    0    0  501 -0.00000000000E+00 -0.00000000000E+00 -0.25029098141E+02  0.25029098271E+02  0.25500000000E-02 0.  1.
        -24    2    1    2    0    0  0.00000000000E+00  0.00000000000E+00  0.34245779796E+02  0.84303976423E+02  0.77034972622E+02 0.  0.
         66    2    3    3    0    0  0.20576551805E+01  0.15525839921E+02 -0.21344545216E+02  0.26549486995E+02  0.19999997876E+01 0.  0.
         13    1    3    3    0    0 -0.20576551805E+01 -0.15525839921E+02  0.55590325012E+02  0.57754489428E+02  0.10566000000E+00 0. -1.
         13    1    4    4    0    0  0.11702035799E+01  0.57455276859E+01 -0.69279396935E+01  0.90767823175E+01  0.10566000000E+00 0. -1.
        -13    1    4    4    0    0  0.55050374817E+00  0.79210074833E+01 -0.10974962212E+02  0.13546452433E+02  0.10566000000E+00 0.  1.
        -14    1    4    4    0    0  0.33694785240E+00  0.18593047522E+01 -0.34416433097E+01  0.39262522446E+01  0.00000000000E+00 0.  1.
<mgrwt>
<rscale>  0 0.77034973E+02</rscale>
<asrwt>0</asrwt>
<pdfrwt beam="1">  1        1 0.91192119E-02 0.77034973E+02</pdfrwt>
<pdfrwt beam="2">  1       -2 0.38506305E-02 0.77034973E+02</pdfrwt>
<totfact> 0.14991449E+05</totfact>
</mgrwt>
</event>
<event>
 8    1  0.1319619E-024  0.8265140E+02  0.7818608E-02  0.1321691E+00
          1   -1    0    0  501    0  0.00000000000E+00  0.00000000000E+00  0.12830703279E+02  0.12830704269E+02  0.50400000000E-02 0. -1.
         -2   -1    0    0    0  501 -0.00000000000E+00 -0.00000000000E+00 -0.13310364846E+03  0.13310364848E+03  0.25500000000E-02 0.  1.
        -24    2    1    2    0    0  0.00000000000E+00  0.88817841970E-15 -0.12027294518E+03  0.14593435275E+03  0.82651400295E+02 0.  0.
         66    2    3    3    0    0 -0.85772457264E+01  0.64448336835E+01 -0.13059254573E+03  0.13104777003E+03  0.20000010532E+01 0.  0.
         13    1    3    3    0    0  0.85772457264E+01 -0.64448336835E+01  0.10319600552E+02  0.14886582719E+02  0.10566000000E+00 0. -1.
         13    1    4    4    0    0 -0.53342619619E+00  0.54462996934E+00 -0.11811253618E+02  0.11836301846E+02  0.10566000000E+00 0. -1.
        -13    1    4    4    0    0 -0.15388088820E+01  0.19376769613E+01 -0.32880785164E+02  0.32973924877E+02  0.10566000000E+00 0.  1.
        -14    1    4    4    0    0 -0.65050106482E+01  0.39625267529E+01 -0.85900506948E+02  0.86237543307E+02  0.00000000000E+00 0.  1.
<mgrwt>
<rscale>  0 0.82651400E+02</rscale>
<asrwt>0</asrwt>
<pdfrwt beam="1">  1        1 0.19739545E-02 0.82651400E+02</pdfrwt>
<pdfrwt beam="2">  1       -2 0.20477483E-01 0.82651400E+02</pdfrwt>
<totfact> 0.90242713E+04</totfact>
</mgrwt>
</event>
<event>
 8    1  0.1319619E-024  0.8105980E+02  0.7818608E-02  0.1326070E+00
         -2   -1    0    0    0  501 -0.00000000000E+00  0.00000000000E+00  0.25452647580E+02  0.25452647707E+02  0.25500000000E-02 0.  1.
          1   -1    0    0  501    0  0.00000000000E+00 -0.00000000000E+00 -0.64538385413E+02  0.64538385610E+02  0.50400000000E-02 0. -1.
        -24    2    1    2    0    0  0.00000000000E+00  0.00000000000E+00 -0.39085737834E+02  0.89991033317E+02  0.81059799997E+02 0.  0.
         66    2    3    3    0    0 -0.17594442590E+02  0.12928048835E+02  0.18321293681E+02  0.28572165792E+02  0.19999997925E+01 0.  0.
         13    1    3    3    0    0  0.17594442590E+02 -0.12928048835E+02 -0.57407031515E+02  0.61418867526E+02  0.10566000000E+00 0. -1.
         13    1    4    4    0    0 -0.27533370759E+01  0.16921114598E+01  0.25796040277E+01  0.41363785152E+01  0.10566000000E+00 0. -1.
        -13    1    4    4    0    0 -0.34802390965E+01  0.34974556020E+01  0.38351462872E+01  0.62501016741E+01  0.10566000000E+00 0.  1.
        -14    1    4    4    0    0 -0.11360866417E+02  0.77384817735E+01  0.11906543366E+02  0.18185685603E+02  0.00000000000E+00 0.  1.
<mgrwt>
<rscale>  0 0.81059800E+02</rscale>
<asrwt>0</asrwt>
<pdfrwt beam="1">  1        1 0.99289823E-02 0.81059800E+02</pdfrwt>
<pdfrwt beam="2">  1       -2 0.39157920E-02 0.81059800E+02</pdfrwt>
<totfact> 0.13207338E+05</totfact>
</mgrwt>
</event>
<event>
 8    1  0.1319619E-024  0.8501190E+02  0.7818608E-02  0.1315401E+00
          1   -1    0    0  501    0  0.00000000000E+00  0.00000000000E+00  0.68536148288E+01  0.68536166819E+01  0.50400000000E-02 0. -1.
         -2   -1    0    0    0  501 -0.00000000000E+00 -0.00000000000E+00 -0.26362083899E+03  0.26362083900E+03  0.25500000000E-02 0.  1.
        -24    2    1    2    0    0  0.00000000000E+00  0.00000000000E+00 -0.25676722416E+03  0.27047445569E+03  0.85011903721E+02 0.  0.
         66    2    3    3    0    0 -0.23694312085E+01  0.26670235068E+02 -0.23339133531E+03  0.23493069412E+03  0.19999992702E+01 0.  0.
         13    1    3    3    0    0  0.23694312085E+01 -0.26670235068E+02 -0.23375888852E+02  0.35543761569E+02  0.10566000000E+00 0. -1.
         13    1    4    4    0    0 -0.75307540043E+00  0.10478256127E+02 -0.94500204491E+02  0.95082389468E+02  0.10566000000E+00 0. -1.
        -13    1    4    4    0    0 -0.14344627475E+01  0.12244959838E+02 -0.10981218933E+03  0.11050214846E+03  0.10566000000E+00 0.  1.
         14    1    4    4    0    0 -0.18189306056E+00  0.39470191028E+01 -0.29078941491E+02  0.29346156190E+02  0.00000000000E+00 0. -1.
<mgrwt>
<rscale>  0 0.85011904E+02</rscale>
<asrwt>0</asrwt>
<pdfrwt beam="1">  1        1 0.10544026E-02 0.85011904E+02</pdfrwt>
<pdfrwt beam="2">  1       -2 0.40557044E-01 0.85011904E+02</pdfrwt>
<totfact> 0.64214618E+04</totfact>
</mgrwt>
</event>
<event>
 8    1  0.1319619E-024  0.7990061E+02  0.7818608E-02  0.1329334E+00
          1   -1    0    0  501    0  0.00000000000E+00  0.00000000000E+00  0.17749531849E+02  0.17749532564E+02  0.50400000000E-02 0. -1.
         -2   -1    0    0    0  501 -0.00000000000E+00 -0.00000000000E+00 -0.89919380507E+02  0.89919380543E+02  0.25500000000E-02 0.  1.
        -24    2    1    2    0    0  0.00000000000E+00  0.35527136788E-14 -0.72169848658E+02  0.10766891311E+03  0.79900611978E+02 0.  0.
         66    2    3    3    0    0 -0.61604552615E+01  0.23150993083E+02 -0.79146461974E+02  0.82716879380E+02  0.20000003754E+01 0.  0.
         13    1    3    3    0    0  0.61604552615E+01 -0.23150993083E+02  0.69766133161E+01  0.24952033728E+02  0.10566000000E+00 0. -1.
         13    1    4    4    0    0 -0.11513614836E+00  0.62076729841E+00 -0.31510682406E+01  0.32154320805E+01  0.10566000000E+00 0. -1.
        -13    1    4    4    0    0 -0.17780663304E+01  0.63322118549E+01 -0.19959941233E+02  0.21015918845E+02  0.10566000000E+00 0.  1.
         14    1    4    4    0    0 -0.42672527828E+01  0.16198013930E+02 -0.56035452501E+02  0.58485528454E+02  0.00000000000E+00 0. -1.
<mgrwt>
<rscale>  0 0.79900612E+02</rscale>
<asrwt>0</asrwt>
<pdfrwt beam="1">  1        1 0.27306973E-02 0.79900612E+02</pdfrwt>
<pdfrwt beam="2">  1       -2 0.13833751E-01 0.79900612E+02</pdfrwt>
<totfact> 0.10921740E+05</totfact>
</mgrwt>
</event>
<event>
 8    1  0.1319619E-024  0.8151415E+02  0.7818608E-02  0.1324809E+00
         -2   -1    0    0    0  501 -0.00000000000E+00  0.00000000000E+00  0.31317553034E+02  0.31317553138E+02  0.25500000000E-02 0.  1.
          1   -1    0    0  501    0  0.00000000000E+00 -0.00000000000E+00 -0.53041797682E+02  0.53041797922E+02  0.50400000000E-02 0. -1.
        -24    2    1    2    0    0 -0.71054273576E-14  0.00000000000E+00 -0.21724244648E+02  0.84359351059E+02  0.81514154020E+02 0.  0.
         66    2    3    3    0    0  0.38705660262E+02  0.11782951663E+02 -0.15741301579E+02  0.43459805120E+02  0.19999998522E+01 0.  0.
         13    1    3    3    0    0 -0.38705660262E+02 -0.11782951663E+02 -0.59829430694E+01  0.40899545939E+02  0.10566000000E+00 0. -1.
         13    1    4    4    0    0  0.59240407579E+01  0.12217666898E+01 -0.19788496237E+01  0.63650595138E+01  0.10566000000E+00 0. -1.
        -13    1    4    4    0    0  0.20228450800E+02  0.63807647193E+01 -0.81640683303E+01  0.22728122578E+02  0.10566000000E+00 0.  1.
         14    1    4    4    0    0  0.12553168704E+02  0.41804202542E+01 -0.55983836249E+01  0.14366623028E+02  0.00000000000E+00 0. -1.
<mgrwt>
<rscale>  0 0.81514154E+02</rscale>
<asrwt>0</asrwt>
<pdfrwt beam="1">  1        1 0.81602766E-02 0.81514154E+02</pdfrwt>
<pdfrwt beam="2">  1       -2 0.48180851E-02 0.81514154E+02</pdfrwt>
<totfact> 0.12605755E+05</totfact>
</mgrwt>
</event>
<event>
 8    1  0.1319619E-024  0.7967861E+02  0.7818608E-02  0.1329966E+00
         -2   -1    0    0    0  501 -0.00000000000E+00  0.00000000000E+00  0.46475039967E+01  0.46475046963E+01  0.25500000000E-02 0.  1.
          1   -1    0    0  501    0  0.00000000000E+00 -0.00000000000E+00 -0.34151021304E+03  0.34151021308E+03  0.50400000000E-02 0. -1.
        -24    2    1    2    0    0  0.00000000000E+00 -0.44408920985E-15 -0.33686270905E+03  0.34615771778E+03  0.79678609615E+02 0.  0.
         66    2    3    3    0    0 -0.37844030522E+02 -0.36967090595E+01 -0.11725659722E+03  0.12328400506E+03  0.20000020732E+01 0.  0.
         13    1    3    3    0    0  0.37844030522E+02  0.36967090595E+01 -0.21960611183E+03  0.22287371272E+03  0.10566000000E+00 0. -1.
         13    1    4    4    0    0 -0.14270795596E+01 -0.27334495794E+00 -0.56388340089E+01  0.58239923206E+01  0.10566000000E+00 0. -1.
        -13    1    4    4    0    0 -0.19442099381E+02 -0.16044343186E+01 -0.60235413001E+02  0.63315760923E+02  0.10566000000E+00 0.  1.
         14    1    4    4    0    0 -0.16974851581E+02 -0.18189297830E+01 -0.51382350207E+02  0.54144251815E+02  0.00000000000E+00 0. -1.
<mgrwt>
<rscale>  0 0.79678610E+02</rscale>
<asrwt>0</asrwt>
<pdfrwt beam="1">  1        1 0.52540013E-01 0.79678610E+02</pdfrwt>
<pdfrwt beam="2">  1       -2 0.71500094E-03 0.79678610E+02</pdfrwt>
<totfact> 0.18678452E+05</totfact>
</mgrwt>
</event>
<event>
 8    1  0.1319619E-024  0.8005288E+02  0.7818608E-02  0.1328901E+00
          1   -1    0    0  501    0  0.00000000000E+00  0.00000000000E+00  0.38437872542E+01  0.38437905584E+01  0.50400000000E-02 0. -1.
         -2   -1    0    0    0  501 -0.00000000000E+00 -0.00000000000E+00 -0.41680638267E+03  0.41680638268E+03  0.25500000000E-02 0.  1.
        -24    2    1    2    0    0  0.00000000000E+00  0.00000000000E+00 -0.41296259542E+03  0.42065017324E+03  0.80052876470E+02 0.  0.
         66    2    3    3    0    0  0.33904235760E+02 -0.94093333881E+01 -0.30659720641E+03  0.30861607173E+03  0.19999990703E+01 0.  0.
         13    1    3    3    0    0 -0.33904235760E+02  0.94093333881E+01 -0.10636538901E+03  0.11203410151E+03  0.10566000000E+00 0. -1.
         13    1    4    4    0    0  0.50835638015E+01 -0.75337089218E+00 -0.45623567374E+02  0.45912212456E+02  0.10566000000E+00 0. -1.
        -13    1    4    4    0    0  0.71163500911E+01 -0.24386364707E+01 -0.64558405394E+02  0.64995294118E+02  0.10566000000E+00 0.  1.
        -14    1    4    4    0    0  0.21704321867E+02 -0.62173260251E+01 -0.19641523364E+03  0.19770856516E+03  0.00000000000E+00 0.  1.
<mgrwt>
<rscale>  0 0.80052876E+02</rscale>
<asrwt>0</asrwt>
<pdfrwt beam="1">  1        1 0.59135247E-03 0.80052876E+02</pdfrwt>
<pdfrwt beam="2">  1       -2 0.64124023E-01 0.80052876E+02</pdfrwt>
<totfact> 0.57383416E+04</totfact>
</mgrwt>
</event>
<event>
 8    1  0.1319619E-024  0.8009956E+02  0.7818608E-02  0.1328769E+00
          1   -1    0    0  501    0  0.00000000000E+00  0.00000000000E+00  0.23543563785E+03  0.23543563790E+03  0.50400000000E-02 0. -1.
         -2   -1    0    0    0  501 -0.00000000000E+00 -0.00000000000E+00 -0.68128377922E+01  0.68128382694E+01  0.25500000000E-02 0.  1.
        -24    2    1    2    0    0  0.00000000000E+00  0.00000000000E+00  0.22862280006E+03  0.24224847617E+03  0.80099559936E+02 0.  0.
         66    2    3    3    0    0 -0.17429283745E+02 -0.30540305489E+02  0.56563743193E+02  0.66632929013E+02  0.19999983929E+01 0.  0.
         13    1    3    3    0    0  0.17429283745E+02  0.30540305489E+02  0.17205905686E+03  0.17561554716E+03  0.10566000000E+00 0. -1.
         13    1    4    4    0    0 -0.87822336105E-01 -0.45058901754E+00  0.73547806760E+00  0.87340440173E+00  0.10566000000E+00 0.  1.
        -13    1    4    4    0    0 -0.14442984448E+02 -0.24256001367E+02  0.45780223730E+02  0.53784695323E+02  0.10566000000E+00 0.  1.
        -14    1    4    4    0    0 -0.28984769609E+01 -0.58337151046E+01  0.10048041395E+02  0.11974829288E+02  0.00000000000E+00 0.  1.
<mgrwt>
<rscale>  0 0.80099560E+02</rscale>
<asrwt>0</asrwt>
<pdfrwt beam="1">  1        1 0.36220864E-01 0.80099560E+02</pdfrwt>
<pdfrwt beam="2">  1       -2 0.10481290E-02 0.80099560E+02</pdfrwt>
<totfact> 0.17156050E+05</totfact>
</mgrwt>
</event>
<event>
 8    1  0.1319619E-024  0.8082269E+02  0.7818608E-02  0.1326733E+00
          1   -1    0    0  501    0  0.00000000000E+00  0.00000000000E+00  0.30976882409E+02  0.30976882819E+02  0.50400000000E-02 0. -1.
         -2   -1    0    0    0  501 -0.00000000000E+00 -0.00000000000E+00 -0.52719210658E+02  0.52719210720E+02  0.25500000000E-02 0.  1.
        -24    2    1    2    0    0  0.00000000000E+00 -0.35527136788E-14 -0.21742328250E+02  0.83696093539E+02  0.80822690106E+02 0.  0.
         66    2    3    3    0    0  0.33138666950E+02  0.16823846496E+02 -0.27246691095E+02  0.46125862869E+02  0.19999979117E+01 0.  0.
         13    1    3    3    0    0 -0.33138666950E+02 -0.16823846496E+02  0.55043628455E+01  0.37570230669E+02  0.10566000000E+00 0. -1.
         13    1    4    4    0    0  0.98953243190E+01  0.59712328923E+01 -0.80554881369E+01  0.14088119775E+02  0.10566000000E+00 0. -1.
        -13    1    4    4    0    0  0.12981954291E+02  0.60915725927E+01 -0.10577024534E+02  0.17819175230E+02  0.10566000000E+00 0.  1.
         14    1    4    4    0    0  0.10261388340E+02  0.47610410108E+01 -0.86141784243E+01  0.14218567864E+02  0.00000000000E+00 0. -1.
<mgrwt>
<rscale>  0 0.80822690E+02</rscale>
<asrwt>0</asrwt>
<pdfrwt beam="1">  1        1 0.47656743E-02 0.80822690E+02</pdfrwt>
<pdfrwt beam="2">  1       -2 0.81106478E-02 0.80822690E+02</pdfrwt>
<totfact> 0.11811221E+05</totfact>
</mgrwt>
</event>
<event>
 8    1  0.1319619E-024  0.8114541E+02  0.7818608E-02  0.1325832E+00
         -2   -1    0    0    0  501 -0.00000000000E+00  0.00000000000E+00  0.14951760148E+03  0.14951760150E+03  0.25500000000E-02 0.  1.
          1   -1    0    0  501    0  0.00000000000E+00 -0.00000000000E+00 -0.11009702472E+02  0.11009703626E+02  0.50400000000E-02 0. -1.
        -24    2    1    2    0    0  0.00000000000E+00  0.00000000000E+00  0.13850789901E+03  0.16052730513E+03  0.81145410246E+02 0.  0.
         66    2    3    3    0    0  0.38050168972E+02 -0.12677697935E+02  0.81099386047E+02  0.90496683910E+02  0.19999994567E+01 0.  0.
         13    1    3    3    0    0 -0.38050168972E+02  0.12677697935E+02  0.57408512964E+02  0.70030621220E+02  0.10566000000E+00 0. -1.
         13    1    4    4    0    0  0.27851114828E+01 -0.14658466771E+01  0.65496378123E+01  0.72673566006E+01  0.10566000000E+00 0. -1.
        -13    1    4    4    0    0  0.26297861594E+02 -0.84596685233E+01  0.55900231811E+02  0.62353753668E+02  0.10566000000E+00 0.  1.
         14    1    4    4    0    0  0.89671958951E+01 -0.27521827350E+01  0.18649516423E+02  0.20875573641E+02  0.00000000000E+00 0. -1.
<mgrwt>
<rscale>  0 0.81145410E+02</rscale>
<asrwt>0</asrwt>
<pdfrwt beam="1">  1        1 0.16938003E-02 0.81145410E+02</pdfrwt>
<pdfrwt beam="2">  1       -2 0.23002710E-01 0.81145410E+02</pdfrwt>
<totfact> 0.91210171E+04</totfact>
</mgrwt>
</event>
<event>
 8    1  0.1319619E-024  0.8576521E+02  0.7818608E-02  0.1313443E+00
          1   -1    0    0  501    0  0.00000000000E+00  0.00000000000E+00  0.42291620309E+01  0.42291650340E+01  0.50400000000E-02 0. -1.
         -2   -1    0    0    0  501 -0.00000000000E+00 -0.00000000000E+00 -0.43481834852E+03  0.43481834852E+03  0.25500000000E-02 0.  1.
        -24    2    1    2    0    0 -0.17763568394E-14  0.35527136788E-14 -0.43058918649E+03  0.43904751356E+03  0.85765212313E+02 0.  0.
         66    2    3    3    0    0  0.14628904529E+02  0.30416963464E+02 -0.35063099303E+03  0.35225741978E+03  0.19999997884E+01 0.  0.
         13    1    3    3    0    0 -0.14628904529E+02 -0.30416963464E+02 -0.79958193453E+02  0.86790093780E+02  0.10566000000E+00 0. -1.
         13    1    4    4    0    0  0.13528232733E+01  0.17528806188E+01 -0.23958950726E+02  0.24061280207E+02  0.10566000000E+00 0.  1.
        -13    1    4    4    0    0  0.43521650754E+01  0.94963054760E+01 -0.10997494302E+03  0.11046999781E+03  0.10566000000E+00 0.  1.
         14    1    4    4    0    0  0.89239161805E+01  0.19167777370E+02 -0.21669709929E+03  0.21772614177E+03  0.00000000000E+00 0. -1.
<mgrwt>
<rscale>  0 0.85765212E+02</rscale>
<asrwt>0</asrwt>
<pdfrwt beam="1">  1        1 0.65064089E-03 0.85765212E+02</pdfrwt>
<pdfrwt beam="2">  1       -2 0.66895095E-01 0.85765212E+02</pdfrwt>
<totfact> 0.46615805E+04</totfact>
</mgrwt>
</event>
<event>
 8    1  0.1319619E-024  0.7995355E+02  0.7818608E-02  0.1329183E+00
         -2   -1    0    0    0  501 -0.00000000000E+00  0.00000000000E+00  0.45503767987E+02  0.45503768059E+02  0.25500000000E-02 0.  1.
          1   -1    0    0  501    0  0.00000000000E+00 -0.00000000000E+00 -0.35121101437E+02  0.35121101799E+02  0.50400000000E-02 0. -1.
        -24    2    1    2    0    0  0.00000000000E+00  0.00000000000E+00  0.10382666550E+02  0.80624869857E+02  0.79953548232E+02 0.  0.
         66    2    3    3    0    0 -0.20842849469E+02 -0.33537456069E+02  0.11324442938E+02  0.41126978263E+02  0.19999999138E+01 0.  0.
         13    1    3    3    0    0  0.20842849469E+02  0.33537456069E+02 -0.94177638766E+00  0.39497891594E+02  0.10566000000E+00 0. -1.
         13    1    4    4    0    0 -0.29998998494E+01 -0.44761368352E+01  0.11663535494E+01  0.55142311079E+01  0.10566000000E+00 0. -1.
        -13    1    4    4    0    0 -0.21532135351E+01 -0.37103563315E+01  0.79979561779E+00  0.43650784300E+01  0.10566000000E+00 0.  1.
        -14    1    4    4    0    0 -0.15689736085E+02 -0.25350962902E+02  0.93582937705E+01  0.31247668726E+02  0.00000000000E+00 0.  1.
<mgrwt>
<rscale>  0 0.79953548E+02</rscale>
<asrwt>0</asrwt>
<pdfrwt beam="1">  1        1 0.54032464E-02 0.79953548E+02</pdfrwt>
<pdfrwt beam="2">  1       -2 0.70005797E-02 0.79953548E+02</pdfrwt>
<totfact> 0.12448249E+05</totfact>
</mgrwt>
</event>
<event>
 8    1  0.1319619E-024  0.8073176E+02  0.7818608E-02  0.1326988E+00
         -2   -1    0    0    0  501 -0.00000000000E+00  0.00000000000E+00  0.17705903020E+03  0.17705903022E+03  0.25500000000E-02 0.  1.
          1   -1    0    0  501    0  0.00000000000E+00 -0.00000000000E+00 -0.92026048058E+01  0.92026061859E+01  0.50400000000E-02 0. -1.
        -24    2    1    2    0    0 -0.35527136788E-14  0.00000000000E+00  0.16785642540E+03  0.18626163641E+03  0.80731763575E+02 0.  0.
         66    2    3    3    0    0  0.28676016482E+02 -0.26716960187E+02  0.10602353287E+03  0.11305352453E+03  0.20000006451E+01 0.  0.
         13    1    3    3    0    0 -0.28676016482E+02  0.26716960187E+02  0.61832892526E+02  0.73208111880E+02  0.10566000000E+00 0. -1.
         13    1    4    4    0    0  0.10008836501E+01 -0.70741834231E+00  0.26800580833E+01  0.29489123686E+01  0.10566000000E+00 0. -1.
        -13    1    4    4    0    0  0.21161265273E+02 -0.20205665087E+02  0.80392685623E+02  0.85551523161E+02  0.10566000000E+00 0.  1.
        -14    1    4    4    0    0  0.65138675588E+01 -0.58038767578E+01  0.22950789166E+02  0.24553088998E+02  0.00000000000E+00 0.  1.
<mgrwt>
<rscale>  0 0.80731764E+02</rscale>
<asrwt>0</asrwt>
<pdfrwt beam="1">  1        1 0.14157855E-02 0.80731764E+02</pdfrwt>
<pdfrwt beam="2">  1       -2 0.27239849E-01 0.80731764E+02</pdfrwt>
<totfact> 0.87127076E+04</totfact>
</mgrwt>
</event>
<event>
 8    1  0.1319619E-024  0.8010797E+02  0.7818608E-02  0.1328745E+00
         -2   -1    0    0    0  501 -0.00000000000E+00  0.00000000000E+00  0.17905679662E+02  0.17905679844E+02  0.25500000000E-02 0.  1.
          1   -1    0    0  501    0  0.00000000000E+00 -0.00000000000E+00 -0.89598476587E+02  0.89598476729E+02  0.50400000000E-02 0. -1.
        -24    2    1    2    0    0  0.00000000000E+00  0.00000000000E+00 -0.71692796925E+02  0.10750415657E+03  0.80107968078E+02 0.  0.
         66    2    3    3    0    0 -0.27313121160E+01 -0.31865097253E+02 -0.35639703906E+01  0.32241997038E+02  0.19999998173E+01 0.  0.
         13    1    3    3    0    0  0.27313121160E+01  0.31865097253E+02 -0.68128826534E+02  0.75262159534E+02  0.10566000000E+00 0. -1.
         13    1    4    4    0    0 -0.13278462755E+01 -0.64389047039E+01 -0.61235647930E+00  0.66036969956E+01  0.10566000000E+00 0. -1.
        -13    1    4    4    0    0 -0.11394831369E+01 -0.17855272560E+02 -0.20077015762E+01  0.18004199779E+02  0.10566000000E+00 0.  1.
         14    1    4    4    0    0 -0.26398270362E+00 -0.75709199888E+01 -0.94391233504E+00  0.76341002640E+01  0.00000000000E+00 0. -1.
<mgrwt>
<rscale>  0 0.80107968E+02</rscale>
<asrwt>0</asrwt>
<pdfrwt beam="1">  1        1 0.13784381E-01 0.80107968E+02</pdfrwt>
<pdfrwt beam="2">  1       -2 0.27547200E-02 0.80107968E+02</pdfrwt>
<totfact> 0.14380401E+05</totfact>
</mgrwt>
</event>
<event>
 8    1  0.1319619E-024  0.7848984E+02  0.7818608E-02  0.1333393E+00
          1   -1    0    0  501    0  0.00000000000E+00  0.00000000000E+00  0.43386923477E+02  0.43386923770E+02  0.50400000000E-02 0. -1.
         -2   -1    0    0    0  501 -0.00000000000E+00 -0.00000000000E+00 -0.35498337580E+02  0.35498337672E+02  0.25500000000E-02 0.  1.
        -24    2    1    2    0    0  0.00000000000E+00  0.00000000000E+00  0.78885858969E+01  0.78885261441E+02  0.78489838102E+02 0.  0.
         66    2    3    3    0    0 -0.12617509108E+02 -0.36854627565E+02  0.85187891733E+01  0.39925366303E+02  0.19999991036E+01 0.  0.
         13    1    3    3    0    0  0.12617509108E+02  0.36854627565E+02 -0.63020327648E+00  0.38959895139E+02  0.10566000000E+00 0. -1.
         13    1    4    4    0    0 -0.40415861213E+01 -0.12043661693E+02  0.22965390366E+01  0.12910052708E+02  0.10566000000E+00 0. -1.
        -13    1    4    4    0    0 -0.86301398038E+01 -0.24679775417E+02  0.62104201364E+01  0.26872869404E+02  0.10566000000E+00 0.  1.
        -14    1    4    4    0    0  0.54216817073E-01 -0.13119045416E+00  0.11830000303E-01  0.14244419055E+00  0.00000000000E+00 0.  1.
<mgrwt>
<rscale>  0 0.78489838E+02</rscale>
<asrwt>0</asrwt>
<pdfrwt beam="1">  1        1 0.66749114E-02 0.78489838E+02</pdfrwt>
<pdfrwt beam="2">  1       -2 0.54612827E-02 0.78489838E+02</pdfrwt>
<totfact> 0.13569567E+05</totfact>
</mgrwt>
</event>
<event>
 8    1  0.1319619E-024  0.7975705E+02  0.7818608E-02  0.1329742E+00
         -2   -1    0    0    0  501 -0.00000000000E+00  0.00000000000E+00  0.29013899504E+03  0.29013899505E+03  0.25500000000E-02 0.  1.
          1   -1    0    0  501    0  0.00000000000E+00 -0.00000000000E+00 -0.54811540418E+01  0.54811563590E+01  0.50400000000E-02 0. -1.
        -24    2    1    2    0    0  0.00000000000E+00  0.00000000000E+00  0.28465784099E+03  0.29562015141E+03  0.79757052841E+02 0.  0.
         66    2    3    3    0    0  0.22874674341E+02 -0.20788511209E+01  0.26313427765E+03  0.26414242450E+03  0.19999995491E+01 0.  0.
         13    1    3    3    0    0 -0.22874674341E+02  0.20788511209E+01  0.21523563348E+02  0.31477726910E+02  0.10566000000E+00 0. -1.
         13    1    4    4    0    0  0.17446514535E+02 -0.13284214709E+01  0.20578709393E+03  0.20652962201E+03  0.10566000000E+00 0. -1.
        -13    1    4    4    0    0  0.27356857161E+01 -0.26505425246E+00  0.32187047811E+02  0.32304356376E+02  0.10566000000E+00 0.  1.
         14    1    4    4    0    0  0.26924740899E+01 -0.48537539755E+00  0.25160135904E+02  0.25308446114E+02  0.00000000000E+00 0. -1.
<mgrwt>
<rscale>  0 0.79757053E+02</rscale>
<asrwt>0</asrwt>
<pdfrwt beam="1">  1        1 0.84325479E-03 0.79757053E+02</pdfrwt>
<pdfrwt beam="2">  1       -2 0.44636761E-01 0.79757053E+02</pdfrwt>
<totfact> 0.72107693E+04</totfact>
</mgrwt>
</event>
<event>
 8    1  0.1319619E-024  0.8104629E+02  0.7818608E-02  0.1326108E+00
          1   -1    0    0  501    0  0.00000000000E+00  0.00000000000E+00  0.14097471662E+03  0.14097471671E+03  0.50400000000E-02 0. -1.
         -2   -1    0    0    0  501 -0.00000000000E+00 -0.00000000000E+00 -0.11648368151E+02  0.11648368430E+02  0.25500000000E-02 0.  1.
        -24    2    1    2    0    0  0.35527136788E-14  0.11102230246E-15  0.12932634847E+03  0.15262308514E+03  0.81046293618E+02 0.  0.
         66    2    3    3    0    0 -0.26440913721E+02 -0.78514191430E+00  0.69541369476E+01  0.27424412292E+02  0.20000006596E+01 0.  0.
         13    1    3    3    0    0  0.26440913721E+02  0.78514191430E+00  0.12237221152E+03  0.12519867285E+03  0.10566000000E+00 0. -1.
         13    1    4    4    0    0 -0.10417825349E+02  0.10316428822E+00  0.30591806385E+01  0.10858705175E+02  0.10566000000E+00 0. -1.
        -13    1    4    4    0    0 -0.15981073227E+02 -0.91952901603E+00  0.39518089917E+01  0.16488426045E+02  0.10566000000E+00 0.  1.
         14    1    4    4    0    0 -0.42015145368E-01  0.31222813511E-01 -0.56852682654E-01  0.77281071736E-01  0.00000000000E+00 0. -1.
<mgrwt>
<rscale>  0 0.81046294E+02</rscale>
<asrwt>0</asrwt>
<pdfrwt beam="1">  1        1 0.21688418E-01 0.81046294E+02</pdfrwt>
<pdfrwt beam="2">  1       -2 0.17920566E-02 0.81046294E+02</pdfrwt>
<totfact> 0.15075943E+05</totfact>
</mgrwt>
</event>
<event>
 8    1  0.1319619E-024  0.8429541E+02  0.7818608E-02  0.1317285E+00
         -2   -1    0    0    0  501 -0.00000000000E+00  0.00000000000E+00  0.75896282796E+02  0.75896282838E+02  0.25500000000E-02 0.  1.
          1   -1    0    0  501    0  0.00000000000E+00 -0.00000000000E+00 -0.23406007155E+02  0.23406007698E+02  0.50400000000E-02 0. -1.
        -24    2    1    2    0    0  0.71054273576E-14  0.00000000000E+00  0.52490275640E+02  0.99302290536E+02  0.84295408351E+02 0.  0.
         66    2    3    3    0    0  0.36859154651E+02 -0.18055222999E+02  0.37425405861E+02  0.55581016257E+02  0.20000012809E+01 0.  0.
         13    1    3    3    0    0 -0.36859154651E+02  0.18055222999E+02  0.15064869779E+02  0.43721274280E+02  0.10566000000E+00 0. -1.
         13    1    4    4    0    0  0.54939811108E+01 -0.22181625273E+01  0.53322931840E+01  0.79717368295E+01  0.10566000000E+00 0. -1.
        -13    1    4    4    0    0  0.12648751351E+02 -0.56557805744E+01  0.12995998298E+02  0.18996997143E+02  0.10566000000E+00 0.  1.
        -14    1    4    4    0    0  0.18716422190E+02 -0.10181279897E+02  0.19097114379E+02  0.28612282284E+02  0.00000000000E+00 0.  1.
<mgrwt>
<rscale>  0 0.84295408E+02</rscale>
<asrwt>0</asrwt>
<pdfrwt beam="1">  1        1 0.36009243E-02 0.84295408E+02</pdfrwt>
<pdfrwt beam="2">  1       -2 0.11676351E-01 0.84295408E+02</pdfrwt>
<totfact> 0.98924790E+04</totfact>
</mgrwt>
</event>
<event>
 8    1  0.1319619E-024  0.8559512E+02  0.7818608E-02  0.1313884E+00
          1   -1    0    0  501    0  0.00000000000E+00  0.00000000000E+00  0.14623157200E+03  0.14623157208E+03  0.50400000000E-02 0. -1.
         -2   -1    0    0    0  501 -0.00000000000E+00 -0.00000000000E+00 -0.12525551325E+02  0.12525551584E+02  0.25500000000E-02 0.  1.
        -24    2    1    2    0    0  0.00000000000E+00  0.00000000000E+00  0.13370602067E+03  0.15875712367E+03  0.85595118736E+02 0.  0.
         66    2    3    3    0    0 -0.13020220496E+01 -0.31832993040E+02  0.13953042720E+02  0.34838514898E+02  0.20000029561E+01 0.  0.
         13    1    3    3    0    0  0.13020220496E+01  0.31832993040E+02  0.11975297795E+03  0.12391860877E+03  0.10566000000E+00 0. -1.
         13    1    4    4    0    0  0.72291119988E-01 -0.13305352463E+01  0.32029293071E+00  0.13745186957E+01  0.10566000000E+00 0. -1.
        -13    1    4    4    0    0 -0.11542214799E+01 -0.29357892384E+02  0.12905661591E+02  0.32090268581E+02  0.10566000000E+00 0.  1.
        -14    1    4    4    0    0 -0.22009168966E+00 -0.11445654099E+01  0.72708819828E+00  0.13737276213E+01  0.00000000000E+00 0.  1.
<mgrwt>
<rscale>  0 0.85595119E+02</rscale>
<asrwt>0</asrwt>
<pdfrwt beam="1">  1        1 0.22497164E-01 0.85595119E+02</pdfrwt>
<pdfrwt beam="2">  1       -2 0.19270080E-02 0.85595119E+02</pdfrwt>
<totfact> 0.13106599E+05</totfact>
</mgrwt>
</event>
<event>
 8    1  0.1319619E-024  0.7894037E+02  0.7818608E-02  0.1332086E+00
         -2   -1    0    0    0  501 -0.00000000000E+00  0.00000000000E+00  0.27948258016E+03  0.27948258017E+03  0.25500000000E-02 0.  1.
          1   -1    0    0  501    0  0.00000000000E+00 -0.00000000000E+00 -0.55742117540E+01  0.55742140325E+01  0.50400000000E-02 0. -1.
        -24    2    1    2    0    0  0.88817841970E-15 -0.35527136788E-14  0.27390836841E+03  0.28505679420E+03  0.78940367614E+02 0.  0.
         66    2    3    3    0    0 -0.64093434066E+01  0.22627525789E+02  0.25139303727E+03  0.25249860159E+03  0.20000023682E+01 0.  0.
         13    1    3    3    0    0  0.64093434066E+01 -0.22627525789E+02  0.22515331135E+02  0.32558192615E+02  0.10566000000E+00 0. -1.
         13    1    4    4    0    0 -0.20069056003E+01  0.52105221786E+01  0.61981971895E+02  0.62233055650E+02  0.10566000000E+00 0.  1.
        -13    1    4    4    0    0 -0.16858833404E+01  0.68293835451E+01  0.67636487691E+02  0.68001384644E+02  0.10566000000E+00 0. -1.
         14    1    4    4    0    0 -0.27165544660E+01  0.10587620065E+02  0.12177457768E+03  0.12226416129E+03  0.00000000000E+00 0. -1.
<mgrwt>
<rscale>  0 0.78940368E+02</rscale>
<asrwt>0</asrwt>
<pdfrwt beam="1">  1        1 0.85757154E-03 0.78940368E+02</pdfrwt>
<pdfrwt beam="2">  1       -2 0.42997304E-01 0.78940368E+02</pdfrwt>
<totfact> 0.75515879E+04</totfact>
</mgrwt>
</event>
<event>
 8    1  0.1319619E-024  0.7957408E+02  0.7818608E-02  0.1330265E+00
          1   -1    0    0  501    0  0.00000000000E+00  0.00000000000E+00  0.36107691374E+02  0.36107691726E+02  0.50400000000E-02 0. -1.
         -2   -1    0    0    0  501 -0.00000000000E+00 -0.00000000000E+00 -0.43841307530E+02  0.43841307604E+02  0.25500000000E-02 0.  1.
        -24    2    1    2    0    0 -0.35527136788E-14 -0.17763568394E-14 -0.77336161556E+01  0.79948999330E+02  0.79574076652E+02 0.  0.
         66    2    3    3    0    0 -0.19350395656E+02 -0.14674461728E+02 -0.35501322397E+02  0.43059511492E+02  0.19999997364E+01 0.  0.
         13    1    3    3    0    0  0.19350395656E+02  0.14674461728E+02  0.27767706241E+02  0.36889487838E+02  0.10566000000E+00 0. -1.
         13    1    4    4    0    0 -0.56466243597E+01 -0.43249997078E+01 -0.91142975723E+01  0.11561642332E+02  0.10566000000E+00 0. -1.
        -13    1    4    4    0    0 -0.10349365795E+02 -0.80112175153E+01 -0.19394770613E+02  0.23397804803E+02  0.10566000000E+00 0.  1.
        -14    1    4    4    0    0 -0.33544055014E+01 -0.23382445049E+01 -0.69922542120E+01  0.81000643576E+01  0.00000000000E+00 0.  1.
<mgrwt>
<rscale>  0 0.79574077E+02</rscale>
<asrwt>0</asrwt>
<pdfrwt beam="1">  1        1 0.55550295E-02 0.79574077E+02</pdfrwt>
<pdfrwt beam="2">  1       -2 0.67448166E-02 0.79574077E+02</pdfrwt>
<totfact> 0.12675850E+05</totfact>
</mgrwt>
</event>
<event>
 8    1  0.1319619E-024  0.8088876E+02  0.7818608E-02  0.1326548E+00
          1   -1    0    0  501    0  0.00000000000E+00  0.00000000000E+00  0.79409903413E+02  0.79409903573E+02  0.50400000000E-02 0. -1.
         -2   -1    0    0    0  501 -0.00000000000E+00 -0.00000000000E+00 -0.20598787106E+02  0.20598787264E+02  0.25500000000E-02 0.  1.
        -24    2    1    2    0    0  0.00000000000E+00 -0.35527136788E-14  0.58811116307E+02  0.10000869084E+03  0.80888755966E+02 0.  0.
         66    2    3    3    0    0 -0.21842115950E+02  0.31834814089E+02  0.14627794852E+02  0.41334075576E+02  0.20000010501E+01 0.  0.
         13    1    3    3    0    0  0.21842115950E+02 -0.31834814089E+02  0.44183321455E+02  0.58674615262E+02  0.10566000000E+00 0. -1.
         13    1    4    4    0    0 -0.88650103807E+01  0.11344482583E+02  0.55360947131E+01  0.15425472532E+02  0.10566000000E+00 0. -1.
        -13    1    4    4    0    0 -0.59384593129E+01  0.96943548970E+01  0.44983735620E+01  0.12226706205E+02  0.10566000000E+00 0.  1.
         14    1    4    4    0    0 -0.70386462562E+01  0.10795976610E+02  0.45933265765E+01  0.13681896839E+02  0.00000000000E+00 0. -1.
<mgrwt>
<rscale>  0 0.80888756E+02</rscale>
<asrwt>0</asrwt>
<pdfrwt beam="1">  1        1 0.12216908E-01 0.80888756E+02</pdfrwt>
<pdfrwt beam="2">  1       -2 0.31690442E-02 0.80888756E+02</pdfrwt>
<totfact> 0.13732519E+05</totfact>
</mgrwt>
</event>
<event>
 8    1  0.1319619E-024  0.8041055E+02  0.7818608E-02  0.1327890E+00
          1   -1    0    0  501    0  0.00000000000E+00  0.00000000000E+00  0.46536423365E+01  0.46536450657E+01  0.50400000000E-02 0. -1.
         -2   -1    0    0    0  501 -0.00000000000E+00 -0.00000000000E+00 -0.34735452517E+03  0.34735452518E+03  0.25500000000E-02 0.  1.
        -24    2    1    2    0    0  0.17763568394E-14 -0.71054273576E-14 -0.34270088283E+03  0.35200817024E+03  0.80410551698E+02 0.  0.
         66    2    3    3    0    0 -0.13836065743E+02  0.35842842969E+02 -0.22294004493E+03  0.22623529731E+03  0.20000018445E+01 0.  0.
         13    1    3    3    0    0  0.13836065743E+02 -0.35842842969E+02 -0.11976083790E+03  0.12577287293E+03  0.10566000000E+00 0. -1.
         13    1    4    4    0    0 -0.59456810904E+01  0.17466142736E+02 -0.10945601921E+03  0.11100021879E+03  0.10566000000E+00 0. -1.
        -13    1    4    4    0    0 -0.16143389810E+01  0.44823218675E+01 -0.26519247990E+02  0.26943997062E+02  0.10566000000E+00 0.  1.
         14    1    4    4    0    0 -0.62760456718E+01  0.13894378366E+02 -0.86964777731E+02  0.88291081459E+02  0.00000000000E+00 0. -1.
<mgrwt>
<rscale>  0 0.80410552E+02</rscale>
<asrwt>0</asrwt>
<pdfrwt beam="1">  1        1 0.71594546E-03 0.80410552E+02</pdfrwt>
<pdfrwt beam="2">  1       -2 0.53439137E-01 0.80410552E+02</pdfrwt>
<totfact> 0.63760911E+04</totfact>
</mgrwt>
</event>
<event>
 8    1  0.1319619E-024  0.7937323E+02  0.7818608E-02  0.1330840E+00
          1   -1    0    0  501    0  0.00000000000E+00  0.00000000000E+00  0.16213355033E+02  0.16213355817E+02  0.50400000000E-02 0. -1.
         -2   -1    0    0    0  501 -0.00000000000E+00 -0.00000000000E+00 -0.97143833560E+02  0.97143833593E+02  0.25500000000E-02 0.  1.
        -24    2    1    2    0    0  0.00000000000E+00  0.00000000000E+00 -0.80930478527E+02  0.11335718941E+03  0.79373232493E+02 0.  0.
         66    2    3    3    0    0  0.24606083178E+02 -0.18839225961E+02 -0.75840099567E+02  0.81951793597E+02  0.20000017951E+01 0.  0.
         13    1    3    3    0    0 -0.24606083178E+02  0.18839225961E+02 -0.50903789596E+01  0.31405395813E+02  0.10566000000E+00 0. -1.
         13    1    4    4    0    0  0.13353070255E+02 -0.11086633307E+02 -0.42360386157E+02  0.45778066831E+02  0.10566000000E+00 0. -1.
        -13    1    4    4    0    0  0.77743452868E+01 -0.50263032461E+01 -0.23568784840E+02  0.25321985543E+02  0.10566000000E+00 0.  1.
        -14    1    4    4    0    0  0.34786676360E+01 -0.27262894088E+01 -0.99109285699E+01  0.10851741223E+02  0.00000000000E+00 0.  1.
<mgrwt>
<rscale>  0 0.79373232E+02</rscale>
<asrwt>0</asrwt>
<pdfrwt beam="1">  1        1 0.24943624E-02 0.79373232E+02</pdfrwt>
<pdfrwt beam="2">  1       -2 0.14945205E-01 0.79373232E+02</pdfrwt>
<totfact> 0.10905928E+05</totfact>
</mgrwt>
</event>
<event>
 8    1  0.1319619E-024  0.7705698E+02  0.7818608E-02  0.1337617E+00
         -2   -1    0    0    0  501 -0.00000000000E+00  0.00000000000E+00  0.10099452313E+02  0.10099452635E+02  0.25500000000E-02 0.  1.
          1   -1    0    0  501    0  0.00000000000E+00 -0.00000000000E+00 -0.14698266277E+03  0.14698266286E+03  0.50400000000E-02 0. -1.
        -24    2    1    2    0    0  0.00000000000E+00 -0.17763568394E-14 -0.13688321046E+03  0.15708211549E+03  0.77056976988E+02 0.  0.
         66    2    3    3    0    0 -0.18829016212E+02 -0.15497020583E+02 -0.77496344747E+01  0.25666054417E+02  0.20000040920E+01 0.  0.
         13    1    3    3    0    0  0.18829016212E+02  0.15497020583E+02 -0.12913357598E+03  0.13141606108E+03  0.10566000000E+00 0. -1.
         13    1    4    4    0    0 -0.38710234587E+01 -0.34478214662E+01 -0.24318374110E+01  0.57268920637E+01  0.10566000000E+00 0. -1.
        -13    1    4    4    0    0 -0.30728559146E+01 -0.23028912238E+01 -0.87951968315E+00  0.39408717778E+01  0.10566000000E+00 0.  1.
         14    1    4    4    0    0 -0.11885136839E+02 -0.97463078932E+01 -0.44382773805E+01  0.15998290576E+02  0.00000000000E+00 0. -1.
<mgrwt>
<rscale>  0 0.77056977E+02</rscale>
<asrwt>0</asrwt>
<pdfrwt beam="1">  1        1 0.22612716E-01 0.77056977E+02</pdfrwt>
<pdfrwt beam="2">  1       -2 0.15537620E-02 0.77056977E+02</pdfrwt>
<totfact> 0.17383426E+05</totfact>
</mgrwt>
</event>
<event>
 8    1  0.1319619E-024  0.7872792E+02  0.7818608E-02  0.1332701E+00
         -2   -1    0    0    0  501 -0.00000000000E+00  0.00000000000E+00  0.31403732335E+02  0.31403732438E+02  0.25500000000E-02 0.  1.
          1   -1    0    0  501    0  0.00000000000E+00 -0.00000000000E+00 -0.49341945417E+02  0.49341945674E+02  0.50400000000E-02 0. -1.
        -24    2    1    2    0    0 -0.35527136788E-14  0.00000000000E+00 -0.17938213082E+02  0.80745678113E+02  0.78727917826E+02 0.  0.
         66    2    3    3    0    0  0.28053395480E+02 -0.26746822063E+02 -0.20847515204E+01  0.38868131671E+02  0.19999955730E+01 0.  0.
         13    1    3    3    0    0 -0.28053395480E+02  0.26746822063E+02 -0.15853461562E+02  0.41877546441E+02  0.10566000000E+00 0. -1.
         13    1    4    4    0    0  0.10892733794E+02 -0.10509741751E+02 -0.16116468440E+01  0.15222184165E+02  0.10566000000E+00 0. -1.
        -13    1    4    4    0    0  0.11649208409E+02 -0.11064195219E+02 -0.72711369013E+00  0.16082920467E+02  0.10566000000E+00 0.  1.
         14    1    4    4    0    0  0.55114532766E+01 -0.51728850933E+01  0.25400901372E+00  0.75630270387E+01  0.00000000000E+00 0. -1.
<mgrwt>
<rscale>  0 0.78727918E+02</rscale>
<asrwt>0</asrwt>
<pdfrwt beam="1">  1        1 0.75910686E-02 0.78727918E+02</pdfrwt>
<pdfrwt beam="2">  1       -2 0.48313435E-02 0.78727918E+02</pdfrwt>
<totfact> 0.13727949E+05</totfact>
</mgrwt>
</event>
<event>
 8    1  0.1319619E-024  0.8010063E+02  0.7818608E-02  0.1328766E+00
         -2   -1    0    0    0  501 -0.00000000000E+00  0.00000000000E+00  0.27406751942E+02  0.27406752061E+02  0.25500000000E-02 0.  1.
          1   -1    0    0  501    0  0.00000000000E+00 -0.00000000000E+00 -0.58526735676E+02  0.58526735893E+02  0.50400000000E-02 0. -1.
        -24    2    1    2    0    0  0.00000000000E+00  0.71054273576E-14 -0.31119983734E+02  0.85933487954E+02  0.80100630237E+02 0.  0.
         66    2    3    3    0    0  0.43910582589E+01  0.38365473300E+02 -0.26863951544E+02  0.47083572790E+02  0.19999999832E+01 0.  0.
         13    1    3    3    0    0 -0.43910582589E+01 -0.38365473300E+02 -0.42560321902E+01  0.38849915164E+02  0.10566000000E+00 0. -1.
         13    1    4    4    0    0  0.29385819430E+01  0.25844737552E+02 -0.17703986593E+02  0.31464710841E+02  0.10566000000E+00 0. -1.
        -13    1    4    4    0    0  0.15972210436E+01  0.11633417089E+02 -0.86528571154E+01  0.14586658580E+02  0.10566000000E+00 0.  1.
         14    1    4    4    0    0 -0.14474472772E+00  0.88731865935E+00 -0.50710783603E+00  0.10322033699E+01  0.00000000000E+00 0. -1.
<mgrwt>
<rscale>  0 0.80100630E+02</rscale>
<asrwt>0</asrwt>
<pdfrwt beam="1">  1        1 0.90041132E-02 0.80100630E+02</pdfrwt>
<pdfrwt beam="2">  1       -2 0.42164234E-02 0.80100630E+02</pdfrwt>
<totfact> 0.13439191E+05</totfact>
</mgrwt>
</event>
<event>
 8    1  0.1319619E-024  0.7975836E+02  0.7818608E-02  0.1329739E+00
         -2   -1    0    0    0  501 -0.00000000000E+00  0.00000000000E+00  0.15660672536E+03  0.15660672538E+03  0.25500000000E-02 0.  1.
          1   -1    0    0  501    0  0.00000000000E+00 -0.00000000000E+00 -0.10155048461E+02  0.10155049712E+02  0.50400000000E-02 0. -1.
        -24    2    1    2    0    0  0.00000000000E+00 -0.35527136788E-14  0.14645167689E+03  0.16676177509E+03  0.79758359847E+02 0.  0.
         66    2    3    3    0    0  0.10313118574E+02  0.24050043418E+02  0.13612147665E+03  0.13862835716E+03  0.20000000178E+01 0.  0.
         13    1    3    3    0    0 -0.10313118574E+02 -0.24050043418E+02  0.10330200241E+02  0.28133417926E+02  0.10566000000E+00 0. -1.
         13    1    4    4    0    0  0.14724803362E+01  0.26990053499E+01  0.18266130722E+02  0.18523377765E+02  0.10566000000E+00 0. -1.
        -13    1    4    4    0    0  0.22142512192E+01  0.42963855617E+01  0.25740217187E+02  0.26190299392E+02  0.10566000000E+00 0.  1.
        -14    1    4    4    0    0  0.66263870191E+01  0.17054652506E+02  0.92115128743E+02  0.93914680005E+02  0.00000000000E+00 0.  1.
<mgrwt>
<rscale>  0 0.79758360E+02</rscale>
<asrwt>0</asrwt>
<pdfrwt beam="1">  1        1 0.15623154E-02 0.79758360E+02</pdfrwt>
<pdfrwt beam="2">  1       -2 0.24093341E-01 0.79758360E+02</pdfrwt>
<totfact> 0.93889035E+04</totfact>
</mgrwt>
</event>
<event>
 8    1  0.1319619E-024  0.7901486E+02  0.7818608E-02  0.1331871E+00
          1   -1    0    0  501    0  0.00000000000E+00  0.00000000000E+00  0.69445483803E+01  0.69445502092E+01  0.50400000000E-02 0. -1.
         -2   -1    0    0    0  501 -0.00000000000E+00 -0.00000000000E+00 -0.22475715077E+03  0.22475715078E+03  0.25500000000E-02 0.  1.
        -24    2    1    2    0    0  0.00000000000E+00  0.17763568394E-14 -0.21781260239E+03  0.23170170099E+03  0.79014862422E+02 0.  0.
         66    2    3    3    0    0 -0.33560624206E+01  0.15125457373E+02 -0.21546572309E+03  0.21603129506E+03  0.20000002884E+01 0.  0.
         13    1    3    3    0    0  0.33560624206E+01 -0.15125457373E+02 -0.23468792977E+01  0.15670405936E+02  0.10566000000E+00 0. -1.
         13    1    4    4    0    0 -0.27214031267E+00  0.24941464246E+01 -0.41232750332E+02  0.41309147785E+02  0.10566000000E+00 0. -1.
        -13    1    4    4    0    0 -0.72555663410E+00  0.55575712962E+01 -0.72934388201E+02  0.73149498819E+02  0.10566000000E+00 0.  1.
        -14    1    4    4    0    0 -0.23583654738E+01  0.70737396523E+01 -0.10129858456E+03  0.10157264845E+03  0.00000000000E+00 0.  1.
<mgrwt>
<rscale>  0 0.79014862E+02</rscale>
<asrwt>0</asrwt>
<pdfrwt beam="1">  1        1 0.10683924E-02 0.79014862E+02</pdfrwt>
<pdfrwt beam="2">  1       -2 0.34578018E-01 0.79014862E+02</pdfrwt>
<totfact> 0.83606013E+04</totfact>
</mgrwt>
</event>
<event>
 8    1  0.1319619E-024  0.7910937E+02  0.7818608E-02  0.1331598E+00
          1   -1    0    0  501    0  0.00000000000E+00  0.00000000000E+00  0.16241696187E+03  0.16241696194E+03  0.50400000000E-02 0. -1.
         -2   -1    0    0    0  501 -0.00000000000E+00 -0.00000000000E+00 -0.96330636539E+01  0.96330639914E+01  0.25500000000E-02 0.  1.
        -24    2    1    2    0    0  0.35527136788E-14  0.00000000000E+00  0.15278389821E+03  0.17205002594E+03  0.79109366522E+02 0.  0.
         66    2    3    3    0    0  0.29366333175E+02 -0.22706608737E+02  0.46891932698E+02  0.59839994615E+02  0.19999997265E+01 0.  0.
         13    1    3    3    0    0 -0.29366333175E+02  0.22706608737E+02  0.10589196551E+03  0.11221003132E+03  0.10566000000E+00 0. -1.
         13    1    4    4    0    0  0.12404071724E+02 -0.10454988538E+02  0.19820138795E+02  0.25612825821E+02  0.10566000000E+00 0. -1.
        -13    1    4    4    0    0  0.73266053762E+01 -0.57980778678E+01  0.12323641167E+02  0.15465450170E+02  0.10566000000E+00 0.  1.
         14    1    4    4    0    0  0.96356560746E+01 -0.64535423320E+01  0.14748152735E+02  0.18761718624E+02  0.00000000000E+00 0. -1.
<mgrwt>
<rscale>  0 0.79109367E+02</rscale>
<asrwt>0</asrwt>
<pdfrwt beam="1">  1        1 0.24987226E-01 0.79109367E+02</pdfrwt>
<pdfrwt beam="2">  1       -2 0.14820097E-02 0.79109367E+02</pdfrwt>
<totfact> 0.16509036E+05</totfact>
</mgrwt>
</event>
<event>
 8    1  0.1319619E-024  0.7764205E+02  0.7818608E-02  0.1335879E+00
         -2   -1    0    0    0  501 -0.00000000000E+00  0.00000000000E+00  0.82815527125E+02  0.82815527165E+02  0.25500000000E-02 0.  1.
          1   -1    0    0  501    0  0.00000000000E+00 -0.00000000000E+00 -0.18197937232E+02  0.18197937930E+02  0.50400000000E-02 0. -1.
        -24    2    1    2    0    0  0.71054273576E-14  0.00000000000E+00  0.64617589893E+02  0.10101346509E+03  0.77642045355E+02 0.  0.
         66    2    3    3    0    0 -0.37005764395E+02 -0.11633350549E+02  0.33049196183E+02  0.51000105990E+02  0.19999998197E+01 0.  0.
         13    1    3    3    0    0  0.37005764395E+02  0.11633350549E+02  0.31568393710E+02  0.50013359104E+02  0.10566000000E+00 0. -1.
         13    1    4    4    0    0 -0.15454853819E+02 -0.45076482145E+01  0.13197241664E+02  0.20817054320E+02  0.10566000000E+00 0. -1.
        -13    1    4    4    0    0 -0.19177408838E+02 -0.60814544053E+01  0.17128796814E+02  0.26422792088E+02  0.10566000000E+00 0.  1.
         14    1    4    4    0    0 -0.23735017370E+01 -0.10442479290E+01  0.27231577057E+01  0.37602595818E+01  0.00000000000E+00 0. -1.
<mgrwt>
<rscale>  0 0.77642045E+02</rscale>
<asrwt>0</asrwt>
<pdfrwt beam="1">  1        1 0.27996828E-02 0.77642045E+02</pdfrwt>
<pdfrwt beam="2">  1       -2 0.12740850E-01 0.77642045E+02</pdfrwt>
<totfact> 0.11970907E+05</totfact>
</mgrwt>
</event>
<event>
 8    1  0.1319619E-024  0.7987753E+02  0.7818608E-02  0.1329399E+00
          1   -1    0    0  501    0  0.00000000000E+00  0.00000000000E+00  0.43008493028E+01  0.43008522559E+01  0.50400000000E-02 0. -1.
         -2   -1    0    0    0  501 -0.00000000000E+00 -0.00000000000E+00 -0.37088122450E+03  0.37088122451E+03  0.25500000000E-02 0.  1.
        -24    2    1    2    0    0  0.00000000000E+00  0.35527136788E-14 -0.36658037520E+03  0.37518207677E+03  0.79877526538E+02 0.  0.
         66    2    3    3    0    0 -0.69846927271E+01 -0.19421496037E+02 -0.34386785377E+03  0.34449249817E+03  0.19999993467E+01 0.  0.
         13    1    3    3    0    0  0.69846927271E+01  0.19421496037E+02 -0.22712521429E+02  0.30689578597E+02  0.10566000000E+00 0. -1.
         13    1    4    4    0    0 -0.82874309649E+00 -0.24719498278E+01 -0.39981084149E+02  0.40066140378E+02  0.10566000000E+00 0. -1.
        -13    1    4    4    0    0 -0.25042485827E+01 -0.67797006577E+01 -0.10776337488E+03  0.10800551714E+03  0.10566000000E+00 0.  1.
         14    1    4    4    0    0 -0.36517010479E+01 -0.10169845551E+02 -0.19612339474E+03  0.19642084065E+03  0.00000000000E+00 0. -1.
<mgrwt>
<rscale>  0 0.79877527E+02</rscale>
<asrwt>0</asrwt>
<pdfrwt beam="1">  1        1 0.66166965E-03 0.79877527E+02</pdfrwt>
<pdfrwt beam="2">  1       -2 0.57058625E-01 0.79877527E+02</pdfrwt>
<totfact> 0.62297286E+04</totfact>
</mgrwt>
</event>
<event>
 8    1  0.1385153E-024  0.8039300E+02  0.7818608E-02  0.1327940E+00
          1   -1    0    0  501    0  0.00000000000E+00  0.00000000000E+00  0.84249091509E+02  0.84249091659E+02  0.50400000000E-02 0. -1.
         -2   -1    0    0    0  501 -0.00000000000E+00 -0.00000000000E+00 -0.19178352507E+02  0.19178352677E+02  0.25500000000E-02 0.  1.
        -24    2    1    2    0    0  0.00000000000E+00  0.00000000000E+00  0.65070739001E+02  0.10342744434E+03  0.80393004470E+02 0.  0.
         66    2    3    3    0    0  0.10083282056E+02  0.11962718370E+02 -0.15045457871E+02  0.21797821202E+02  0.19999997024E+01 0.  0.
         13    1    3    3    0    0 -0.10083282056E+02 -0.11962718370E+02  0.80116196872E+02  0.81629623134E+02  0.10566000000E+00 0. -1.
         13    1    4    4    0    0  0.50105986498E+00  0.31637502244E+00 -0.29108835784E+00  0.66861843438E+00  0.10566000000E+00 0. -1.
        -13    1    4    4    0    0  0.78581390711E+01  0.91694131816E+01 -0.11251982155E+02  0.16505961172E+02  0.10566000000E+00 0.  1.
        -14    1    4    4    0    0  0.17240831200E+01  0.24769301654E+01 -0.35023873577E+01  0.46232415957E+01  0.00000000000E+00 0.  1.
<mgrwt>
<rscale>  0 0.80393004E+02</rscale>
<asrwt>0</asrwt>
<pdfrwt beam="1">  1        1 0.12961399E-01 0.80393004E+02</pdfrwt>
<pdfrwt beam="2">  1       -2 0.29505158E-02 0.80393004E+02</pdfrwt>
<totfact> 0.14099394E+05</totfact>
</mgrwt>
</event>
<event>
 8    1  0.1319619E-024  0.8139334E+02  0.7818608E-02  0.1325143E+00
          1   -1    0    0  501    0  0.00000000000E+00  0.00000000000E+00  0.24580843082E+03  0.24580843087E+03  0.50400000000E-02 0. -1.
         -2   -1    0    0    0  501 -0.00000000000E+00 -0.00000000000E+00 -0.67378445868E+01  0.67378450694E+01  0.25500000000E-02 0.  1.
        -24    2    1    2    0    0  0.00000000000E+00  0.00000000000E+00  0.23907058623E+03  0.25254627594E+03  0.81393343031E+02 0.  0.
         66    2    3    3    0    0 -0.25551951958E+02  0.10640414334E+02  0.21207312454E+03  0.21388111374E+03  0.19999992747E+01 0.  0.
         13    1    3    3    0    0  0.25551951958E+02 -0.10640414334E+02  0.26997461695E+02  0.38665162202E+02  0.10566000000E+00 0. -1.
         13    1    4    4    0    0 -0.33173372880E+01  0.11127760603E+01  0.24381943991E+02  0.24631957983E+02  0.10566000000E+00 0. -1.
        -13    1    4    4    0    0 -0.13525397666E+02  0.50553510551E+01  0.11341651209E+03  0.11433201361E+03  0.10566000000E+00 0.  1.
        -14    1    4    4    0    0 -0.87092170039E+01  0.44722872187E+01  0.74274668454E+02  0.74917142149E+02  0.00000000000E+00 0.  1.
<mgrwt>
<rscale>  0 0.81393343E+02</rscale>
<asrwt>0</asrwt>
<pdfrwt beam="1">  1        1 0.37816682E-01 0.81393343E+02</pdfrwt>
<pdfrwt beam="2">  1       -2 0.10365915E-02 0.81393343E+02</pdfrwt>
<totfact> 0.16582397E+05</totfact>
</mgrwt>
</event>
<event>
 8    1  0.1319619E-024  0.7984903E+02  0.7818608E-02  0.1329480E+00
         -2   -1    0    0    0  501 -0.00000000000E+00  0.00000000000E+00  0.37607373205E+02  0.37607373291E+02  0.25500000000E-02 0.  1.
          1   -1    0    0  501    0  0.00000000000E+00 -0.00000000000E+00 -0.42384424626E+02  0.42384424925E+02  0.50400000000E-02 0. -1.
        -24    2    1    2    0    0  0.00000000000E+00  0.00000000000E+00 -0.47770514211E+01  0.79991798216E+02  0.79849029810E+02 0.  0.
         66    2    3    3    0    0 -0.14611047385E+02 -0.91217055100E+01  0.33664240572E+02  0.37867787115E+02  0.19999976493E+01 0.  0.
         13    1    3    3    0    0  0.14611047385E+02  0.91217055100E+01 -0.38441291993E+02  0.42124011101E+02  0.10566000000E+00 0. -1.
         13    1    4    4    0    0 -0.24307940347E+01 -0.13113451778E+01  0.64517469963E+01  0.70188737811E+01  0.10566000000E+00 0. -1.
        -13    1    4    4    0    0 -0.50021419278E+01 -0.29410131925E+01  0.96379167596E+01  0.11250403813E+02  0.10566000000E+00 0.  1.
         14    1    4    4    0    0 -0.71781114229E+01 -0.48693471397E+01  0.17574576816E+02  0.19598509521E+02  0.00000000000E+00 0. -1.
<mgrwt>
<rscale>  0 0.79849030E+02</rscale>
<asrwt>0</asrwt>
<pdfrwt beam="1">  1        1 0.65206807E-02 0.79849030E+02</pdfrwt>
<pdfrwt beam="2">  1       -2 0.57857498E-02 0.79849030E+02</pdfrwt>
<totfact> 0.12884871E+05</totfact>
</mgrwt>
</event>
<event>
 8    1  0.1319619E-024  0.7992140E+02  0.7818608E-02  0.1329275E+00
          1   -1    0    0  501    0  0.00000000000E+00  0.00000000000E+00  0.13208487198E+03  0.13208487208E+03  0.50400000000E-02 0. -1.
         -2   -1    0    0    0  501 -0.00000000000E+00 -0.00000000000E+00 -0.12089631685E+02  0.12089631954E+02  0.25500000000E-02 0.  1.
        -24    2    1    2    0    0  0.00000000000E+00  0.00000000000E+00  0.11999524030E+03  0.14417450403E+03  0.79921398381E+02 0.  0.
         66    2    3    3    0    0 -0.17753131733E+02  0.29111020691E+02  0.22530749766E+02  0.40917720767E+02  0.19999939372E+01 0.  0.
         13    1    3    3    0    0  0.17753131733E+02 -0.29111020691E+02  0.97464490530E+02  0.10325678327E+03  0.10566000000E+00 0. -1.
         13    1    4    4    0    0 -0.63073394760E+00  0.95473742078E+00  0.84608005624E+00  0.14270123869E+01  0.10566000000E+00 0. -1.
        -13    1    4    4    0    0 -0.14366960463E+02  0.24765070798E+02  0.19019086007E+02  0.34372301074E+02  0.10566000000E+00 0.  1.
        -14    1    4    4    0    0 -0.27554373227E+01  0.33912124718E+01  0.26655837027E+01  0.51184073054E+01  0.00000000000E+00 0.  1.
<mgrwt>
<rscale>  0 0.79921398E+02</rscale>
<asrwt>0</asrwt>
<pdfrwt beam="1">  1        1 0.20320750E-01 0.79921398E+02</pdfrwt>
<pdfrwt beam="2">  1       -2 0.18599433E-02 0.79921398E+02</pdfrwt>
<totfact> 0.15467714E+05</totfact>
</mgrwt>
</event>
<event>
 8    1  0.1319619E-024  0.7647593E+02  0.7818608E-02  0.1339361E+00
         -2   -1    0    0    0  501 -0.00000000000E+00  0.00000000000E+00  0.18783098014E+02  0.18783098188E+02  0.25500000000E-02 0.  1.
          1   -1    0    0  501    0  0.00000000000E+00 -0.00000000000E+00 -0.77843491794E+02  0.77843491957E+02  0.50400000000E-02 0. -1.
        -24    2    1    2    0    0  0.00000000000E+00  0.35527136788E-14 -0.59060393780E+02  0.96626590145E+02  0.76475929609E+02 0.  0.
         66    2    3    3    0    0  0.18443580503E+02 -0.22053509200E+02  0.22538504861E+01  0.28906795079E+02  0.20000074898E+01 0.  0.
         13    1    3    3    0    0 -0.18443580503E+02  0.22053509200E+02 -0.61314244266E+02  0.67719795066E+02  0.10566000000E+00 0. -1.
         13    1    4    4    0    0  0.80779154614E+01 -0.87783690468E+01  0.12919284021E+01  0.11999696844E+02  0.10566000000E+00 0. -1.
        -13    1    4    4    0    0  0.70219616998E+01 -0.89278023054E+01  0.11675134652E+01  0.11418750012E+02  0.10566000000E+00 0.  1.
         14    1    4    4    0    0  0.33437033413E+01 -0.43473378478E+01 -0.20559138116E+00  0.54883482227E+01  0.00000000000E+00 0. -1.
<mgrwt>
<rscale>  0 0.76475930E+02</rscale>
<asrwt>0</asrwt>
<pdfrwt beam="1">  1        1 0.11975922E-01 0.76475930E+02</pdfrwt>
<pdfrwt beam="2">  1       -2 0.28897075E-02 0.76475930E+02</pdfrwt>
<totfact> 0.15944784E+05</totfact>
</mgrwt>
</event>
<event>
 8    1  0.1319619E-024  0.8376930E+02  0.7818608E-02  0.1318683E+00
         -2   -1    0    0    0  501 -0.00000000000E+00  0.00000000000E+00  0.49872718764E+01  0.49872725283E+01  0.25500000000E-02 0.  1.
          1   -1    0    0  501    0  0.00000000000E+00 -0.00000000000E+00 -0.35176019882E+03  0.35176019885E+03  0.50400000000E-02 0. -1.
        -24    2    1    2    0    0  0.35527136788E-14 -0.17763568394E-14 -0.34677292694E+03  0.35674747138E+03  0.83769299138E+02 0.  0.
         66    2    3    3    0    0  0.28247981019E+02 -0.14439778394E+02 -0.28979195836E+03  0.29153016098E+03  0.19999995791E+01 0.  0.
         13    1    3    3    0    0 -0.28247981019E+02  0.14439778394E+02 -0.56980968579E+02  0.65217310401E+02  0.10566000000E+00 0. -1.
         13    1    4    4    0    0  0.10438141074E+02 -0.46744392136E+01 -0.10150234223E+03  0.10214471016E+03  0.10566000000E+00 0. -1.
        -13    1    4    4    0    0  0.12972070681E+02 -0.73060853560E+01 -0.13343963597E+03  0.13426764730E+03  0.10566000000E+00 0.  1.
        -14    1    4    4    0    0  0.48377692645E+01 -0.24592538248E+01 -0.54849980169E+02  0.55117803524E+02  0.00000000000E+00 0.  1.
<mgrwt>
<rscale>  0 0.83769299E+02</rscale>
<asrwt>0</asrwt>
<pdfrwt beam="1">  1        1 0.54116934E-01 0.83769299E+02</pdfrwt>
<pdfrwt beam="2">  1       -2 0.76727292E-03 0.83769299E+02</pdfrwt>
<totfact> 0.16455882E+05</totfact>
</mgrwt>
</event>
<event>
 8    1  0.1319619E-024  0.7577549E+02  0.7818608E-02  0.1341486E+00
         -2   -1    0    0    0  501 -0.00000000000E+00  0.00000000000E+00  0.16445140637E+02  0.16445140835E+02  0.25500000000E-02 0.  1.
          1   -1    0    0  501    0  0.00000000000E+00 -0.00000000000E+00 -0.87289074836E+02  0.87289074982E+02  0.50400000000E-02 0. -1.
        -24    2    1    2    0    0  0.71054273576E-14  0.17763568394E-14 -0.70843934199E+02  0.10373421582E+03  0.75775487582E+02 0.  0.
         66    2    3    3    0    0 -0.36565401411E+02 -0.82350057133E+01 -0.42771809573E+02  0.56905813703E+02  0.20000098975E+01 0.  0.
         13    1    3    3    0    0  0.36565401411E+02  0.82350057133E+01 -0.28072124625E+02  0.46828402113E+02  0.10566000000E+00 0. -1.
         13    1    4    4    0    0 -0.28315840474E+01 -0.73068955277E+00 -0.30512930275E+01  0.42276859646E+01  0.10566000000E+00 0. -1.
        -13    1    4    4    0    0 -0.18714516716E+02 -0.32928034541E+01 -0.21973872162E+02  0.29050609500E+02  0.10566000000E+00 0.  1.
        -14    1    4    4    0    0 -0.15019300648E+02 -0.42115127065E+01 -0.17746644384E+02  0.23627518239E+02  0.00000000000E+00 0.  1.
<mgrwt>
<rscale>  0 0.75775488E+02</rscale>
<asrwt>0</asrwt>
<pdfrwt beam="1">  1        1 0.13429088E-01 0.75775488E+02</pdfrwt>
<pdfrwt beam="2">  1       -2 0.25300217E-02 0.75775488E+02</pdfrwt>
<totfact> 0.16642876E+05</totfact>
</mgrwt>
</event>
<event>
 8    1  0.1319619E-024  0.8060866E+02  0.7818608E-02  0.1327333E+00
         -2   -1    0    0    0  501 -0.00000000000E+00  0.00000000000E+00  0.41315689198E+02  0.41315689277E+02  0.25500000000E-02 0.  1.
          1   -1    0    0  501    0  0.00000000000E+00 -0.00000000000E+00 -0.39317724511E+02  0.39317724834E+02  0.50400000000E-02 0. -1.
        -24    2    1    2    0    0  0.35527136788E-14  0.35527136788E-14  0.19979646866E+01  0.80633414111E+02  0.80608657155E+02 0.  0.
         66    2    3    3    0    0 -0.10267026180E+02 -0.27113021479E+02  0.28970768808E+02  0.41034536772E+02  0.20000006237E+01 0.  0.
         13    1    3    3    0    0  0.10267026180E+02  0.27113021479E+02 -0.26972804121E+02  0.39598877339E+02  0.10566000000E+00 0. -1.
         13    1    4    4    0    0 -0.40054412605E+01 -0.96161391204E+01  0.11318840825E+02  0.15383140542E+02  0.10566000000E+00 0. -1.
        -13    1    4    4    0    0 -0.18666565118E+01 -0.55616157749E+01  0.62083454481E+01  0.85422885574E+01  0.10566000000E+00 0.  1.
        -14    1    4    4    0    0 -0.43949284073E+01 -0.11935266584E+02  0.11443582535E+02  0.17109107673E+02  0.00000000000E+00 0.  1.
<mgrwt>
<rscale>  0 0.80608657E+02</rscale>
<asrwt>0</asrwt>
<pdfrwt beam="1">  1        1 0.60488808E-02 0.80608657E+02</pdfrwt>
<pdfrwt beam="2">  1       -2 0.63562599E-02 0.80608657E+02</pdfrwt>
<totfact> 0.12394006E+05</totfact>
</mgrwt>
</event>
<event>
 8    1  0.1319619E-024  0.7667578E+02  0.7818608E-02  0.1338759E+00
         -2   -1    0    0    0  501 -0.00000000000E+00  0.00000000000E+00  0.13030984055E+02  0.13030984305E+02  0.25500000000E-02 0.  1.
          1   -1    0    0  501    0  0.00000000000E+00 -0.00000000000E+00 -0.11279222508E+03  0.11279222519E+03  0.50400000000E-02 0. -1.
        -24    2    1    2    0    0  0.00000000000E+00  0.17763568394E-14 -0.99761241023E+02  0.12582320950E+03  0.76675777384E+02 0.  0.
         66    2    3    3    0    0 -0.25363602672E+02  0.11972707668E+02 -0.70874466380E+01  0.28998102219E+02  0.19999907636E+01 0.  0.
         13    1    3    3    0    0  0.25363602672E+02 -0.11972707668E+02 -0.92673794385E+02  0.96825107277E+02  0.10566000000E+00 0. -1.
         13    1    4    4    0    0 -0.86769909041E+01  0.37778654553E+01 -0.32701392854E+01  0.10013361750E+02  0.10566000000E+00 0. -1.
        -13    1    4    4    0    0 -0.97182738661E+01  0.48317887509E+01 -0.24640677548E+01  0.11129861787E+02  0.10566000000E+00 0.  1.
         14    1    4    4    0    0 -0.69683379020E+01  0.33630534618E+01 -0.13532395978E+01  0.78548786822E+01  0.00000000000E+00 0. -1.
<mgrwt>
<rscale>  0 0.76675777E+02</rscale>
<asrwt>0</asrwt>
<pdfrwt beam="1">  1        1 0.17352649E-01 0.76675777E+02</pdfrwt>
<pdfrwt beam="2">  1       -2 0.20047669E-02 0.76675777E+02</pdfrwt>
<totfact> 0.16815119E+05</totfact>
</mgrwt>
</event>
<event>
 8    1  0.1319619E-024  0.8145905E+02  0.7818608E-02  0.1324961E+00
          1   -1    0    0  501    0  0.00000000000E+00  0.00000000000E+00  0.39828692815E+02  0.39828693134E+02  0.50400000000E-02 0. -1.
         -2   -1    0    0    0  501 -0.00000000000E+00 -0.00000000000E+00 -0.41650729518E+02  0.41650729596E+02  0.25500000000E-02 0.  1.
        -24    2    1    2    0    0  0.00000000000E+00  0.00000000000E+00 -0.18220367033E+01  0.81479422730E+02  0.81459048059E+02 0.  0.
         66    2    3    3    0    0  0.24684932056E+02 -0.15100669005E+02 -0.29545864909E+02  0.41404519244E+02  0.20000014154E+01 0.  0.
         13    1    3    3    0    0 -0.24684932056E+02  0.15100669005E+02  0.27723828205E+02  0.40074903486E+02  0.10566000000E+00 0. -1.
         13    1    4    4    0    0  0.29878642642E+01 -0.23369310113E+01 -0.41892316527E+01  0.56523804975E+01  0.10566000000E+00 0. -1.
        -13    1    4    4    0    0  0.10529352243E+02 -0.60410384865E+01 -0.13093073825E+02  0.17855003525E+02  0.10566000000E+00 0.  1.
        -14    1    4    4    0    0  0.11167715548E+02 -0.67226995071E+01 -0.12263559431E+02  0.17897135222E+02  0.00000000000E+00 0.  1.
<mgrwt>
<rscale>  0 0.81459048E+02</rscale>
<asrwt>0</asrwt>
<pdfrwt beam="1">  1        1 0.61274913E-02 0.81459048E+02</pdfrwt>
<pdfrwt beam="2">  1       -2 0.64078045E-02 0.81459048E+02</pdfrwt>
<totfact> 0.12057458E+05</totfact>
</mgrwt>
</event>
<event>
 8    1  0.1319619E-024  0.7995310E+02  0.7818608E-02  0.1329185E+00
         -2   -1    0    0    0  501 -0.00000000000E+00  0.00000000000E+00  0.10417858662E+02  0.10417858974E+02  0.25500000000E-02 0.  1.
          1   -1    0    0  501    0  0.00000000000E+00 -0.00000000000E+00 -0.15340238110E+03  0.15340238119E+03  0.50400000000E-02 0. -1.
        -24    2    1    2    0    0 -0.35527136788E-14  0.00000000000E+00 -0.14298452244E+03  0.16382024016E+03  0.79953095178E+02 0.  0.
         66    2    3    3    0    0 -0.28217488927E+02  0.21419441850E+02 -0.33694940946E+02  0.48932281880E+02  0.19999985223E+01 0.  0.
         13    1    3    3    0    0  0.28217488927E+02 -0.21419441850E+02 -0.10928958149E+03  0.11488795828E+03  0.10566000000E+00 0. -1.
         13    1    4    4    0    0 -0.47148855532E+01  0.31257181506E+01 -0.58598573337E+01  0.81455111407E+01  0.10566000000E+00 0. -1.
        -13    1    4    4    0    0 -0.16676763257E+02  0.12329103835E+02 -0.18934684657E+02  0.28082996301E+02  0.10566000000E+00 0.  1.
        -14    1    4    4    0    0 -0.68258401168E+01  0.59646198640E+01 -0.89003989549E+01  0.12703774438E+02  0.00000000000E+00 0.  1.
<mgrwt>
<rscale>  0 0.79953095E+02</rscale>
<asrwt>0</asrwt>
<pdfrwt beam="1">  1        1 0.23600365E-01 0.79953095E+02</pdfrwt>
<pdfrwt beam="2">  1       -2 0.16027476E-02 0.79953095E+02</pdfrwt>
<totfact> 0.15878920E+05</totfact>
</mgrwt>
</event>
<event>
 8    1  0.1319619E-024  0.7965244E+02  0.7818608E-02  0.1330041E+00
          1   -1    0    0  501    0  0.00000000000E+00  0.00000000000E+00  0.23638123377E+03  0.23638123382E+03  0.50400000000E-02 0. -1.
         -2   -1    0    0    0  501 -0.00000000000E+00 -0.00000000000E+00 -0.67100404371E+01  0.67100409217E+01  0.25500000000E-02 0.  1.
        -24    2    1    2    0    0  0.71054273576E-14  0.00000000000E+00  0.22967119333E+03  0.24309127474E+03  0.79652437567E+02 0.  0.
         66    2    3    3    0    0 -0.32847442798E+02  0.17090332913E+02  0.70357501215E+02  0.79531201262E+02  0.20000048855E+01 0.  0.
         13    1    3    3    0    0  0.32847442798E+02 -0.17090332913E+02  0.15931369212E+03  0.16356007348E+03  0.10566000000E+00 0. -1.
         13    1    4    4    0    0 -0.19100758695E+02  0.98679367434E+01  0.39618684913E+02  0.45076230062E+02  0.10566000000E+00 0. -1.
        -13    1    4    4    0    0 -0.13617686546E+02  0.72444821668E+01  0.30571572596E+02  0.34242606848E+02  0.10566000000E+00 0.  1.
         14    1    4    4    0    0 -0.12899755680E+00 -0.22085997119E-01  0.16724370556E+00  0.21236435195E+00  0.00000000000E+00 0. -1.
<mgrwt>
<rscale>  0 0.79652438E+02</rscale>
<asrwt>0</asrwt>
<pdfrwt beam="1">  1        1 0.36366342E-01 0.79652438E+02</pdfrwt>
<pdfrwt beam="2">  1       -2 0.10323140E-02 0.79652438E+02</pdfrwt>
<totfact> 0.17425712E+05</totfact>
</mgrwt>
</event>
<event>
 8    1  0.1319619E-024  0.8291213E+02  0.7818608E-02  0.1320985E+00
         -2   -1    0    0    0  501 -0.00000000000E+00  0.00000000000E+00  0.82154828871E+02  0.82154828910E+02  0.25500000000E-02 0.  1.
          1   -1    0    0  501    0  0.00000000000E+00 -0.00000000000E+00 -0.20919101527E+02  0.20919102134E+02  0.50400000000E-02 0. -1.
        -24    2    1    2    0    0  0.00000000000E+00  0.00000000000E+00  0.61235727344E+02  0.10307393104E+03  0.82912127928E+02 0.  0.
         66    2    3    3    0    0 -0.19742693631E+02 -0.25739437246E+02  0.62677318892E+02  0.70602683274E+02  0.20000000997E+01 0.  0.
         13    1    3    3    0    0  0.19742693631E+02  0.25739437246E+02 -0.14415915483E+01  0.32471247770E+02  0.10566000000E+00 0. -1.
         13    1    4    4    0    0 -0.52601852833E+01 -0.79137114371E+01  0.18875458768E+02  0.21132687611E+02  0.10566000000E+00 0. -1.
        -13    1    4    4    0    0 -0.13623609340E+02 -0.16371166407E+02  0.40299898146E+02  0.45581912812E+02  0.10566000000E+00 0.  1.
        -14    1    4    4    0    0 -0.85889900715E+00 -0.14545594022E+01  0.35019619776E+01  0.38880828504E+01  0.00000000000E+00 0.  1.
<mgrwt>
<rscale>  0 0.82912128E+02</rscale>
<asrwt>0</asrwt>
<pdfrwt beam="1">  1        1 0.32183234E-02 0.82912128E+02</pdfrwt>
<pdfrwt beam="2">  1       -2 0.12639204E-01 0.82912128E+02</pdfrwt>
<totfact> 0.10142830E+05</totfact>
</mgrwt>
</event>
<event>
 8    1  0.1319619E-024  0.7785325E+02  0.7818608E-02  0.1335256E+00
          1   -1    0    0  501    0  0.00000000000E+00  0.00000000000E+00  0.16828528206E+01  0.16828603678E+01  0.50400000000E-02 0. -1.
         -2   -1    0    0    0  501 -0.00000000000E+00 -0.00000000000E+00 -0.90042261203E+03  0.90042261203E+03  0.25500000000E-02 0.  1.
        -24    2    1    2    0    0  0.00000000000E+00 -0.17763568394E-14 -0.89873975921E+03  0.90210547240E+03  0.77853250110E+02 0.  0.
         66    2    3    3    0    0 -0.19240313856E+02 -0.11232736393E+02 -0.81917247017E+03  0.81947782150E+03  0.20000008766E+01 0.  0.
         13    1    3    3    0    0  0.19240313856E+02  0.11232736393E+02 -0.79567289034E+02  0.82627650895E+02  0.10566000000E+00 0. -1.
         13    1    4    4    0    0 -0.40618865614E+01 -0.17597783258E+01 -0.17382074215E+03  0.17387713279E+03  0.10566000000E+00 0. -1.
        -13    1    4    4    0    0 -0.85148317205E+01 -0.57531645241E+01 -0.35546301315E+03  0.35561153826E+03  0.10566000000E+00 0.  1.
         14    1    4    4    0    0 -0.66635955743E+01 -0.37197935430E+01 -0.28988871488E+03  0.28998915046E+03  0.00000000000E+00 0. -1.
<mgrwt>
<rscale>  0 0.77853250E+02</rscale>
<asrwt>0</asrwt>
<pdfrwt beam="1">  1        1 0.25890173E-03 0.77853250E+02</pdfrwt>
<pdfrwt beam="2">  1       -2 0.13852617E+00 0.77853250E+02</pdfrwt>
<totfact> 0.31480875E+04</totfact>
</mgrwt>
</event>
<event>
 8    1  0.1319619E-024  0.7975744E+02  0.7818608E-02  0.1329741E+00
          1   -1    0    0  501    0  0.00000000000E+00  0.00000000000E+00  0.20740941731E+01  0.20741002967E+01  0.50400000000E-02 0. -1.
         -2   -1    0    0    0  501 -0.00000000000E+00 -0.00000000000E+00 -0.76674907802E+03  0.76674907803E+03  0.25500000000E-02 0.  1.
        -24    2    1    2    0    0  0.00000000000E+00  0.00000000000E+00 -0.76467498385E+03  0.76882317833E+03  0.79757436031E+02 0.  0.
         66    2    3    3    0    0  0.10154930327E+01 -0.22287075617E+02 -0.70090939271E+03  0.70126722564E+03  0.20000003349E+01 0.  0.
         13    1    3    3    0    0 -0.10154930327E+01  0.22287075617E+02 -0.63765591139E+02  0.67555952683E+02  0.10566000000E+00 0. -1.
         13    1    4    4    0    0 -0.32609785026E+00 -0.50093380908E+01 -0.13924411643E+03  0.13933461498E+03  0.10566000000E+00 0. -1.
        -13    1    4    4    0    0  0.49919668179E+00 -0.75016946330E+01 -0.24446857817E+03  0.24458418079E+03  0.10566000000E+00 0.  1.
         14    1    4    4    0    0  0.84239420113E+00 -0.97760428928E+01 -0.31719669812E+03  0.31734842987E+03  0.00000000000E+00 0. -1.
<mgrwt>
<rscale>  0 0.79757436E+02</rscale>
<asrwt>0</asrwt>
<pdfrwt beam="1">  1        1 0.31909250E-03 0.79757436E+02</pdfrwt>
<pdfrwt beam="2">  1       -2 0.11796117E+00 0.79757436E+02</pdfrwt>
<totfact> 0.34948974E+04</totfact>
</mgrwt>
</event>
<event>
 8    1  0.1319619E-024  0.7749403E+02  0.7818608E-02  0.1336317E+00
          1   -1    0    0  501    0  0.00000000000E+00  0.00000000000E+00  0.27733473475E+01  0.27733519271E+01  0.50400000000E-02 0. -1.
         -2   -1    0    0    0  501 -0.00000000000E+00 -0.00000000000E+00 -0.54134214263E+03  0.54134214263E+03  0.25500000000E-02 0.  1.
        -24    2    1    2    0    0  0.00000000000E+00 -0.88817841970E-15 -0.53856879528E+03  0.54411549456E+03  0.77494026684E+02 0.  0.
         66    2    3    3    0    0 -0.34459613903E+02  0.44298959456E+01 -0.38949347177E+03  0.39104507870E+03  0.20000136915E+01 0.  0.
         13    1    3    3    0    0  0.34459613903E+02 -0.44298959456E+01 -0.14907532351E+03  0.15307041586E+03  0.10566000000E+00 0. -1.
         13    1    4    4    0    0 -0.64320508241E+01  0.60442127557E+00 -0.70862853946E+02  0.71156811594E+02  0.10566000000E+00 0. -1.
        -13    1    4    4    0    0 -0.18537841823E+02  0.28886280657E+01 -0.20306460543E+03  0.20392949981E+03  0.10566000000E+00 0.  1.
        -14    1    4    4    0    0 -0.94897212561E+01  0.93684660425E+00 -0.11556601239E+03  0.11595876729E+03  0.00000000000E+00 0.  1.
<mgrwt>
<rscale>  0 0.77494027E+02</rscale>
<asrwt>0</asrwt>
<pdfrwt beam="1">  1        1 0.42666961E-03 0.77494027E+02</pdfrwt>
<pdfrwt beam="2">  1       -2 0.83283322E-01 0.77494027E+02</pdfrwt>
<totfact> 0.51386940E+04</totfact>
</mgrwt>
</event>
<event>
 8    1  0.1319619E-024  0.7915317E+02  0.7818608E-02  0.1331472E+00
         -2   -1    0    0    0  501 -0.00000000000E+00  0.00000000000E+00  0.30973100195E+01  0.30973110692E+01  0.25500000000E-02 0.  1.
          1   -1    0    0  501    0  0.00000000000E+00 -0.00000000000E+00 -0.50569879164E+03  0.50569879167E+03  0.50400000000E-02 0. -1.
        -24    2    1    2    0    0  0.00000000000E+00  0.00000000000E+00 -0.50260148162E+03  0.50879610273E+03  0.79153173218E+02 0.  0.
         66    2    3    3    0    0  0.37951452498E+02  0.10740690367E+02 -0.27033988208E+03  0.27320930989E+03  0.19999981801E+01 0.  0.
         13    1    3    3    0    0 -0.37951452498E+02 -0.10740690367E+02 -0.23226159954E+03  0.23558679284E+03  0.10566000000E+00 0. -1.
         13    1    4    4    0    0  0.12070661571E+02  0.25864840003E+01 -0.85767366342E+02  0.86651272717E+02  0.10566000000E+00 0. -1.
        -13    1    4    4    0    0  0.16586926091E+02  0.48514213806E+01 -0.11786825567E+03  0.11912849896E+03  0.10566000000E+00 0.  1.
         14    1    4    4    0    0  0.92938648362E+01  0.33027849856E+01 -0.66704260069E+02  0.67429538213E+02  0.00000000000E+00 0. -1.
<mgrwt>
<rscale>  0 0.79153173E+02</rscale>
<asrwt>0</asrwt>
<pdfrwt beam="1">  1        1 0.77799749E-01 0.79153173E+02</pdfrwt>
<pdfrwt beam="2">  1       -2 0.47650972E-03 0.79153173E+02</pdfrwt>
<totfact> 0.20189240E+05</totfact>
</mgrwt>
</event>
<event>
 8    1  0.1319619E-024  0.8377911E+02  0.7818608E-02  0.1318657E+00
         -2   -1    0    0    0  501 -0.00000000000E+00  0.00000000000E+00  0.59542334101E+01  0.59542339561E+01  0.25500000000E-02 0.  1.
          1   -1    0    0  501    0  0.00000000000E+00 -0.00000000000E+00 -0.29470370316E+03  0.29470370320E+03  0.50400000000E-02 0. -1.
        -24    2    1    2    0    0  0.00000000000E+00  0.00000000000E+00 -0.28874946975E+03  0.30065793716E+03  0.83779107753E+02 0.  0.
         66    2    3    3    0    0  0.63359977442E+00  0.40588790640E+02 -0.10770487927E+03  0.11511816708E+03  0.19999998720E+01 0.  0.
         13    1    3    3    0    0 -0.63359977442E+00 -0.40588790640E+02 -0.18104459047E+03  0.18553977007E+03  0.10566000000E+00 0. -1.
         13    1    4    4    0    0  0.94569665835E+00  0.24465433810E+02 -0.62952969303E+02  0.67546571355E+02  0.10566000000E+00 0. -1.
        -13    1    4    4    0    0 -0.82472820342E-01  0.13323691212E+02 -0.36746839571E+02  0.39087964027E+02  0.10566000000E+00 0.  1.
         14    1    4    4    0    0 -0.22962406359E+00  0.27996656176E+01 -0.80050703987E+01  0.84836317029E+01  0.00000000000E+00 0. -1.
<mgrwt>
<rscale>  0 0.83779108E+02</rscale>
<asrwt>0</asrwt>
<pdfrwt beam="1">  1        1 0.45339020E-01 0.83779108E+02</pdfrwt>
<pdfrwt beam="2">  1       -2 0.91603618E-03 0.83779108E+02</pdfrwt>
<totfact> 0.15915092E+05</totfact>
</mgrwt>
</event>
<event>
 8    1  0.1319619E-024  0.8250791E+02  0.7818608E-02  0.1322081E+00
         -2   -1    0    0    0  501 -0.00000000000E+00  0.00000000000E+00  0.53130931987E+02  0.53130932048E+02  0.25500000000E-02 0.  1.
          1   -1    0    0  501    0  0.00000000000E+00 -0.00000000000E+00 -0.32031979082E+02  0.32031979478E+02  0.50400000000E-02 0. -1.
        -24    2    1    2    0    0 -0.17763568394E-14  0.00000000000E+00  0.21098952905E+02  0.85162911527E+02  0.82507912869E+02 0.  0.
         66    2    3    3    0    0 -0.11292822847E+02  0.36942476075E+02  0.25427972012E+02  0.46290994197E+02  0.19999991914E+01 0.  0.
         13    1    3    3    0    0  0.11292822847E+02 -0.36942476075E+02 -0.43290191070E+01  0.38871917329E+02  0.10566000000E+00 0. -1.
         13    1    4    4    0    0 -0.70641546757E+00  0.22275564116E+01  0.16467415864E+01  0.28607607848E+01  0.10566000000E+00 0.  1.
        -13    1    4    4    0    0 -0.10265463528E+02  0.34335292533E+02  0.23546056272E+02  0.42880298328E+02  0.10566000000E+00 0.  1.
        -14    1    4    4    0    0 -0.32094385223E+00  0.37962713011E+00  0.23517415377E+00  0.54993508417E+00  0.00000000000E+00 0.  1.
<mgrwt>
<rscale>  0 0.82507913E+02</rscale>
<asrwt>0</asrwt>
<pdfrwt beam="1">  1        1 0.49279969E-02 0.82507913E+02</pdfrwt>
<pdfrwt beam="2">  1       -2 0.81739894E-02 0.82507913E+02</pdfrwt>
<totfact> 0.11197239E+05</totfact>
</mgrwt>
</event>
<event>
 8    1  0.1319619E-024  0.7967727E+02  0.7818608E-02  0.1329970E+00
         -2   -1    0    0    0  501 -0.00000000000E+00  0.00000000000E+00  0.15061413667E+02  0.15061413882E+02  0.25500000000E-02 0.  1.
          1   -1    0    0  501    0  0.00000000000E+00 -0.00000000000E+00 -0.10537636227E+03  0.10537636239E+03  0.50400000000E-02 0. -1.
        -24    2    1    2    0    0 -0.71054273576E-14  0.17763568394E-14 -0.90314948602E+02  0.12043777627E+03  0.79677274127E+02 0.  0.
         66    2    3    3    0    0 -0.37653220559E+02  0.12862506094E+02 -0.43100666658E+02  0.58693070709E+02  0.20000003525E+01 0.  0.
         13    1    3    3    0    0  0.37653220559E+02 -0.12862506094E+02 -0.47214281944E+02  0.61744705563E+02  0.10566000000E+00 0. -1.
         13    1    4    4    0    0 -0.43129390610E+01  0.16570546257E+01 -0.50386800452E+01  0.68371583286E+01  0.10566000000E+00 0.  1.
        -13    1    4    4    0    0 -0.31723322392E+02  0.11040002656E+02 -0.36448240922E+02  0.49565474603E+02  0.10566000000E+00 0.  1.
         14    1    4    4    0    0 -0.16169591061E+01  0.16544881247E+00 -0.16137456899E+01  0.22904377773E+01  0.00000000000E+00 0. -1.
<mgrwt>
<rscale>  0 0.79677274E+02</rscale>
<asrwt>0</asrwt>
<pdfrwt beam="1">  1        1 0.16211748E-01 0.79677274E+02</pdfrwt>
<pdfrwt beam="2">  1       -2 0.23171406E-02 0.79677274E+02</pdfrwt>
<totfact> 0.14992496E+05</totfact>
</mgrwt>
</event>
<event>
 8    1  0.1319619E-024  0.7836098E+02  0.7818608E-02  0.1333768E+00
         -2   -1    0    0    0  501 -0.00000000000E+00  0.00000000000E+00  0.12811070995E+02  0.12811071248E+02  0.25500000000E-02 0.  1.
          1   -1    0    0  501    0  0.00000000000E+00 -0.00000000000E+00 -0.11982689451E+03  0.11982689461E+03  0.50400000000E-02 0. -1.
        -24    2    1    2    0    0 -0.17763568394E-14 -0.35527136788E-14 -0.10701582351E+03  0.13263796586E+03  0.78360982038E+02 0.  0.
         66    2    3    3    0    0 -0.85317690748E+01 -0.28542252306E+02 -0.10532799580E+02  0.31660560858E+02  0.19999991400E+01 0.  0.
         13    1    3    3    0    0  0.85317690748E+01  0.28542252306E+02 -0.96483023934E+02  0.10097740501E+03  0.10566000000E+00 0. -1.
         13    1    4    4    0    0 -0.49471427048E+01 -0.14013485951E+02 -0.55737411642E+01  0.15872295487E+02  0.10566000000E+00 0. -1.
        -13    1    4    4    0    0 -0.26387411564E+01 -0.91510582977E+01 -0.29659338817E+01  0.99756077853E+01  0.10566000000E+00 0.  1.
         14    1    4    4    0    0 -0.94588521359E+00 -0.53777080578E+01 -0.19931245344E+01  0.58126575852E+01  0.00000000000E+00 0. -1.
<mgrwt>
<rscale>  0 0.78360982E+02</rscale>
<asrwt>0</asrwt>
<pdfrwt beam="1">  1        1 0.18434906E-01 0.78360982E+02</pdfrwt>
<pdfrwt beam="2">  1       -2 0.19709341E-02 0.78360982E+02</pdfrwt>
<totfact> 0.16028980E+05</totfact>
</mgrwt>
</event>
<event>
 8    1  0.1319619E-024  0.7923407E+02  0.7818608E-02  0.1331239E+00
          1   -1    0    0  501    0  0.00000000000E+00  0.00000000000E+00  0.17714457339E+02  0.17714458056E+02  0.50400000000E-02 0. -1.
         -2   -1    0    0    0  501 -0.00000000000E+00 -0.00000000000E+00 -0.88600475217E+02  0.88600475253E+02  0.25500000000E-02 0.  1.
        -24    2    1    2    0    0  0.17763568394E-14  0.00000000000E+00 -0.70886017878E+02  0.10631493331E+03  0.79234067888E+02 0.  0.
         66    2    3    3    0    0 -0.15037384023E+02 -0.90866004581E+01 -0.83071705187E+02  0.84932899604E+02  0.20000015807E+01 0.  0.
         13    1    3    3    0    0  0.15037384023E+02  0.90866004581E+01  0.12185687309E+02  0.21382033705E+02  0.10566000000E+00 0. -1.
         13    1    4    4    0    0 -0.11849262020E+01 -0.30712983044E+00 -0.45549622401E+01  0.47177562338E+01  0.10566000000E+00 0. -1.
        -13    1    4    4    0    0 -0.60593036219E+01 -0.35868618331E+01 -0.35253268812E+02  0.35949754716E+02  0.10566000000E+00 0.  1.
         14    1    4    4    0    0 -0.77931541991E+01 -0.51926087945E+01 -0.43263474135E+02  0.44265388654E+02  0.00000000000E+00 0. -1.
<mgrwt>
<rscale>  0 0.79234068E+02</rscale>
<asrwt>0</asrwt>
<pdfrwt beam="1">  1        1 0.27253012E-02 0.79234068E+02</pdfrwt>
<pdfrwt beam="2">  1       -2 0.13630842E-01 0.79234068E+02</pdfrwt>
<totfact> 0.11196041E+05</totfact>
</mgrwt>
</event>
<event>
 8    1  0.1319619E-024  0.7877334E+02  0.7818608E-02  0.1332569E+00
          1   -1    0    0  501    0  0.00000000000E+00  0.00000000000E+00  0.18208416271E+02  0.18208416969E+02  0.50400000000E-02 0. -1.
         -2   -1    0    0    0  501 -0.00000000000E+00 -0.00000000000E+00 -0.85197410950E+02  0.85197410988E+02  0.25500000000E-02 0.  1.
        -24    2    1    2    0    0  0.00000000000E+00  0.44408920985E-15 -0.66988994679E+02  0.10340582796E+03  0.78773344777E+02 0.  0.
         66    2    3    3    0    0 -0.27348386369E+02 -0.22251276742E+01 -0.70561633598E+02  0.75735259784E+02  0.20000021055E+01 0.  0.
         13    1    3    3    0    0  0.27348386369E+02  0.22251276742E+01  0.35726389187E+01  0.27670568173E+02  0.10566000000E+00 0. -1.
         13    1    4    4    0    0 -0.12334360061E+02 -0.45364798916E+00 -0.29999120364E+02  0.32439183425E+02  0.10566000000E+00 0. -1.
        -13    1    4    4    0    0 -0.12144567839E+02 -0.17278688219E+01 -0.33222376651E+02  0.35414877284E+02  0.10566000000E+00 0.  1.
        -14    1    4    4    0    0 -0.28694584691E+01 -0.43610863163E-01 -0.73401365820E+01  0.78811990747E+01  0.00000000000E+00 0.  1.
<mgrwt>
<rscale>  0 0.78773345E+02</rscale>
<asrwt>0</asrwt>
<pdfrwt beam="1">  1        1 0.28012949E-02 0.78773345E+02</pdfrwt>
<pdfrwt beam="2">  1       -2 0.13107294E-01 0.78773345E+02</pdfrwt>
<totfact> 0.11465322E+05</totfact>
</mgrwt>
</event>
<event>
 8    1  0.1494699E-024  0.7898525E+02  0.7818608E-02  0.1331956E+00
         -2   -1    0    0    0  501 -0.00000000000E+00  0.00000000000E+00  0.13685626768E+02  0.13685627006E+02  0.25500000000E-02 0.  1.
          1   -1    0    0  501    0  0.00000000000E+00 -0.00000000000E+00 -0.11396391477E+03  0.11396391488E+03  0.50400000000E-02 0. -1.
        -24    2    1    2    0    0  0.00000000000E+00  0.00000000000E+00 -0.10027828800E+03  0.12764954189E+03  0.78985254949E+02 0.  0.
         66    2    3    3    0    0 -0.22912215420E+02  0.23325254230E+02 -0.14447098530E+02  0.35801616757E+02  0.20000015362E+01 0.  0.
         13    1    3    3    0    0  0.22912215420E+02 -0.23325254230E+02 -0.85831189471E+02  0.91847925128E+02  0.10566000000E+00 0. -1.
         13    1    4    4    0    0 -0.71027965951E+00  0.10339957253E+01 -0.43359889115E+00  0.13314715126E+01  0.10566000000E+00 0.  1.
        -13    1    4    4    0    0 -0.22524349779E+01  0.17525415670E+01 -0.14429583851E+01  0.31997122075E+01  0.10566000000E+00 0.  1.
        -14    1    4    4    0    0 -0.19949500783E+02  0.20538716938E+02 -0.12570541253E+02  0.31270433037E+02  0.00000000000E+00 0.  1.
<mgrwt>
<rscale>  0 0.78985255E+02</rscale>
<asrwt>0</asrwt>
<pdfrwt beam="1">  1        1 0.17532909E-01 0.78985255E+02</pdfrwt>
<pdfrwt beam="2">  1       -2 0.21054811E-02 0.78985255E+02</pdfrwt>
<totfact> 0.15555713E+05</totfact>
</mgrwt>
</event>
<event>
 8    1  0.1319619E-024  0.8006201E+02  0.7818608E-02  0.1328876E+00
         -2   -1    0    0    0  501 -0.00000000000E+00  0.00000000000E+00  0.88965507462E+01  0.88965511117E+01  0.25500000000E-02 0.  1.
          1   -1    0    0  501    0  0.00000000000E+00 -0.00000000000E+00 -0.18012391060E+03  0.18012391067E+03  0.50400000000E-02 0. -1.
        -24    2    1    2    0    0  0.00000000000E+00  0.00000000000E+00 -0.17122735985E+03  0.18902046178E+03  0.80062014774E+02 0.  0.
         66    2    3    3    0    0  0.28088907205E+02 -0.22615100039E+02 -0.44771313012E+02  0.57523038216E+02  0.19999997523E+01 0.  0.
         13    1    3    3    0    0 -0.28088907205E+02  0.22615100039E+02 -0.12645604684E+03  0.13149742356E+03  0.10566000000E+00 0. -1.
         13    1    4    4    0    0  0.50824317130E+01 -0.36242070927E+01 -0.75379761506E+01  0.97876574139E+01  0.10566000000E+00 0. -1.
        -13    1    4    4    0    0  0.12548567327E+02 -0.93936987373E+01 -0.19851764418E+02  0.25294502020E+02  0.10566000000E+00 0.  1.
         14    1    4    4    0    0  0.10457908165E+02 -0.95971942091E+01 -0.17381572444E+02  0.22440878782E+02  0.00000000000E+00 0. -1.
<mgrwt>
<rscale>  0 0.80062015E+02</rscale>
<asrwt>0</asrwt>
<pdfrwt beam="1">  1        1 0.27711368E-01 0.80062015E+02</pdfrwt>
<pdfrwt beam="2">  1       -2 0.13687003E-02 0.80062015E+02</pdfrwt>
<totfact> 0.16306899E+05</totfact>
</mgrwt>
</event>
<event>
 8    1  0.1319619E-024  0.7329955E+02  0.7818608E-02  0.1349219E+00
         -2   -1    0    0    0  501 -0.00000000000E+00  0.00000000000E+00  0.23720248614E+02  0.23720248751E+02  0.25500000000E-02 0.  1.
          1   -1    0    0  501    0  0.00000000000E+00 -0.00000000000E+00 -0.56626979070E+02  0.56626979294E+02  0.50400000000E-02 0. -1.
        -24    2    1    2    0    0  0.00000000000E+00 -0.35527136788E-14 -0.32906730456E+02  0.80347228045E+02  0.73299550785E+02 0.  0.
         66    2    3    3    0    0 -0.41365570843E+00  0.16903266829E+02  0.19143400245E+02  0.25619549394E+02  0.19999994109E+01 0.  0.
         13    1    3    3    0    0  0.41365570843E+00 -0.16903266829E+02 -0.52050130701E+02  0.54727678652E+02  0.10566000000E+00 0. -1.
         13    1    4    4    0    0  0.20234499668E+00  0.11514235915E+02  0.12659077671E+02  0.17113795129E+02  0.10566000000E+00 0. -1.
        -13    1    4    4    0    0 -0.78120585516E+00  0.34559430497E+01  0.45287853678E+01  0.57510769334E+01  0.10566000000E+00 0.  1.
        -14    1    4    4    0    0  0.16520515005E+00  0.19330878642E+01  0.19555372069E+01  0.27546773314E+01  0.00000000000E+00 0.  1.
<mgrwt>
<rscale>  0 0.73299551E+02</rscale>
<asrwt>0</asrwt>
<pdfrwt beam="1">  1        1 0.87118430E-02 0.73299551E+02</pdfrwt>
<pdfrwt beam="2">  1       -2 0.36492690E-02 0.73299551E+02</pdfrwt>
<totfact> 0.17054049E+05</totfact>
</mgrwt>
</event>
<event>
 8    1  0.1319619E-024  0.8207355E+02  0.7818608E-02  0.1323268E+00
         -2   -1    0    0    0  501 -0.00000000000E+00  0.00000000000E+00  0.22601246929E+03  0.22601246930E+03  0.25500000000E-02 0.  1.
          1   -1    0    0  501    0  0.00000000000E+00 -0.00000000000E+00 -0.74509900917E+01  0.74509917963E+01  0.50400000000E-02 0. -1.
        -24    2    1    2    0    0 -0.35527136788E-14  0.00000000000E+00  0.21856147919E+03  0.23346346110E+03  0.82073549208E+02 0.  0.
         66    2    3    3    0    0 -0.22620954378E+02  0.20343623545E+01  0.20648494424E+03  0.20773992970E+03  0.19999962573E+01 0.  0.
         13    1    3    3    0    0  0.22620954378E+02 -0.20343623545E+01  0.12076534954E+02  0.25723531401E+02  0.10566000000E+00 0. -1.
         13    1    4    4    0    0 -0.11375422319E+02  0.15307761271E+01  0.10131323553E+03  0.10196139645E+03  0.10566000000E+00 0. -1.
        -13    1    4    4    0    0 -0.46447590054E+00 -0.18441904915E+00  0.49261505849E+01  0.49525621519E+01  0.10566000000E+00 0.  1.
        -14    1    4    4    0    0 -0.10781056159E+02  0.68800527653E+00  0.10024555813E+03  0.10082597109E+03  0.00000000000E+00 0.  1.
<mgrwt>
<rscale>  0 0.82073549E+02</rscale>
<asrwt>0</asrwt>
<pdfrwt beam="1">  1        1 0.11463065E-02 0.82073549E+02</pdfrwt>
<pdfrwt beam="2">  1       -2 0.34771143E-01 0.82073549E+02</pdfrwt>
<totfact> 0.75608763E+04</totfact>
</mgrwt>
</event>
<event>
 8    1  0.1319619E-024  0.8255190E+02  0.7818608E-02  0.1321962E+00
          1   -1    0    0  501    0  0.00000000000E+00  0.00000000000E+00  0.11886520059E+03  0.11886520069E+03  0.50400000000E-02 0. -1.
         -2   -1    0    0    0  501 -0.00000000000E+00 -0.00000000000E+00 -0.14333075130E+02  0.14333075357E+02  0.25500000000E-02 0.  1.
        -24    2    1    2    0    0  0.00000000000E+00  0.00000000000E+00  0.10453212546E+03  0.13319827605E+03  0.82551895741E+02 0.  0.
         66    2    3    3    0    0 -0.35718849599E+02 -0.20589336866E+02  0.50048214347E+02  0.64873575224E+02  0.19999984420E+01 0.  0.
         13    1    3    3    0    0  0.35718849599E+02  0.20589336866E+02  0.54483911110E+02  0.68324700827E+02  0.10566000000E+00 0. -1.
         13    1    4    4    0    0 -0.23110430386E+02 -0.14178538228E+02  0.31986520885E+02  0.41931749561E+02  0.10566000000E+00 0. -1.
        -13    1    4    4    0    0 -0.75188147617E+01 -0.38841145226E+01  0.10831527742E+02  0.13745984079E+02  0.10566000000E+00 0.  1.
         14    1    4    4    0    0 -0.50896044516E+01 -0.25266841149E+01  0.72301657201E+01  0.91958415836E+01  0.00000000000E+00 0. -1.
<mgrwt>
<rscale>  0 0.82551896E+02</rscale>
<asrwt>0</asrwt>
<pdfrwt beam="1">  1        1 0.18286954E-01 0.82551896E+02</pdfrwt>
<pdfrwt beam="2">  1       -2 0.22050885E-02 0.82551896E+02</pdfrwt>
<totfact> 0.13913041E+05</totfact>
</mgrwt>
</event>
<event>
 8    1  0.1319619E-024  0.8020312E+02  0.7818608E-02  0.1328476E+00
         -2   -1    0    0    0  501 -0.00000000000E+00  0.00000000000E+00  0.19878398567E+03  0.19878398569E+03  0.25500000000E-02 0.  1.
          1   -1    0    0  501    0  0.00000000000E+00 -0.00000000000E+00 -0.80898625035E+01  0.80898640735E+01  0.50400000000E-02 0. -1.
        -24    2    1    2    0    0  0.00000000000E+00  0.00000000000E+00  0.19069412317E+03  0.20687384976E+03  0.80203124030E+02 0.  0.
         66    2    3    3    0    0 -0.30130227711E+02  0.14918401273E+02  0.15166616980E+03  0.15536092297E+03  0.20000013540E+01 0.  0.
         13    1    3    3    0    0  0.30130227711E+02 -0.14918401273E+02  0.39027953361E+02  0.51512926786E+02  0.10566000000E+00 0. -1.
         13    1    4    4    0    0 -0.37952153243E+00  0.12607145330E+00  0.16708303427E+01  0.17212694951E+01  0.10566000000E+00 0.  1.
        -13    1    4    4    0    0 -0.26234558923E+02  0.13064793973E+02  0.13458371642E+03  0.13773789897E+03  0.10566000000E+00 0.  1.
        -14    1    4    4    0    0 -0.35161472554E+01  0.17275358471E+01  0.15411623042E+02  0.15901754507E+02  0.00000000000E+00 0.  1.
<mgrwt>
<rscale>  0 0.80203124E+02</rscale>
<asrwt>0</asrwt>
<pdfrwt beam="1">  1        1 0.12445944E-02 0.80203124E+02</pdfrwt>
<pdfrwt beam="2">  1       -2 0.30582149E-01 0.80203124E+02</pdfrwt>
<totfact> 0.84730303E+04</totfact>
</mgrwt>
</event>
<event>
 8    1  0.1319619E-024  0.8357575E+02  0.7818608E-02  0.1319200E+00
         -2   -1    0    0    0  501 -0.00000000000E+00  0.00000000000E+00  0.14807107964E+03  0.14807107966E+03  0.25500000000E-02 0.  1.
          1   -1    0    0  501    0  0.00000000000E+00 -0.00000000000E+00 -0.11793163023E+02  0.11793164100E+02  0.50400000000E-02 0. -1.
        -24    2    1    2    0    0  0.00000000000E+00  0.17763568394E-14  0.13627791661E+03  0.15986424376E+03  0.83575749330E+02 0.  0.
         66    2    3    3    0    0 -0.28096502184E+02 -0.11989888162E+02  0.12265259349E+03  0.12641530585E+03  0.20000025724E+01 0.  0.
         13    1    3    3    0    0  0.28096502184E+02  0.11989888162E+02  0.13625323127E+02  0.33448937912E+02  0.10566000000E+00 0. -1.
         13    1    4    4    0    0 -0.13664695881E+02 -0.48531400518E+01  0.59442735429E+02  0.61186002004E+02  0.10566000000E+00 0. -1.
        -13    1    4    4    0    0 -0.13326834574E+02 -0.64744758633E+01  0.58243951884E+02  0.60099022060E+02  0.10566000000E+00 0.  1.
         14    1    4    4    0    0 -0.11049717288E+01 -0.66227224653E+00  0.49659061739E+01  0.51302817835E+01  0.00000000000E+00 0. -1.
<mgrwt>
<rscale>  0 0.83575749E+02</rscale>
<asrwt>0</asrwt>
<pdfrwt beam="1">  1        1 0.18143329E-02 0.83575749E+02</pdfrwt>
<pdfrwt beam="2">  1       -2 0.22780166E-01 0.83575749E+02</pdfrwt>
<totfact> 0.84799897E+04</totfact>
</mgrwt>
</event>
<event>
 8    1  0.1319619E-024  0.7718569E+02  0.7818608E-02  0.1337233E+00
         -2   -1    0    0    0  501 -0.00000000000E+00  0.00000000000E+00  0.13898193788E+02  0.13898194022E+02  0.25500000000E-02 0.  1.
          1   -1    0    0  501    0  0.00000000000E+00 -0.00000000000E+00 -0.10716556682E+03  0.10716556694E+03  0.50400000000E-02 0. -1.
        -24    2    1    2    0    0  0.00000000000E+00  0.00000000000E+00 -0.93267373030E+02  0.12106376096E+03  0.77185693919E+02 0.  0.
         66    2    3    3    0    0 -0.36348536609E+01 -0.36864843834E+02 -0.63497643625E+02  0.73540326478E+02  0.20000001155E+01 0.  0.
         13    1    3    3    0    0  0.36348536609E+01  0.36864843834E+02 -0.29769729405E+02  0.47523434482E+02  0.10566000000E+00 0. -1.
         13    1    4    4    0    0 -0.23721680807E+01 -0.27152725824E+02 -0.47764694507E+02  0.54994317038E+02  0.10566000000E+00 0.  1.
        -13    1    4    4    0    0 -0.97417737986E-01 -0.28203913923E+00 -0.56616449112E+00  0.64864671304E+00  0.10566000000E+00 0. -1.
        -14    1    4    4    0    0 -0.11652678422E+01 -0.94300788710E+01 -0.15166784627E+02  0.17897362727E+02  0.00000000000E+00 0.  1.
<mgrwt>
<rscale>  0 0.77185694E+02</rscale>
<asrwt>0</asrwt>
<pdfrwt beam="1">  1        1 0.16487010E-01 0.77185694E+02</pdfrwt>
<pdfrwt beam="2">  1       -2 0.21381837E-02 0.77185694E+02</pdfrwt>
<totfact> 0.16376928E+05</totfact>
</mgrwt>
</event>
<event>
 8    1  0.1319619E-024  0.7830302E+02  0.7818608E-02  0.1333937E+00
         -2   -1    0    0    0  501 -0.00000000000E+00  0.00000000000E+00  0.11607412610E+03  0.11607412613E+03  0.25500000000E-02 0.  1.
          1   -1    0    0  501    0  0.00000000000E+00 -0.00000000000E+00 -0.13205704084E+02  0.13205705045E+02  0.50400000000E-02 0. -1.
        -24    2    1    2    0    0  0.00000000000E+00  0.35527136788E-14  0.10286842202E+03  0.12927983118E+03  0.78303017186E+02 0.  0.
         66    2    3    3    0    0 -0.12953100956E+02  0.25321028299E+02  0.95827547563E+02  0.99979278698E+02  0.19999996269E+01 0.  0.
         13    1    3    3    0    0  0.12953100956E+02 -0.25321028299E+02  0.70408744578E+01  0.29300552480E+02  0.10566000000E+00 0. -1.
         13    1    4    4    0    0 -0.44605959559E+01  0.10009218727E+02  0.39585370233E+02  0.41074250770E+02  0.10566000000E+00 0. -1.
        -13    1    4    4    0    0 -0.26545367944E+01  0.48172186551E+01  0.17818495131E+02  0.18648380464E+02  0.10566000000E+00 0.  1.
         14    1    4    4    0    0 -0.58379682056E+01  0.10494590917E+02  0.38423682199E+02  0.40256647464E+02  0.00000000000E+00 0. -1.
<mgrwt>
<rscale>  0 0.78303017E+02</rscale>
<asrwt>0</asrwt>
<pdfrwt beam="1">  1        1 0.20316469E-02 0.78303017E+02</pdfrwt>
<pdfrwt beam="2">  1       -2 0.17857557E-01 0.78303017E+02</pdfrwt>
<totfact> 0.10785148E+05</totfact>
</mgrwt>
</event>
<event>
 8    1  0.1319619E-024  0.8017119E+02  0.7818608E-02  0.1328566E+00
          1   -1    0    0  501    0  0.00000000000E+00  0.00000000000E+00  0.20105587097E+02  0.20105587729E+02  0.50400000000E-02 0. -1.
         -2   -1    0    0    0  501 -0.00000000000E+00 -0.00000000000E+00 -0.79920817218E+02  0.79920817259E+02  0.25500000000E-02 0.  1.
        -24    2    1    2    0    0  0.00000000000E+00  0.00000000000E+00 -0.59815230121E+02  0.10002640499E+03  0.80171191461E+02 0.  0.
         66    2    3    3    0    0 -0.72577248649E+01  0.39211192988E+02 -0.25149446356E+02  0.47187783186E+02  0.20000010675E+01 0.  0.
         13    1    3    3    0    0  0.72577248649E+01 -0.39211192988E+02 -0.34665783765E+02  0.52838621801E+02  0.10566000000E+00 0. -1.
         13    1    4    4    0    0 -0.10493097801E+01  0.67207633281E+01 -0.47741647881E+01  0.83110483206E+01  0.10566000000E+00 0. -1.
        -13    1    4    4    0    0 -0.39429414754E+01  0.19649699635E+02 -0.13134373121E+02  0.23962061776E+02  0.10566000000E+00 0.  1.
         14    1    4    4    0    0 -0.22654736094E+01  0.12840730025E+02 -0.72409084464E+01  0.14914673090E+02  0.00000000000E+00 0. -1.
<mgrwt>
<rscale>  0 0.80171191E+02</rscale>
<asrwt>0</asrwt>
<pdfrwt beam="1">  1        1 0.30931674E-02 0.80171191E+02</pdfrwt>
<pdfrwt beam="2">  1       -2 0.12295510E-01 0.80171191E+02</pdfrwt>
<totfact> 0.11117676E+05</totfact>
</mgrwt>
</event>
<event>
 8    1  0.1319619E-024  0.8258213E+02  0.7818608E-02  0.1321879E+00
         -2   -1    0    0    0  501 -0.00000000000E+00  0.00000000000E+00  0.23449759765E+02  0.23449759903E+02  0.25500000000E-02 0.  1.
          1   -1    0    0  501    0  0.00000000000E+00 -0.00000000000E+00 -0.72706588268E+02  0.72706588443E+02  0.50400000000E-02 0. -1.
        -24    2    1    2    0    0 -0.10658141036E-13 -0.35527136788E-14 -0.49256828504E+02  0.96156348346E+02  0.82582129865E+02 0.  0.
         66    2    3    3    0    0  0.31441007207E+02  0.18425452386E+02 -0.20974660942E+01  0.36557263985E+02  0.19999890659E+01 0.  0.
         13    1    3    3    0    0 -0.31441007207E+02 -0.18425452386E+02 -0.47159362409E+02  0.59599084361E+02  0.10566000000E+00 0. -1.
         13    1    4    4    0    0  0.15998865190E+01  0.84597706092E+00 -0.36333413703E+00  0.18489158423E+01  0.10566000000E+00 0. -1.
        -13    1    4    4    0    0  0.21384180000E+02  0.11910587295E+02 -0.15226862987E+01  0.24524986882E+02  0.10566000000E+00 0.  1.
         14    1    4    4    0    0  0.84569406880E+01  0.56688880303E+01 -0.21144565850E+00  0.10183361261E+02  0.00000000000E+00 0. -1.
<mgrwt>
<rscale>  0 0.82582130E+02</rscale>
<asrwt>0</asrwt>
<pdfrwt beam="1">  1        1 0.11185629E-01 0.82582130E+02</pdfrwt>
<pdfrwt beam="2">  1       -2 0.36076554E-02 0.82582130E+02</pdfrwt>
<totfact> 0.12790964E+05</totfact>
</mgrwt>
</event>
<event>
 8    1  0.1319619E-024  0.7972155E+02  0.7818608E-02  0.1329844E+00
         -2   -1    0    0    0  501 -0.00000000000E+00  0.00000000000E+00  0.63796738695E+01  0.63796743791E+01  0.25500000000E-02 0.  1.
          1   -1    0    0  501    0  0.00000000000E+00 -0.00000000000E+00 -0.24905367112E+03  0.24905367118E+03  0.50400000000E-02 0. -1.
        -24    2    1    2    0    0  0.00000000000E+00  0.00000000000E+00 -0.24267399726E+03  0.25543334555E+03  0.79721547134E+02 0.  0.
         66    2    3    3    0    0 -0.38807502701E+02  0.87427973493E+01 -0.12814741194E+03  0.13419470205E+03  0.20000248716E+01 0.  0.
         13    1    3    3    0    0  0.38807502701E+02 -0.87427973493E+01 -0.11452658531E+03  0.12123864350E+03  0.10566000000E+00 0. -1.
         13    1    4    4    0    0 -0.77695287479E+01  0.20493565461E+01 -0.23637085047E+02  0.24965744387E+02  0.10566000000E+00 0. -1.
        -13    1    4    4    0    0 -0.12223046442E+02  0.25995270802E+01 -0.40121530203E+02  0.42022717133E+02  0.10566000000E+00 0.  1.
        -14    1    4    4    0    0 -0.18814927510E+02  0.40939137229E+01 -0.64388796694E+02  0.67206240533E+02  0.00000000000E+00 0.  1.
<mgrwt>
<rscale>  0 0.79721547E+02</rscale>
<asrwt>0</asrwt>
<pdfrwt beam="1">  1        1 0.38315942E-01 0.79721547E+02</pdfrwt>
<pdfrwt beam="2">  1       -2 0.98148852E-03 0.79721547E+02</pdfrwt>
<totfact> 0.17563583E+05</totfact>
</mgrwt>
</event>
<event>
 8    1  0.1319619E-024  0.7798398E+02  0.7818608E-02  0.1334872E+00
         -2   -1    0    0    0  501 -0.00000000000E+00  0.00000000000E+00  0.24216561774E+02  0.24216561908E+02  0.25500000000E-02 0.  1.
          1   -1    0    0  501    0  0.00000000000E+00 -0.00000000000E+00 -0.62782453605E+02  0.62782453807E+02  0.50400000000E-02 0. -1.
        -24    2    1    2    0    0 -0.71054273576E-14  0.00000000000E+00 -0.38565891831E+02  0.86999015715E+02  0.77983977346E+02 0.  0.
         66    2    3    3    0    0  0.33431779217E+02  0.12833211717E+02 -0.21575824188E+01  0.35930910768E+02  0.20000005252E+01 0.  0.
         13    1    3    3    0    0 -0.33431779217E+02 -0.12833211717E+02 -0.36408309412E+02  0.51068104947E+02  0.10566000000E+00 0. -1.
         13    1    4    4    0    0  0.14654200742E+02  0.46391433732E+01 -0.76252725164E+00  0.15390252190E+02  0.10566000000E+00 0. -1.
        -13    1    4    4    0    0  0.12782336849E+01  0.62083677793E+00 -0.61195905879E-01  0.14262638720E+01  0.10566000000E+00 0.  1.
         14    1    4    4    0    0  0.17499344791E+02  0.75732315659E+01 -0.13338592613E+01  0.19114394706E+02  0.00000000000E+00 0. -1.
<mgrwt>
<rscale>  0 0.77983977E+02</rscale>
<asrwt>0</asrwt>
<pdfrwt beam="1">  1        1 0.96588390E-02 0.77983977E+02</pdfrwt>
<pdfrwt beam="2">  1       -2 0.37256249E-02 0.77983977E+02</pdfrwt>
<totfact> 0.14624627E+05</totfact>
</mgrwt>
</event>
<event>
 8    1  0.1319619E-024  0.8068025E+02  0.7818608E-02  0.1327132E+00
          1   -1    0    0  501    0  0.00000000000E+00  0.00000000000E+00  0.20129773934E+02  0.20129774565E+02  0.50400000000E-02 0. -1.
         -2   -1    0    0    0  501 -0.00000000000E+00 -0.00000000000E+00 -0.80841725921E+02  0.80841725961E+02  0.25500000000E-02 0.  1.
        -24    2    1    2    0    0  0.88817841970E-15  0.00000000000E+00 -0.60711951987E+02  0.10097150053E+03  0.80680250400E+02 0.  0.
         66    2    3    3    0    0 -0.68808073846E+01 -0.28872448636E+02 -0.64519190533E+02  0.71047095271E+02  0.19999997143E+01 0.  0.
         13    1    3    3    0    0  0.68808073846E+01  0.28872448636E+02  0.38072385466E+01  0.29924405256E+02  0.10566000000E+00 0. -1.
         13    1    4    4    0    0 -0.35338271498E+01 -0.11729383000E+02 -0.27413561581E+02  0.30026336481E+02  0.10566000000E+00 0. -1.
        -13    1    4    4    0    0 -0.12938853971E+01 -0.88942983353E+01 -0.18948843056E+02  0.20972660763E+02  0.10566000000E+00 0.  1.
         14    1    4    4    0    0 -0.20530948377E+01 -0.82487673012E+01 -0.18156785896E+02  0.20048098027E+02  0.00000000000E+00 0. -1.
<mgrwt>
<rscale>  0 0.80680250E+02</rscale>
<asrwt>0</asrwt>
<pdfrwt beam="1">  1        1 0.30968884E-02 0.80680250E+02</pdfrwt>
<pdfrwt beam="2">  1       -2 0.12437188E-01 0.80680250E+02</pdfrwt>
<totfact> 0.10912587E+05</totfact>
</mgrwt>
</event>
<event>
 8    1  0.1319619E-024  0.7879805E+02  0.7818608E-02  0.1332497E+00
         -2   -1    0    0    0  501 -0.00000000000E+00  0.00000000000E+00  0.82354777320E+01  0.82354781268E+01  0.25500000000E-02 0.  1.
          1   -1    0    0  501    0  0.00000000000E+00 -0.00000000000E+00 -0.18848729838E+03  0.18848729844E+03  0.50400000000E-02 0. -1.
        -24    2    1    2    0    0  0.00000000000E+00  0.00000000000E+00 -0.18025182064E+03  0.19672277657E+03  0.78798045509E+02 0.  0.
         66    2    3    3    0    0  0.38114178606E+02  0.93360641388E+01 -0.82122887515E+02  0.91038570628E+02  0.19999959669E+01 0.  0.
         13    1    3    3    0    0 -0.38114178606E+02 -0.93360641388E+01 -0.98128933129E+02  0.10568420594E+03  0.10566000000E+00 0. -1.
         13    1    4    4    0    0  0.47270339829E+01  0.80114894682E+00 -0.11040056990E+02  0.12036640407E+02  0.10566000000E+00 0. -1.
        -13    1    4    4    0    0  0.23431988973E+02  0.59456087563E+01 -0.50883830576E+02  0.56334569749E+02  0.10566000000E+00 0.  1.
        -14    1    4    4    0    0  0.99551556507E+01  0.25893064357E+01 -0.20198999948E+02  0.22667360472E+02  0.00000000000E+00 0.  1.
<mgrwt>
<rscale>  0 0.78798046E+02</rscale>
<asrwt>0</asrwt>
<pdfrwt beam="1">  1        1 0.28998043E-01 0.78798046E+02</pdfrwt>
<pdfrwt beam="2">  1       -2 0.12669967E-02 0.78798046E+02</pdfrwt>
<totfact> 0.17160013E+05</totfact>
</mgrwt>
</event>
<event>
 8    1  0.1319619E-024  0.8271751E+02  0.7818608E-02  0.1321512E+00
          1   -1    0    0  501    0  0.00000000000E+00  0.00000000000E+00  0.44236887856E+01  0.44236916567E+01  0.50400000000E-02 0. -1.
         -2   -1    0    0    0  501 -0.00000000000E+00 -0.00000000000E+00 -0.38667863321E+03  0.38667863322E+03  0.25500000000E-02 0.  1.
        -24    2    1    2    0    0  0.00000000000E+00  0.00000000000E+00 -0.38225494442E+03  0.39110232487E+03  0.82717507130E+02 0.  0.
         66    2    3    3    0    0  0.26699986100E+02  0.76803181556E+01 -0.33594441387E+03  0.33709720522E+03  0.20000027936E+01 0.  0.
         13    1    3    3    0    0 -0.26699986100E+02 -0.76803181556E+01 -0.46310530548E+02  0.54005119650E+02  0.10566000000E+00 0. -1.
         13    1    4    4    0    0  0.17922276008E+01  0.66482572751E+00 -0.19813397135E+02  0.19905676153E+02  0.10566000000E+00 0. -1.
        -13    1    4    4    0    0  0.13178413063E+02  0.36598909993E+01 -0.17570855243E+03  0.17624009740E+03  0.10566000000E+00 0.  1.
        -14    1    4    4    0    0  0.11729345437E+02  0.33556014288E+01 -0.14042246431E+03  0.14095143167E+03  0.00000000000E+00 0.  1.
<mgrwt>
<rscale>  0 0.82717507E+02</rscale>
<asrwt>0</asrwt>
<pdfrwt beam="1">  1        1 0.68056803E-03 0.82717507E+02</pdfrwt>
<pdfrwt beam="2">  1       -2 0.59488994E-01 0.82717507E+02</pdfrwt>
<totfact> 0.55416773E+04</totfact>
</mgrwt>
</event>
<event>
 8    1  0.1658339E-024  0.8088042E+02  0.7818608E-02  0.1326571E+00
          1   -1    0    0  501    0  0.00000000000E+00  0.00000000000E+00  0.13238418749E+03  0.13238418759E+03  0.50400000000E-02 0. -1.
         -2   -1    0    0    0  501 -0.00000000000E+00 -0.00000000000E+00 -0.12353519285E+02  0.12353519548E+02  0.25500000000E-02 0.  1.
        -24    2    1    2    0    0  0.00000000000E+00  0.35527136788E-14  0.12003066821E+03  0.14473770714E+03  0.80880421344E+02 0.  0.
         66    2    3    3    0    0 -0.23629300096E+01  0.22428568628E+02  0.35193133669E-01  0.22641231630E+02  0.20000005617E+01 0.  0.
         13    1    3    3    0    0  0.23629300096E+01 -0.22428568628E+02  0.11999547507E+03  0.12209647551E+03  0.10566000000E+00 0. -1.
         13    1    4    4    0    0  0.50774261138E-01  0.10673588251E+00 -0.40945580533E-01  0.16374110777E+00  0.10566000000E+00 0. -1.
        -13    1    4    4    0    0 -0.73366885378E+00  0.10978934945E+02 -0.23892393492E+00  0.11006522212E+02  0.10566000000E+00 0.  1.
        -14    1    4    4    0    0 -0.16800354170E+01  0.11342897800E+02  0.31506264912E+00  0.11470968310E+02  0.00000000000E+00 0.  1.
<mgrwt>
<rscale>  0 0.80880421E+02</rscale>
<asrwt>0</asrwt>
<pdfrwt beam="1">  1        1 0.20366798E-01 0.80880421E+02</pdfrwt>
<pdfrwt beam="2">  1       -2 0.19005415E-02 0.80880421E+02</pdfrwt>
<totfact> 0.14986788E+05</totfact>
</mgrwt>
</event>
<event>
 8    1  0.1319619E-024  0.7914296E+02  0.7818608E-02  0.1331501E+00
          1   -1    0    0  501    0  0.00000000000E+00  0.00000000000E+00  0.10700667281E+03  0.10700667293E+03  0.50400000000E-02 0. -1.
         -2   -1    0    0    0  501 -0.00000000000E+00 -0.00000000000E+00 -0.14633686806E+02  0.14633687028E+02  0.25500000000E-02 0.  1.
        -24    2    1    2    0    0 -0.17763568394E-14  0.71054273576E-14  0.92372986007E+02  0.12164035996E+03  0.79142963221E+02 0.  0.
         66    2    3    3    0    0 -0.15928488067E+02  0.21952236481E+02  0.19821384690E+01  0.27268044627E+02  0.19999915709E+01 0.  0.
         13    1    3    3    0    0  0.15928488067E+02 -0.21952236481E+02  0.90390847539E+02  0.94372315333E+02  0.10566000000E+00 0. -1.
         13    1    4    4    0    0 -0.60269396538E+01  0.70973408020E+01  0.20454983586E+00  0.93139278890E+01  0.10566000000E+00 0. -1.
        -13    1    4    4    0    0 -0.16227133935E+01  0.25280661540E+01  0.53683401092E+00  0.30534688516E+01  0.10566000000E+00 0.  1.
        -14    1    4    4    0    0 -0.82788350195E+01  0.12326829525E+02  0.12407546222E+01  0.14900647887E+02  0.00000000000E+00 0.  1.
<mgrwt>
<rscale>  0 0.79142963E+02</rscale>
<asrwt>0</asrwt>
<pdfrwt beam="1">  1        1 0.16462565E-01 0.79142963E+02</pdfrwt>
<pdfrwt beam="2">  1       -2 0.22513365E-02 0.79142963E+02</pdfrwt>
<totfact> 0.15306695E+05</totfact>
</mgrwt>
</event>
<event>
 8    1  0.1320245E-024  0.8014033E+02  0.7818608E-02  0.1328654E+00
          1   -1    0    0  501    0  0.00000000000E+00  0.00000000000E+00  0.95533547242E+01  0.95533560537E+01  0.50400000000E-02 0. -1.
         -2   -1    0    0    0  501 -0.00000000000E+00 -0.00000000000E+00 -0.16806850965E+03  0.16806850967E+03  0.25500000000E-02 0.  1.
        -24    2    1    2    0    0  0.35527136788E-14  0.88817841970E-15 -0.15851515492E+03  0.17762186572E+03  0.80140332178E+02 0.  0.
         66    2    3    3    0    0  0.23310809566E+02  0.54761861624E+01 -0.15044658794E+03  0.15235339931E+03  0.20000001195E+01 0.  0.
         13    1    3    3    0    0 -0.23310809566E+02 -0.54761861624E+01 -0.80685669798E+01  0.25268466409E+02  0.10566000000E+00 0. -1.
         13    1    4    4    0    0  0.74991620640E-01  0.30920321202E-01 -0.83175136209E+00  0.84235038634E+00  0.10566000000E+00 0.  1.
        -13    1    4    4    0    0  0.15197324520E+02  0.41419623135E+01 -0.98843879114E+02  0.10009114909E+03  0.10566000000E+00 0.  1.
        -14    1    4    4    0    0  0.80384934252E+01  0.13033035277E+01 -0.50770957467E+02  0.51419899832E+02  0.00000000000E+00 0.  1.
<mgrwt>
<rscale>  0 0.80140332E+02</rscale>
<asrwt>0</asrwt>
<pdfrwt beam="1">  1        1 0.14697471E-02 0.80140332E+02</pdfrwt>
<pdfrwt beam="2">  1       -2 0.25856692E-01 0.80140332E+02</pdfrwt>
<totfact> 0.90491871E+04</totfact>
</mgrwt>
</event>
<event>
 8    1  0.1319619E-024  0.7858936E+02  0.7818608E-02  0.1333103E+00
         -2   -1    0    0    0  501 -0.00000000000E+00  0.00000000000E+00  0.13214743794E+03  0.13214743796E+03  0.25500000000E-02 0.  1.
          1   -1    0    0  501    0  0.00000000000E+00 -0.00000000000E+00 -0.11684463375E+02  0.11684464462E+02  0.50400000000E-02 0. -1.
        -24    2    1    2    0    0  0.00000000000E+00  0.00000000000E+00  0.12046297456E+03  0.14383190242E+03  0.78589362602E+02 0.  0.
         66    2    3    3    0    0 -0.42254999658E+01 -0.35412454304E+02  0.90352631228E+02  0.97157062203E+02  0.19999990746E+01 0.  0.
         13    1    3    3    0    0  0.42254999658E+01  0.35412454304E+02  0.30110343334E+02  0.46674840219E+02  0.10566000000E+00 0. -1.
         13    1    4    4    0    0 -0.92545657138E+00 -0.50932603697E+01  0.14652627326E+02  0.15540541260E+02  0.10566000000E+00 0.  1.
        -13    1    4    4    0    0 -0.19684742063E+01 -0.14887697441E+02  0.37729580504E+02  0.40608506927E+02  0.10566000000E+00 0.  1.
        -14    1    4    4    0    0 -0.13315691881E+01 -0.15431496493E+02  0.37970423398E+02  0.41008014016E+02  0.00000000000E+00 0.  1.
<mgrwt>
<rscale>  0 0.78589363E+02</rscale>
<asrwt>0</asrwt>
<pdfrwt beam="1">  1        1 0.17976098E-02 0.78589363E+02</pdfrwt>
<pdfrwt beam="2">  1       -2 0.20330375E-01 0.78589363E+02</pdfrwt>
<totfact> 0.10294949E+05</totfact>
</mgrwt>
</event>
<event>
 8    1  0.1319619E-024  0.7568515E+02  0.7818608E-02  0.1341762E+00
         -2   -1    0    0    0  501 -0.00000000000E+00  0.00000000000E+00  0.29289376040E+02  0.29289376151E+02  0.25500000000E-02 0.  1.
          1   -1    0    0  501    0  0.00000000000E+00 -0.00000000000E+00 -0.48893511388E+02  0.48893511648E+02  0.50400000000E-02 0. -1.
        -24    2    1    2    0    0 -0.71054273576E-14 -0.88817841970E-15 -0.19604135349E+02  0.78182887799E+02  0.75685149282E+02 0.  0.
         66    2    3    3    0    0  0.37068049028E+02  0.44967026363E+01 -0.15989229098E+02  0.40668366550E+02  0.19999993366E+01 0.  0.
         13    1    3    3    0    0 -0.37068049028E+02 -0.44967026363E+01 -0.36149062506E+01  0.37514521249E+02  0.10566000000E+00 0. -1.
         13    1    4    4    0    0  0.35098145024E+01  0.39967471947E+00 -0.10924580331E+01  0.36990764134E+01  0.10566000000E+00 0. -1.
        -13    1    4    4    0    0  0.13986084470E+02  0.10682317355E+01 -0.59433246674E+01  0.15234367397E+02  0.10566000000E+00 0.  1.
        -14    1    4    4    0    0  0.19572150056E+02  0.30287961813E+01 -0.89534463974E+01  0.21734922740E+02  0.00000000000E+00 0.  1.
<mgrwt>
<rscale>  0 0.75685149E+02</rscale>
<asrwt>0</asrwt>
<pdfrwt beam="1">  1        1 0.75220787E-02 0.75685149E+02</pdfrwt>
<pdfrwt beam="2">  1       -2 0.45060579E-02 0.75685149E+02</pdfrwt>
<totfact> 0.15288775E+05</totfact>
</mgrwt>
</event>
<event>
 8    1  0.1319619E-024  0.7735098E+02  0.7818608E-02  0.1336742E+00
          1   -1    0    0  501    0  0.00000000000E+00  0.00000000000E+00  0.87377252076E+01  0.87377266611E+01  0.50400000000E-02 0. -1.
         -2   -1    0    0    0  501 -0.00000000000E+00 -0.00000000000E+00 -0.17118795988E+03  0.17118795990E+03  0.25500000000E-02 0.  1.
        -24    2    1    2    0    0  0.00000000000E+00  0.00000000000E+00 -0.16245023467E+03  0.17992568656E+03  0.77350978914E+02 0.  0.
         66    2    3    3    0    0 -0.18231312111E+02 -0.18744253908E+02 -0.14748356156E+03  0.14979695835E+03  0.20000004654E+01 0.  0.
         13    1    3    3    0    0  0.18231312111E+02  0.18744253908E+02 -0.14966673106E+02  0.30128728213E+02  0.10566000000E+00 0. -1.
         13    1    4    4    0    0 -0.27150401602E+01 -0.28592677014E+01 -0.25495621313E+02  0.25798928758E+02  0.10566000000E+00 0. -1.
        -13    1    4    4    0    0 -0.32456623912E+01 -0.26973392586E+01 -0.22614301783E+02  0.23004951046E+02  0.10566000000E+00 0.  1.
         14    1    4    4    0    0 -0.12270609559E+02 -0.13187646948E+02 -0.99373638468E+02  0.10099307854E+03  0.00000000000E+00 0. -1.
<mgrwt>
<rscale>  0 0.77350979E+02</rscale>
<asrwt>0</asrwt>
<pdfrwt beam="1">  1        1 0.13442657E-02 0.77350979E+02</pdfrwt>
<pdfrwt beam="2">  1       -2 0.26336607E-01 0.77350979E+02</pdfrwt>
<totfact> 0.98480312E+04</totfact>
</mgrwt>
</event>
<event>
 8    1  0.1319619E-024  0.8082430E+02  0.7818608E-02  0.1326728E+00
         -2   -1    0    0    0  501 -0.00000000000E+00  0.00000000000E+00  0.19893321716E+02  0.19893321880E+02  0.25500000000E-02 0.  1.
          1   -1    0    0  501    0  0.00000000000E+00 -0.00000000000E+00 -0.82094971351E+02  0.82094971506E+02  0.50400000000E-02 0. -1.
        -24    2    1    2    0    0  0.00000000000E+00 -0.71054273576E-14 -0.62201649635E+02  0.10198829339E+03  0.80824295669E+02 0.  0.
         66    2    3    3    0    0  0.54560031122E+01  0.34598703540E+02 -0.57475382813E+01  0.35550983767E+02  0.19999984787E+01 0.  0.
         13    1    3    3    0    0 -0.54560031122E+01 -0.34598703540E+02 -0.56454111353E+02  0.66437309619E+02  0.10566000000E+00 0. -1.
         13    1    4    4    0    0  0.17999544327E+00  0.18087624713E+01 -0.70033931339E+00  0.19508098900E+01  0.10566000000E+00 0. -1.
        -13    1    4    4    0    0  0.13281016005E+01  0.10102130236E+02 -0.14558722726E+01  0.10293085896E+02  0.10566000000E+00 0.  1.
         14    1    4    4    0    0  0.39479060684E+01  0.22687810833E+02 -0.35913266953E+01  0.23307087981E+02  0.00000000000E+00 0. -1.
<mgrwt>
<rscale>  0 0.80824296E+02</rscale>
<asrwt>0</asrwt>
<pdfrwt beam="1">  1        1 0.12629996E-01 0.80824296E+02</pdfrwt>
<pdfrwt beam="2">  1       -2 0.30605111E-02 0.80824296E+02</pdfrwt>
<totfact> 0.13836952E+05</totfact>
</mgrwt>
</event>
<event>
 8    1  0.1319619E-024  0.8047928E+02  0.7818608E-02  0.1327697E+00
         -2   -1    0    0    0  501 -0.00000000000E+00  0.00000000000E+00  0.27179605659E+02  0.27179605779E+02  0.25500000000E-02 0.  1.
          1   -1    0    0  501    0  0.00000000000E+00 -0.00000000000E+00 -0.59575139272E+02  0.59575139485E+02  0.50400000000E-02 0. -1.
        -24    2    1    2    0    0 -0.88817841970E-15  0.00000000000E+00 -0.32395533613E+02  0.86754745264E+02  0.80479284463E+02 0.  0.
         66    2    3    3    0    0 -0.76875184253E+01 -0.14832418757E+02  0.23225048808E+02  0.28679286259E+02  0.19999956079E+01 0.  0.
         13    1    3    3    0    0  0.76875184253E+01  0.14832418757E+02 -0.55620582421E+02  0.58075459005E+02  0.10566000000E+00 0. -1.
         13    1    4    4    0    0 -0.20878731993E+01 -0.33908085592E+01  0.42884435431E+01  0.58530939886E+01  0.10566000000E+00 0. -1.
        -13    1    4    4    0    0 -0.51816730877E+01 -0.10354139332E+02  0.17299427963E+02  0.20816803529E+02  0.10566000000E+00 0.  1.
         14    1    4    4    0    0 -0.41797213839E+00 -0.10874708659E+01  0.16371773020E+01  0.20093887406E+01  0.00000000000E+00 0. -1.
<mgrwt>
<rscale>  0 0.80479284E+02</rscale>
<asrwt>0</asrwt>
<pdfrwt beam="1">  1        1 0.91654061E-02 0.80479284E+02</pdfrwt>
<pdfrwt beam="2">  1       -2 0.41814778E-02 0.80479284E+02</pdfrwt>
<totfact> 0.13302405E+05</totfact>
</mgrwt>
</event>
<event>
 8    1  0.1319619E-024  0.7934398E+02  0.7818608E-02  0.1330923E+00
         -2   -1    0    0    0  501 -0.00000000000E+00  0.00000000000E+00  0.42314447221E+03  0.42314447221E+03  0.25500000000E-02 0.  1.
          1   -1    0    0  501    0  0.00000000000E+00 -0.00000000000E+00 -0.37194534775E+01  0.37194568921E+01  0.50400000000E-02 0. -1.
        -24    2    1    2    0    0  0.00000000000E+00  0.71054273576E-14  0.41942501873E+03  0.42686392911E+03  0.79343982987E+02 0.  0.
         66    2    3    3    0    0 -0.24289844712E+02 -0.31249178999E+02  0.22229406217E+03  0.22579893230E+03  0.20000014994E+01 0.  0.
         13    1    3    3    0    0  0.24289844712E+02  0.31249178999E+02  0.19713095655E+03  0.20106499680E+03  0.10566000000E+00 0. -1.
         13    1    4    4    0    0 -0.92323096545E+01 -0.12355379981E+02  0.82289144935E+02  0.83722192364E+02  0.10566000000E+00 0.  1.
        -13    1    4    4    0    0 -0.24073176641E+01 -0.27308310352E+01  0.22443142661E+02  0.22736719926E+02  0.10566000000E+00 0. -1.
        -14    1    4    4    0    0 -0.12650217393E+02 -0.16162967982E+02  0.11756177458E+03  0.11934002001E+03  0.00000000000E+00 0.  1.
<mgrwt>
<rscale>  0 0.79343983E+02</rscale>
<asrwt>0</asrwt>
<pdfrwt beam="1">  1        1 0.57222413E-03 0.79343983E+02</pdfrwt>
<pdfrwt beam="2">  1       -2 0.65099121E-01 0.79343983E+02</pdfrwt>
<totfact> 0.58113493E+04</totfact>
</mgrwt>
</event>
<event>
 8    1  0.1319619E-024  0.7974957E+02  0.7818608E-02  0.1329764E+00
          1   -1    0    0  501    0  0.00000000000E+00  0.00000000000E+00  0.57314267500E+01  0.57314289660E+01  0.50400000000E-02 0. -1.
         -2   -1    0    0    0  501 -0.00000000000E+00 -0.00000000000E+00 -0.27741754009E+03  0.27741754010E+03  0.25500000000E-02 0.  1.
        -24    2    1    2    0    0  0.00000000000E+00  0.00000000000E+00 -0.27168611334E+03  0.28314896907E+03  0.79749573681E+02 0.  0.
         66    2    3    3    0    0 -0.25602433110E+02 -0.20458077159E+02 -0.21642125257E+03  0.21889763832E+03  0.19999995655E+01 0.  0.
         13    1    3    3    0    0  0.25602433110E+02  0.20458077159E+02 -0.55264860771E+02  0.64251330743E+02  0.10566000000E+00 0. -1.
         13    1    4    4    0    0 -0.12116044904E+02 -0.87444665424E+01 -0.95223969391E+02  0.96389209717E+02  0.10566000000E+00 0. -1.
        -13    1    4    4    0    0 -0.67083623119E+01 -0.55434627687E+01 -0.57364446716E+02  0.58020884304E+02  0.10566000000E+00 0.  1.
         14    1    4    4    0    0 -0.67780258942E+01 -0.61701478479E+01 -0.63832836460E+02  0.64487544302E+02  0.00000000000E+00 0. -1.
<mgrwt>
<rscale>  0 0.79749574E+02</rscale>
<asrwt>0</asrwt>
<pdfrwt beam="1">  1        1 0.88175835E-03 0.79749574E+02</pdfrwt>
<pdfrwt beam="2">  1       -2 0.42679611E-01 0.79749574E+02</pdfrwt>
<totfact> 0.73835334E+04</totfact>
</mgrwt>
</event>
<event>
 8    1  0.1319619E-024  0.7772799E+02  0.7818608E-02  0.1335626E+00
          1   -1    0    0  501    0  0.00000000000E+00  0.00000000000E+00  0.49493768382E+02  0.49493768639E+02  0.50400000000E-02 0. -1.
         -2   -1    0    0    0  501 -0.00000000000E+00 -0.00000000000E+00 -0.30517173401E+02  0.30517173507E+02  0.25500000000E-02 0.  1.
        -24    2    1    2    0    0  0.00000000000E+00  0.00000000000E+00  0.18976594981E+02  0.80010942146E+02  0.77727985346E+02 0.  0.
         66    2    3    3    0    0 -0.29676812815E+01 -0.27961587271E+02 -0.18083123961E+02  0.33491146069E+02  0.19999994693E+01 0.  0.
         13    1    3    3    0    0  0.29676812815E+01  0.27961587271E+02  0.37059718943E+02  0.46519796077E+02  0.10566000000E+00 0. -1.
         13    1    4    4    0    0 -0.17436908846E+00 -0.40644592906E+00 -0.40910178937E+00  0.61166263734E+00  0.10566000000E+00 0. -1.
        -13    1    4    4    0    0 -0.25531643868E+00 -0.81687603116E+01 -0.52215001816E+01  0.96989205427E+01  0.10566000000E+00 0.  1.
         14    1    4    4    0    0 -0.25379957544E+01 -0.19386381031E+02 -0.12452521990E+02  0.23180562889E+02  0.00000000000E+00 0. -1.
<mgrwt>
<rscale>  0 0.77727985E+02</rscale>
<asrwt>0</asrwt>
<pdfrwt beam="1">  1        1 0.76144259E-02 0.77727985E+02</pdfrwt>
<pdfrwt beam="2">  1       -2 0.46949498E-02 0.77727985E+02</pdfrwt>
<totfact> 0.14229954E+05</totfact>
</mgrwt>
</event>
<event>
 8    1  0.1319619E-024  0.8089305E+02  0.7818608E-02  0.1326536E+00
         -2   -1    0    0    0  501 -0.00000000000E+00  0.00000000000E+00  0.52407629867E+02  0.52407629929E+02  0.25500000000E-02 0.  1.
          1   -1    0    0  501    0  0.00000000000E+00 -0.00000000000E+00 -0.31215330569E+02  0.31215330976E+02  0.50400000000E-02 0. -1.
        -24    2    1    2    0    0  0.71054273576E-14  0.00000000000E+00  0.21192299298E+02  0.83622960906E+02  0.80893053108E+02 0.  0.
         66    2    3    3    0    0  0.36029582811E+02  0.93330591511E+01  0.26904368870E+02  0.45968270182E+02  0.19999921519E+01 0.  0.
         13    1    3    3    0    0 -0.36029582811E+02 -0.93330591511E+01 -0.57120695721E+01  0.37654690723E+02  0.10566000000E+00 0. -1.
         13    1    4    4    0    0  0.12195947636E+02  0.24583146300E+01  0.83893823710E+01  0.15005910508E+02  0.10566000000E+00 0. -1.
        -13    1    4    4    0    0  0.13182308525E+02  0.35190679840E+01  0.10484738364E+02  0.17207498369E+02  0.10566000000E+00 0.  1.
         14    1    4    4    0    0  0.10651326650E+02  0.33556765371E+01  0.80302481352E+01  0.13754861306E+02  0.00000000000E+00 0. -1.
<mgrwt>
<rscale>  0 0.80893053E+02</rscale>
<asrwt>0</asrwt>
<pdfrwt beam="1">  1        1 0.48023587E-02 0.80893053E+02</pdfrwt>
<pdfrwt beam="2">  1       -2 0.80627122E-02 0.80893053E+02</pdfrwt>
<totfact> 0.11797735E+05</totfact>
</mgrwt>
</event>
<event>
 8    1  0.1319619E-024  0.7986072E+02  0.7818608E-02  0.1329447E+00
         -2   -1    0    0    0  501 -0.00000000000E+00  0.00000000000E+00  0.72894515249E+02  0.72894515293E+02  0.25500000000E-02 0.  1.
          1   -1    0    0  501    0  0.00000000000E+00 -0.00000000000E+00 -0.21873162676E+02  0.21873163257E+02  0.50400000000E-02 0. -1.
        -24    2    1    2    0    0  0.00000000000E+00  0.00000000000E+00  0.51021352573E+02  0.94767678550E+02  0.79860719251E+02 0.  0.
         66    2    3    3    0    0  0.29722334505E+02  0.24003968226E+02  0.39202672849E+02  0.54776429338E+02  0.19999983693E+01 0.  0.
         13    1    3    3    0    0 -0.29722334505E+02 -0.24003968226E+02  0.11818679724E+02  0.39991249212E+02  0.10566000000E+00 0. -1.
         13    1    4    4    0    0  0.67826010370E+01  0.51425451865E+01  0.79221128153E+01  0.11628434259E+02  0.10566000000E+00 0. -1.
        -13    1    4    4    0    0  0.12534738172E+02  0.10423279350E+02  0.16364735489E+02  0.23099353781E+02  0.10566000000E+00 0.  1.
        -14    1    4    4    0    0  0.10404995297E+02  0.84381436899E+01  0.14915824545E+02  0.20048641298E+02  0.00000000000E+00 0.  1.
<mgrwt>
<rscale>  0 0.79860719E+02</rscale>
<asrwt>0</asrwt>
<pdfrwt beam="1">  1        1 0.33651020E-02 0.79860719E+02</pdfrwt>
<pdfrwt beam="2">  1       -2 0.11214541E-01 0.79860719E+02</pdfrwt>
<totfact> 0.11447597E+05</totfact>
</mgrwt>
</event>
<event>
 8    1  0.1319619E-024  0.8167840E+02  0.7818608E-02  0.1324355E+00
          1   -1    0    0  501    0  0.00000000000E+00  0.00000000000E+00  0.27046677845E+02  0.27046678315E+02  0.50400000000E-02 0. -1.
         -2   -1    0    0    0  501 -0.00000000000E+00 -0.00000000000E+00 -0.61665258730E+02  0.61665258783E+02  0.25500000000E-02 0.  1.
        -24    2    1    2    0    0  0.00000000000E+00 -0.44408920985E-15 -0.34618580885E+02  0.88711937097E+02  0.81678403762E+02 0.  0.
         66    2    3    3    0    0  0.16431213445E+02  0.32510949895E+01 -0.57744056693E+02  0.60157547080E+02  0.19999983530E+01 0.  0.
         13    1    3    3    0    0 -0.16431213445E+02 -0.32510949895E+01  0.23125475808E+02  0.28554390017E+02  0.10566000000E+00 0. -1.
         13    1    4    4    0    0  0.21828422580E+01  0.16744207117E+00 -0.94108398306E+01  0.96627070494E+01  0.10566000000E+00 0. -1.
        -13    1    4    4    0    0  0.93745094863E+01  0.19979257347E+01 -0.33446968863E+02  0.34793448026E+02  0.10566000000E+00 0.  1.
         14    1    4    4    0    0  0.48738617004E+01  0.10857271836E+01 -0.14886247999E+02  0.15701392005E+02  0.00000000000E+00 0. -1.
<mgrwt>
<rscale>  0 0.81678404E+02</rscale>
<asrwt>0</asrwt>
<pdfrwt beam="1">  1        1 0.41610274E-02 0.81678404E+02</pdfrwt>
<pdfrwt beam="2">  1       -2 0.94869629E-02 0.81678404E+02</pdfrwt>
<totfact> 0.11175151E+05</totfact>
</mgrwt>
</event>
<event>
 8    1  0.1319619E-024  0.7687739E+02  0.7818608E-02  0.1338154E+00
          1   -1    0    0  501    0  0.00000000000E+00  0.00000000000E+00  0.35599235292E+02  0.35599235649E+02  0.50400000000E-02 0. -1.
         -2   -1    0    0    0  501 -0.00000000000E+00 -0.00000000000E+00 -0.41504639904E+02  0.41504639982E+02  0.25500000000E-02 0.  1.
        -24    2    1    2    0    0  0.44408920985E-15  0.00000000000E+00 -0.59054046113E+01  0.77103875631E+02  0.76877394816E+02 0.  0.
         66    2    3    3    0    0 -0.28516691555E+01  0.20652428929E+02 -0.35312315165E+02  0.41056235071E+02  0.19999995560E+01 0.  0.
         13    1    3    3    0    0  0.28516691555E+01 -0.20652428929E+02  0.29406910553E+02  0.36047640561E+02  0.10566000000E+00 0. -1.
         13    1    4    4    0    0 -0.15263933269E+00  0.41568602351E+00 -0.93725278871E+00  0.10419695109E+01  0.10566000000E+00 0.  1.
        -13    1    4    4    0    0  0.62783209253E-02  0.45492904058E+01 -0.70814989572E+01  0.84175337320E+01  0.10566000000E+00 0. -1.
        -14    1    4    4    0    0 -0.27053081438E+01  0.15687452500E+02 -0.27293563419E+02  0.31596731828E+02  0.00000000000E+00 0.  1.
<mgrwt>
<rscale>  0 0.76877395E+02</rscale>
<asrwt>0</asrwt>
<pdfrwt beam="1">  1        1 0.54768055E-02 0.76877395E+02</pdfrwt>
<pdfrwt beam="2">  1       -2 0.63853292E-02 0.76877395E+02</pdfrwt>
<totfact> 0.13940368E+05</totfact>
</mgrwt>
</event>
<event>
 8    1  0.1319619E-024  0.8123593E+02  0.7818608E-02  0.1325580E+00
         -2   -1    0    0    0  501 -0.00000000000E+00  0.00000000000E+00  0.30448243080E+03  0.30448243081E+03  0.25500000000E-02 0.  1.
          1   -1    0    0  501    0  0.00000000000E+00 -0.00000000000E+00 -0.54184364701E+01  0.54184388140E+01  0.50400000000E-02 0. -1.
        -24    2    1    2    0    0  0.00000000000E+00  0.35527136788E-14  0.29906399433E+03  0.30990086963E+03  0.81235929795E+02 0.  0.
         66    2    3    3    0    0 -0.35096919981E+02 -0.20390888480E+02  0.14778503982E+03  0.15327100220E+03  0.19999995570E+01 0.  0.
         13    1    3    3    0    0  0.35096919981E+02  0.20390888480E+02  0.15127895452E+03  0.15662986742E+03  0.10566000000E+00 0. -1.
         13    1    4    4    0    0 -0.54259388803E+01 -0.36594204413E+01  0.22409540552E+02  0.23345895624E+02  0.10566000000E+00 0. -1.
        -13    1    4    4    0    0 -0.29312789572E+02 -0.16512086317E+02  0.12422865153E+03  0.12870375928E+03  0.10566000000E+00 0.  1.
         14    1    4    4    0    0 -0.35819152850E+00 -0.21938172203E+00  0.11468477339E+01  0.12213473035E+01  0.00000000000E+00 0. -1.
<mgrwt>
<rscale>  0 0.81235930E+02</rscale>
<asrwt>0</asrwt>
<pdfrwt beam="1">  1        1 0.83360589E-03 0.81235930E+02</pdfrwt>
<pdfrwt beam="2">  1       -2 0.46843445E-01 0.81235930E+02</pdfrwt>
<totfact> 0.66993785E+04</totfact>
</mgrwt>
</event>
<event>
 8    1  0.1319619E-024  0.7903527E+02  0.7818608E-02  0.1331812E+00
         -2   -1    0    0    0  501 -0.00000000000E+00  0.00000000000E+00  0.18304289334E+02  0.18304289512E+02  0.25500000000E-02 0.  1.
          1   -1    0    0  501    0  0.00000000000E+00 -0.00000000000E+00 -0.85315713527E+02  0.85315713676E+02  0.50400000000E-02 0. -1.
        -24    2    1    2    0    0  0.00000000000E+00 -0.88817841970E-15 -0.67011424193E+02  0.10362000319E+03  0.79035271166E+02 0.  0.
         66    2    3    3    0    0 -0.37319145577E+02  0.34866557256E+01 -0.17217013122E+02  0.41295289529E+02  0.20000004227E+01 0.  0.
         13    1    3    3    0    0  0.37319145577E+02 -0.34866557256E+01 -0.49794411070E+02  0.62324713658E+02  0.10566000000E+00 0. -1.
         13    1    4    4    0    0 -0.32789564884E+01  0.16193519835E+00 -0.17674724188E+01  0.37300001941E+01  0.10566000000E+00 0. -1.
        -13    1    4    4    0    0 -0.10356245068E+02  0.26638554836E+00 -0.45869638785E+01  0.11330232779E+02  0.10566000000E+00 0.  1.
        -14    1    4    4    0    0 -0.23683944021E+02  0.30583349789E+01 -0.10862576825E+02  0.26235056556E+02  0.00000000000E+00 0.  1.
<mgrwt>
<rscale>  0 0.79035271E+02</rscale>
<asrwt>0</asrwt>
<pdfrwt beam="1">  1        1 0.13125494E-01 0.79035271E+02</pdfrwt>
<pdfrwt beam="2">  1       -2 0.28160446E-02 0.79035271E+02</pdfrwt>
<totfact> 0.14797294E+05</totfact>
</mgrwt>
</event>
<event>
 8    1  0.1319619E-024  0.8537184E+02  0.7818608E-02  0.1314463E+00
         -2   -1    0    0    0  501 -0.00000000000E+00  0.00000000000E+00  0.93852933663E+01  0.93852937127E+01  0.25500000000E-02 0.  1.
          1   -1    0    0  501    0  0.00000000000E+00 -0.00000000000E+00 -0.19414286353E+03  0.19414286359E+03  0.50400000000E-02 0. -1.
        -24    2    1    2    0    0  0.00000000000E+00  0.00000000000E+00 -0.18475757016E+03  0.20352815731E+03  0.85371840114E+02 0.  0.
         66    2    3    3    0    0 -0.35515129995E+02 -0.23512956617E+02 -0.98219687070E+02  0.10707609687E+03  0.20000015856E+01 0.  0.
         13    1    3    3    0    0  0.35515129995E+02  0.23512956617E+02 -0.86537883092E+02  0.96452060431E+02  0.10566000000E+00 0. -1.
         13    1    4    4    0    0 -0.10077505538E+02 -0.76089513266E+01 -0.28201674265E+02  0.30899803454E+02  0.10566000000E+00 0.  1.
        -13    1    4    4    0    0 -0.63209178594E+01 -0.37833656884E+01 -0.16787860087E+02  0.18333337635E+02  0.10566000000E+00 0. -1.
        -14    1    4    4    0    0 -0.19116706598E+02 -0.12120639602E+02 -0.53230152719E+02  0.57842955785E+02  0.00000000000E+00 0.  1.
<mgrwt>
<rscale>  0 0.85371840E+02</rscale>
<asrwt>0</asrwt>
<pdfrwt beam="1">  1        1 0.29868130E-01 0.85371840E+02</pdfrwt>
<pdfrwt beam="2">  1       -2 0.14438915E-02 0.85371840E+02</pdfrwt>
<totfact> 0.13940500E+05</totfact>
</mgrwt>
</event>
<event>
 8    1  0.1319619E-024  0.7974512E+02  0.7818608E-02  0.1329776E+00
         -2   -1    0    0    0  501 -0.00000000000E+00  0.00000000000E+00  0.19558197161E+02  0.19558197327E+02  0.25500000000E-02 0.  1.
          1   -1    0    0  501    0  0.00000000000E+00 -0.00000000000E+00 -0.81286678550E+02  0.81286678707E+02  0.50400000000E-02 0. -1.
        -24    2    1    2    0    0  0.00000000000E+00  0.00000000000E+00 -0.61728481390E+02  0.10084487603E+03  0.79745116513E+02 0.  0.
         66    2    3    3    0    0  0.20122134809E+02 -0.31297338332E+02 -0.12848567337E+02  0.39414583362E+02  0.20000007659E+01 0.  0.
         13    1    3    3    0    0 -0.20122134809E+02  0.31297338332E+02 -0.48879914053E+02  0.61430292672E+02  0.10566000000E+00 0. -1.
         13    1    4    4    0    0  0.51249495706E+01 -0.85377395716E+01 -0.27784539674E+01  0.10338717308E+02  0.10566000000E+00 0. -1.
        -13    1    4    4    0    0  0.79931173064E+01 -0.11549062349E+02 -0.56180777148E+01  0.15127614705E+02  0.10566000000E+00 0.  1.
        -14    1    4    4    0    0  0.70040679321E+01 -0.11210536411E+02 -0.44520356543E+01  0.13948251349E+02  0.00000000000E+00 0.  1.
<mgrwt>
<rscale>  0 0.79745117E+02</rscale>
<asrwt>0</asrwt>
<pdfrwt beam="1">  1        1 0.12505643E-01 0.79745117E+02</pdfrwt>
<pdfrwt beam="2">  1       -2 0.30089535E-02 0.79745117E+02</pdfrwt>
<totfact> 0.14329835E+05</totfact>
</mgrwt>
</event>
<event>
 8    1  0.1319619E-024  0.8308368E+02  0.7818608E-02  0.1320521E+00
         -2   -1    0    0    0  501 -0.00000000000E+00  0.00000000000E+00  0.54192867379E+02  0.54192867439E+02  0.25500000000E-02 0.  1.
          1   -1    0    0  501    0  0.00000000000E+00 -0.00000000000E+00 -0.31844121516E+02  0.31844121915E+02  0.50400000000E-02 0. -1.
        -24    2    1    2    0    0  0.00000000000E+00  0.00000000000E+00  0.22348745863E+02  0.86036989354E+02  0.83083675265E+02 0.  0.
         66    2    3    3    0    0 -0.27731440219E+02 -0.16356541988E+02  0.38326170415E+02  0.50094556190E+02  0.19999946955E+01 0.  0.
         13    1    3    3    0    0  0.27731440219E+02  0.16356541988E+02 -0.15977424552E+02  0.35942433164E+02  0.10566000000E+00 0. -1.
         13    1    4    4    0    0 -0.94682197221E+01 -0.50890795697E+01  0.13608129235E+02  0.17341806736E+02  0.10566000000E+00 0. -1.
        -13    1    4    4    0    0 -0.16900839880E+02 -0.10127191015E+02  0.22926198432E+02  0.30229457902E+02  0.10566000000E+00 0.  1.
         14    1    4    4    0    0 -0.13623806170E+01 -0.11402714033E+01  0.17918427484E+01  0.25232915515E+01  0.00000000000E+00 0. -1.
<mgrwt>
<rscale>  0 0.83083675E+02</rscale>
<asrwt>0</asrwt>
<pdfrwt beam="1">  1        1 0.48990957E-02 0.83083675E+02</pdfrwt>
<pdfrwt beam="2">  1       -2 0.83373642E-02 0.83083675E+02</pdfrwt>
<totfact> 0.10963427E+05</totfact>
</mgrwt>
</event>
<event>
 8    1  0.1319619E-024  0.9005820E+02  0.7818608E-02  0.1302711E+00
         -2   -1    0    0    0  501 -0.00000000000E+00  0.00000000000E+00  0.26830429117E+02  0.26830429238E+02  0.25500000000E-02 0.  1.
          1   -1    0    0  501    0  0.00000000000E+00 -0.00000000000E+00 -0.75571643624E+02  0.75571643792E+02  0.50400000000E-02 0. -1.
        -24    2    1    2    0    0  0.00000000000E+00 -0.17763568394E-14 -0.48741214507E+02  0.10240207303E+03  0.90058195458E+02 0.  0.
         66    2    3    3    0    0 -0.11284203594E+02 -0.15833706805E+02  0.21771275318E+02  0.29257955649E+02  0.20000044677E+01 0.  0.
         13    1    3    3    0    0  0.11284203594E+02  0.15833706805E+02 -0.70512489825E+02  0.73144117380E+02  0.10566000000E+00 0. -1.
         13    1    4    4    0    0 -0.30235976191E+01 -0.31421612507E+01  0.47587378055E+01  0.64553907259E+01  0.10566000000E+00 0. -1.
        -13    1    4    4    0    0 -0.55352391450E+01 -0.75773163439E+01  0.10764938118E+02  0.14281094219E+02  0.10566000000E+00 0.  1.
         14    1    4    4    0    0 -0.27253668296E+01 -0.51142292107E+01  0.62475993948E+01  0.85214707049E+01  0.00000000000E+00 0. -1.
<mgrwt>
<rscale>  0 0.90058195E+02</rscale>
<asrwt>0</asrwt>
<pdfrwt beam="1">  1        1 0.11626407E-01 0.90058195E+02</pdfrwt>
<pdfrwt beam="2">  1       -2 0.41277584E-02 0.90058195E+02</pdfrwt>
<totfact> 0.10133080E+05</totfact>
</mgrwt>
</event>
<event>
 8    1  0.1319619E-024  0.7509150E+02  0.7818608E-02  0.1343588E+00
          1   -1    0    0  501    0  0.00000000000E+00  0.00000000000E+00  0.60337420769E+02  0.60337420980E+02  0.50400000000E-02 0. -1.
         -2   -1    0    0    0  501 -0.00000000000E+00 -0.00000000000E+00 -0.23363332216E+02  0.23363332355E+02  0.25500000000E-02 0.  1.
        -24    2    1    2    0    0  0.00000000000E+00  0.00000000000E+00  0.36974088553E+02  0.83700753335E+02  0.75091496752E+02 0.  0.
         66    2    3    3    0    0  0.32149988223E+01  0.36269433691E+02  0.84145200417E+01  0.37424753559E+02  0.19999984384E+01 0.  0.
         13    1    3    3    0    0 -0.32149988223E+01 -0.36269433691E+02  0.28559568511E+02  0.46275999776E+02  0.10566000000E+00 0. -1.
         13    1    4    4    0    0  0.11873172594E+01  0.21617814053E+02  0.44746240075E+01  0.22108211839E+02  0.10566000000E+00 0. -1.
        -13    1    4    4    0    0  0.14389992653E+01  0.11540755502E+02  0.29419581428E+01  0.11996917862E+02  0.10566000000E+00 0.  1.
         14    1    4    4    0    0  0.58868229761E+00  0.31108641363E+01  0.99793789139E+00  0.33196238577E+01  0.00000000000E+00 0. -1.
<mgrwt>
<rscale>  0 0.75091497E+02</rscale>
<asrwt>0</asrwt>
<pdfrwt beam="1">  1        1 0.92826801E-02 0.75091497E+02</pdfrwt>
<pdfrwt beam="2">  1       -2 0.35943588E-02 0.75091497E+02</pdfrwt>
<totfact> 0.16119210E+05</totfact>
</mgrwt>
</event>
<event>
 8    1  0.1319619E-024  0.7935441E+02  0.7818608E-02  0.1330894E+00
         -2   -1    0    0    0  501 -0.00000000000E+00  0.00000000000E+00  0.25853457414E+02  0.25853457540E+02  0.25500000000E-02 0.  1.
          1   -1    0    0  501    0  0.00000000000E+00 -0.00000000000E+00 -0.60892459879E+02  0.60892460088E+02  0.50400000000E-02 0. -1.
        -24    2    1    2    0    0  0.00000000000E+00  0.00000000000E+00 -0.35039002465E+02  0.86745917628E+02  0.79354410913E+02 0.  0.
         66    2    3    3    0    0 -0.20433204914E+02  0.71990604346E+01  0.18773244807E+02  0.28736336913E+02  0.20000010930E+01 0.  0.
         13    1    3    3    0    0  0.20433204914E+02 -0.71990604346E+01 -0.53812247272E+02  0.58009580715E+02  0.10566000000E+00 0. -1.
         13    1    4    4    0    0 -0.66651967553E+01  0.24761572055E+01  0.58306007774E+01  0.91958290412E+01  0.10566000000E+00 0. -1.
        -13    1    4    4    0    0 -0.93078331871E+01  0.27079888811E+01  0.93565485676E+01  0.13473126124E+02  0.10566000000E+00 0.  1.
        -14    1    4    4    0    0 -0.44601749716E+01  0.20149143480E+01  0.35860954623E+01  0.60673817476E+01  0.00000000000E+00 0.  1.
<mgrwt>
<rscale>  0 0.79354411E+02</rscale>
<asrwt>0</asrwt>
<pdfrwt beam="1">  1        1 0.93680707E-02 0.79354411E+02</pdfrwt>
<pdfrwt beam="2">  1       -2 0.39774550E-02 0.79354411E+02</pdfrwt>
<totfact> 0.13875868E+05</totfact>
</mgrwt>
</event>
<event>
 8    1  0.1319619E-024  0.8007363E+02  0.7818608E-02  0.1328843E+00
          1   -1    0    0  501    0  0.00000000000E+00  0.00000000000E+00  0.15071954531E+02  0.15071955374E+02  0.50400000000E-02 0. -1.
         -2   -1    0    0    0  501 -0.00000000000E+00 -0.00000000000E+00 -0.10635292927E+03  0.10635292931E+03  0.25500000000E-02 0.  1.
        -24    2    1    2    0    0  0.00000000000E+00  0.00000000000E+00 -0.91280974744E+02  0.12142488468E+03  0.80073630298E+02 0.  0.
         66    2    3    3    0    0  0.53510894941E+01 -0.32518101296E+02 -0.80077830552E+02  0.86617088505E+02  0.20000011382E+01 0.  0.
         13    1    3    3    0    0 -0.53510894941E+01  0.32518101296E+02 -0.11203144192E+02  0.34807796173E+02  0.10566000000E+00 0. -1.
         13    1    4    4    0    0  0.24080923177E+01 -0.18989147074E+02 -0.46439971773E+02  0.50230157849E+02  0.10566000000E+00 0. -1.
        -13    1    4    4    0    0  0.21968441159E+01 -0.90024790428E+01 -0.21570335878E+02  0.23476824890E+02  0.10566000000E+00 0.  1.
         14    1    4    4    0    0  0.74615306054E+00 -0.45264751792E+01 -0.12067522901E+02  0.12910105767E+02  0.00000000000E+00 0. -1.
<mgrwt>
<rscale>  0 0.80073630E+02</rscale>
<asrwt>0</asrwt>
<pdfrwt beam="1">  1        1 0.23187624E-02 0.80073630E+02</pdfrwt>
<pdfrwt beam="2">  1       -2 0.16361989E-01 0.80073630E+02</pdfrwt>
<totfact> 0.10423885E+05</totfact>
</mgrwt>
</event>
<event>
 8    1  0.1319619E-024  0.8015171E+02  0.7818608E-02  0.1328621E+00
         -2   -1    0    0    0  501 -0.00000000000E+00  0.00000000000E+00  0.37066259161E+03  0.37066259161E+03  0.25500000000E-02 0.  1.
          1   -1    0    0  501    0  0.00000000000E+00 -0.00000000000E+00 -0.43329798665E+01  0.43329827977E+01  0.50400000000E-02 0. -1.
        -24    2    1    2    0    0  0.00000000000E+00  0.17763568394E-14  0.36632961174E+03  0.37499557441E+03  0.80151708602E+02 0.  0.
         66    2    3    3    0    0 -0.42551912160E+00 -0.13713983928E+02  0.35932064384E+03  0.35958806920E+03  0.20000008314E+01 0.  0.
         13    1    3    3    0    0  0.42551912160E+00  0.13713983928E+02  0.70089679016E+01  0.15407505210E+02  0.10566000000E+00 0. -1.
         13    1    4    4    0    0 -0.71556901062E+00 -0.51718411367E+01  0.12385449073E+03  0.12396453532E+03  0.10566000000E+00 0. -1.
        -13    1    4    4    0    0  0.37790557044E+00 -0.45139298603E+01  0.13725565155E+03  0.13733041696E+03  0.10566000000E+00 0.  1.
        -14    1    4    4    0    0 -0.87855681414E-01 -0.40282129311E+01  0.98210501559E+02  0.98293116923E+02  0.00000000000E+00 0.  1.
<mgrwt>
<rscale>  0 0.80151709E+02</rscale>
<asrwt>0</asrwt>
<pdfrwt beam="1">  1        1 0.66661250E-03 0.80151709E+02</pdfrwt>
<pdfrwt beam="2">  1       -2 0.57025016E-01 0.80151709E+02</pdfrwt>
<totfact> 0.61770993E+04</totfact>
</mgrwt>
</event>
<event>
 8    1  0.1319619E-024  0.7976515E+02  0.7818608E-02  0.1329719E+00
          1   -1    0    0  501    0  0.00000000000E+00  0.00000000000E+00  0.22093254206E+03  0.22093254211E+03  0.50400000000E-02 0. -1.
         -2   -1    0    0    0  501 -0.00000000000E+00 -0.00000000000E+00 -0.71995722294E+01  0.71995726810E+01  0.25500000000E-02 0.  1.
        -24    2    1    2    0    0  0.33306690739E-15 -0.35527136788E-14  0.21373296983E+03  0.22813211480E+03  0.79765151600E+02 0.  0.
         66    2    3    3    0    0 -0.95520973369E+00  0.30205001584E+02  0.32607440037E+02  0.44502805446E+02  0.20000001110E+01 0.  0.
         13    1    3    3    0    0  0.95520973369E+00 -0.30205001584E+02  0.18112552979E+03  0.18362930935E+03  0.10566000000E+00 0. -1.
         13    1    4    4    0    0 -0.31356588017E+00  0.10622638474E+02  0.12302122999E+02  0.16257065111E+02  0.10566000000E+00 0. -1.
        -13    1    4    4    0    0  0.15208000199E+00  0.12537167550E+01  0.10059662154E+01  0.16180439088E+01  0.10566000000E+00 0.  1.
        -14    1    4    4    0    0 -0.79372385551E+00  0.18328646355E+02  0.19299350823E+02  0.26627696426E+02  0.00000000000E+00 0.  1.
<mgrwt>
<rscale>  0 0.79765152E+02</rscale>
<asrwt>0</asrwt>
<pdfrwt beam="1">  1        1 0.33989626E-01 0.79765152E+02</pdfrwt>
<pdfrwt beam="2">  1       -2 0.11076264E-02 0.79765152E+02</pdfrwt>
<totfact> 0.17133213E+05</totfact>
</mgrwt>
</event>
<event>
 8    1  0.1319619E-024  0.8028533E+02  0.7818608E-02  0.1328244E+00
          1   -1    0    0  501    0  0.00000000000E+00  0.00000000000E+00  0.92769162020E+01  0.92769175711E+01  0.50400000000E-02 0. -1.
         -2   -1    0    0    0  501 -0.00000000000E+00 -0.00000000000E+00 -0.17370354805E+03  0.17370354807E+03  0.25500000000E-02 0.  1.
        -24    2    1    2    0    0  0.00000000000E+00  0.00000000000E+00 -0.16442663185E+03  0.18298046564E+03  0.80285325838E+02 0.  0.
         66    2    3    3    0    0  0.20475192057E+02  0.20160662770E+02 -0.14606927603E+03  0.14888223270E+03  0.20000000603E+01 0.  0.
         13    1    3    3    0    0 -0.20475192057E+02 -0.20160662770E+02 -0.18357355819E+02  0.34098232943E+02  0.10566000000E+00 0. -1.
         13    1    4    4    0    0  0.62055033826E+00  0.48342562490E+00 -0.38329612067E+01  0.39142737136E+01  0.10566000000E+00 0. -1.
        -13    1    4    4    0    0  0.19600381100E+02  0.19323726195E+02 -0.13867786930E+03  0.14138296902E+03  0.10566000000E+00 0.  1.
        -14    1    4    4    0    0  0.25426061950E+00  0.35351094943E+00 -0.35584455252E+01  0.35849899595E+01  0.00000000000E+00 0.  1.
<mgrwt>
<rscale>  0 0.80285326E+02</rscale>
<asrwt>0</asrwt>
<pdfrwt beam="1">  1        1 0.14272181E-02 0.80285326E+02</pdfrwt>
<pdfrwt beam="2">  1       -2 0.26723620E-01 0.80285326E+02</pdfrwt>
<totfact> 0.89005916E+04</totfact>
</mgrwt>
</event>
<event>
 8    1  0.1319619E-024  0.7881123E+02  0.7818608E-02  0.1332459E+00
          1   -1    0    0  501    0  0.00000000000E+00  0.00000000000E+00  0.36573653989E+02  0.36573654336E+02  0.50400000000E-02 0. -1.
         -2   -1    0    0    0  501 -0.00000000000E+00 -0.00000000000E+00 -0.42456858143E+02  0.42456858220E+02  0.25500000000E-02 0.  1.
        -24    2    1    2    0    0  0.00000000000E+00  0.00000000000E+00 -0.58832041546E+01  0.79030512556E+02  0.78811229046E+02 0.  0.
         66    2    3    3    0    0 -0.15325569269E+02 -0.33501629308E+02 -0.16894975711E+02  0.40579211972E+02  0.20000000747E+01 0.  0.
         13    1    3    3    0    0  0.15325569269E+02  0.33501629308E+02  0.11011771557E+02  0.38451300583E+02  0.10566000000E+00 0. -1.
         13    1    4    4    0    0 -0.19216467843E+01 -0.56011863546E+01 -0.23466279501E+01  0.63705448523E+01  0.10566000000E+00 0. -1.
        -13    1    4    4    0    0 -0.70137508355E+01 -0.13819393727E+02 -0.72749041283E+01  0.17120272716E+02  0.10566000000E+00 0.  1.
        -14    1    4    4    0    0 -0.63901716495E+01 -0.14081049227E+02 -0.72734436328E+01  0.17088394404E+02  0.00000000000E+00 0.  1.
<mgrwt>
<rscale>  0 0.78811229E+02</rscale>
<asrwt>0</asrwt>
<pdfrwt beam="1">  1        1 0.56267161E-02 0.78811229E+02</pdfrwt>
<pdfrwt beam="2">  1       -2 0.65318243E-02 0.78811229E+02</pdfrwt>
<totfact> 0.13053603E+05</totfact>
</mgrwt>
</event>
<event>
 8    1  0.1319619E-024  0.7966030E+02  0.7818608E-02  0.1330018E+00
          1   -1    0    0  501    0  0.00000000000E+00  0.00000000000E+00  0.81180854773E+02  0.81180854930E+02  0.50400000000E-02 0. -1.
         -2   -1    0    0    0  501 -0.00000000000E+00 -0.00000000000E+00 -0.19542058261E+02  0.19542058427E+02  0.25500000000E-02 0.  1.
        -24    2    1    2    0    0  0.00000000000E+00  0.00000000000E+00  0.61638796513E+02  0.10072291336E+03  0.79660304039E+02 0.  0.
         66    2    3    3    0    0 -0.62617885246E+01  0.37907585079E+02  0.17684029251E+02  0.42342884828E+02  0.20000007369E+01 0.  0.
         13    1    3    3    0    0  0.62617885246E+01 -0.37907585079E+02  0.43954767262E+02  0.58380028529E+02  0.10566000000E+00 0. -1.
         13    1    4    4    0    0 -0.10738018703E+00  0.29503308862E+01  0.12365671897E+01  0.32025373211E+01  0.10566000000E+00 0. -1.
        -13    1    4    4    0    0 -0.22818324497E+01  0.15393941970E+02  0.67167399588E+01  0.16950102313E+02  0.10566000000E+00 0.  1.
        -14    1    4    4    0    0 -0.38725758879E+01  0.19563312223E+02  0.97307221026E+01  0.22190245194E+02  0.00000000000E+00 0.  1.
<mgrwt>
<rscale>  0 0.79660304E+02</rscale>
<asrwt>0</asrwt>
<pdfrwt beam="1">  1        1 0.12489362E-01 0.79660304E+02</pdfrwt>
<pdfrwt beam="2">  1       -2 0.30064705E-02 0.79660304E+02</pdfrwt>
<totfact> 0.14368367E+05</totfact>
</mgrwt>
</event>
<event>
 8    1  0.1319619E-024  0.7754596E+02  0.7818608E-02  0.1336164E+00
         -2   -1    0    0    0  501 -0.00000000000E+00  0.00000000000E+00  0.16678413218E+03  0.16678413220E+03  0.25500000000E-02 0.  1.
          1   -1    0    0  501    0  0.00000000000E+00 -0.00000000000E+00 -0.90137096987E+01  0.90137111078E+01  0.50400000000E-02 0. -1.
        -24    2    1    2    0    0  0.35527136788E-14  0.71054273576E-14  0.15777042248E+03  0.17579784331E+03  0.77545957352E+02 0.  0.
         66    2    3    3    0    0  0.28476562764E+02  0.26230744059E+02  0.75445747918E+02  0.84823507548E+02  0.19999983184E+01 0.  0.
         13    1    3    3    0    0 -0.28476562764E+02 -0.26230744059E+02  0.82324674565E+02  0.90974335760E+02  0.10566000000E+00 0. -1.
         13    1    4    4    0    0  0.29141261979E+01  0.30067280854E+01  0.91509299747E+01  0.10063956911E+02  0.10566000000E+00 0. -1.
        -13    1    4    4    0    0  0.83646178790E+01  0.82756215034E+01  0.22797204165E+02  0.25654949334E+02  0.10566000000E+00 0.  1.
         14    1    4    4    0    0  0.17197818687E+02  0.14948394470E+02  0.43497613778E+02  0.49104601303E+02  0.00000000000E+00 0. -1.
<mgrwt>
<rscale>  0 0.77545957E+02</rscale>
<asrwt>0</asrwt>
<pdfrwt beam="1">  1        1 0.13867249E-02 0.77545957E+02</pdfrwt>
<pdfrwt beam="2">  1       -2 0.25659094E-01 0.77545957E+02</pdfrwt>
<totfact> 0.98760253E+04</totfact>
</mgrwt>
</event>
<event>
 8    1  0.1319619E-024  0.8221827E+02  0.7818608E-02  0.1322872E+00
          1   -1    0    0  501    0  0.00000000000E+00  0.00000000000E+00  0.44496946432E+02  0.44496946717E+02  0.50400000000E-02 0. -1.
         -2   -1    0    0    0  501 -0.00000000000E+00 -0.00000000000E+00 -0.37979260781E+02  0.37979260867E+02  0.25500000000E-02 0.  1.
        -24    2    1    2    0    0 -0.17763568394E-14  0.00000000000E+00  0.65176856508E+01  0.82476207584E+02  0.82218274071E+02 0.  0.
         66    2    3    3    0    0  0.12844653668E+02 -0.21551788145E+01 -0.35827182450E+02  0.38173510803E+02  0.20000002955E+01 0.  0.
         13    1    3    3    0    0 -0.12844653668E+02  0.21551788145E+01  0.42344868100E+02  0.44302696781E+02  0.10566000000E+00 0. -1.
         13    1    4    4    0    0  0.68540101891E+01 -0.12794585169E+01 -0.19242920967E+02  0.20467428786E+02  0.10566000000E+00 0. -1.
        -13    1    4    4    0    0  0.32541324768E+01 -0.26520662490E+00 -0.10708180607E+02  0.11195356568E+02  0.10566000000E+00 0.  1.
         14    1    4    4    0    0  0.27365110019E+01 -0.61051367274E+00 -0.58760808760E+01  0.65107254488E+01  0.00000000000E+00 0. -1.
<mgrwt>
<rscale>  0 0.82218274E+02</rscale>
<asrwt>0</asrwt>
<pdfrwt beam="1">  1        1 0.68456842E-02 0.82218274E+02</pdfrwt>
<pdfrwt beam="2">  1       -2 0.58429632E-02 0.82218274E+02</pdfrwt>
<totfact> 0.11962402E+05</totfact>
</mgrwt>
</event>
<event>
 8    1  0.1319619E-024  0.7979960E+02  0.7818608E-02  0.1329621E+00
         -2   -1    0    0    0  501 -0.00000000000E+00  0.00000000000E+00  0.91917303528E+02  0.91917303563E+02  0.25500000000E-02 0.  1.
          1   -1    0    0  501    0  0.00000000000E+00 -0.00000000000E+00 -0.17319850520E+02  0.17319851254E+02  0.50400000000E-02 0. -1.
        -24    2    1    2    0    0  0.00000000000E+00  0.00000000000E+00  0.74597453008E+02  0.10923715482E+03  0.79799598980E+02 0.  0.
         66    2    3    3    0    0  0.96524424208E+01  0.19304553637E+02  0.83218899907E+02  0.85995469283E+02  0.19999999406E+01 0.  0.
         13    1    3    3    0    0 -0.96524424208E+01 -0.19304553637E+02 -0.86214468989E+01  0.23241685534E+02  0.10566000000E+00 0. -1.
         13    1    4    4    0    0  0.33086716770E+01  0.71525217915E+01  0.27655991954E+02  0.28757102275E+02  0.10566000000E+00 0. -1.
        -13    1    4    4    0    0  0.29062339313E+01  0.51797102924E+01  0.26066481050E+02  0.26734774970E+02  0.10566000000E+00 0.  1.
         14    1    4    4    0    0  0.34375368125E+01  0.69723215527E+01  0.29496426903E+02  0.30503592038E+02  0.00000000000E+00 0. -1.
<mgrwt>
<rscale>  0 0.79799599E+02</rscale>
<asrwt>0</asrwt>
<pdfrwt beam="1">  1        1 0.26645924E-02 0.79799599E+02</pdfrwt>
<pdfrwt beam="2">  1       -2 0.14141124E-01 0.79799599E+02</pdfrwt>
<totfact> 0.10900936E+05</totfact>
</mgrwt>
</event>
<event>
 8    1  0.1319619E-024  0.7916173E+02  0.7818608E-02  0.1331447E+00
          1   -1    0    0  501    0  0.00000000000E+00  0.00000000000E+00  0.30369668908E+03  0.30369668912E+03  0.50400000000E-02 0. -1.
         -2   -1    0    0    0  501 -0.00000000000E+00 -0.00000000000E+00 -0.51585840248E+01  0.51585846550E+01  0.25500000000E-02 0.  1.
        -24    2    1    2    0    0  0.71054273576E-14  0.27755575616E-16  0.29853810505E+03  0.30885527377E+03  0.79161732988E+02 0.  0.
         66    2    3    3    0    0 -0.38909258444E+02 -0.16391695083E+00  0.12158805008E+03  0.12767776308E+03  0.20000005493E+01 0.  0.
         13    1    3    3    0    0  0.38909258444E+02  0.16391695083E+00  0.17695005497E+03  0.18117751069E+03  0.10566000000E+00 0. -1.
         13    1    4    4    0    0 -0.81755599225E+01  0.40105142921E+00  0.24108397610E+02  0.25460295003E+02  0.10566000000E+00 0. -1.
        -13    1    4    4    0    0 -0.22705525666E+02 -0.84645574191E+00  0.71239099397E+02  0.74774847576E+02  0.10566000000E+00 0.  1.
        -14    1    4    4    0    0 -0.80281728559E+01  0.28148736187E+00  0.26240553075E+02  0.27442620506E+02  0.00000000000E+00 0.  1.
<mgrwt>
<rscale>  0 0.79161733E+02</rscale>
<asrwt>0</asrwt>
<pdfrwt beam="1">  1        1 0.46722561E-01 0.79161733E+02</pdfrwt>
<pdfrwt beam="2">  1       -2 0.79362847E-03 0.79161733E+02</pdfrwt>
<totfact> 0.18592493E+05</totfact>
</mgrwt>
</event>
<event>
 8    1  0.1319619E-024  0.8015502E+02  0.7818608E-02  0.1328612E+00
          1   -1    0    0  501    0  0.00000000000E+00  0.00000000000E+00  0.60698069498E+01  0.60698090422E+01  0.50400000000E-02 0. -1.
         -2   -1    0    0    0  501 -0.00000000000E+00 -0.00000000000E+00 -0.26462233951E+03  0.26462233952E+03  0.25500000000E-02 0.  1.
        -24    2    1    2    0    0 -0.71054273576E-14  0.00000000000E+00 -0.25855253256E+03  0.27069214857E+03  0.80155019813E+02 0.  0.
         66    2    3    3    0    0  0.38771431822E+02 -0.92060896227E+01 -0.14295995404E+03  0.14842346335E+03  0.20000003447E+01 0.  0.
         13    1    3    3    0    0 -0.38771431822E+02  0.92060896227E+01 -0.11559257852E+03  0.12226868522E+03  0.10566000000E+00 0. -1.
         13    1    4    4    0    0  0.28157048927E+02 -0.67904984905E+01 -0.10365515285E+03  0.10762588978E+03  0.10566000000E+00 0. -1.
        -13    1    4    4    0    0  0.51112912119E+01 -0.13388032658E+01 -0.20876857824E+02  0.21535367391E+02  0.10566000000E+00 0.  1.
         14    1    4    4    0    0  0.55030916829E+01 -0.10767878664E+01 -0.18427943368E+02  0.19262206181E+02  0.00000000000E+00 0. -1.
<mgrwt>
<rscale>  0 0.80155020E+02</rscale>
<asrwt>0</asrwt>
<pdfrwt beam="1">  1        1 0.93381682E-03 0.80155020E+02</pdfrwt>
<pdfrwt beam="2">  1       -2 0.40711120E-01 0.80155020E+02</pdfrwt>
<totfact> 0.74635823E+04</totfact>
</mgrwt>
</event>
<event>
 8    1  0.1319619E-024  0.8135473E+02  0.7818608E-02  0.1325250E+00
         -2   -1    0    0    0  501 -0.00000000000E+00  0.00000000000E+00  0.27393148392E+02  0.27393148511E+02  0.25500000000E-02 0.  1.
          1   -1    0    0  501    0  0.00000000000E+00 -0.00000000000E+00 -0.60403716263E+02  0.60403716473E+02  0.50400000000E-02 0. -1.
        -24    2    1    2    0    0  0.00000000000E+00  0.00000000000E+00 -0.33010567871E+02  0.87796864984E+02  0.81354728872E+02 0.  0.
         66    2    3    3    0    0  0.27304275995E+02 -0.24885922217E+02  0.17931286423E+01  0.37041165134E+02  0.19999979859E+01 0.  0.
         13    1    3    3    0    0 -0.27304275995E+02  0.24885922217E+02 -0.34803696513E+02  0.50755699849E+02  0.10566000000E+00 0. -1.
         13    1    4    4    0    0  0.76538087494E+01 -0.63560439305E+01  0.79183521690E+00  0.99808942417E+01  0.10566000000E+00 0. -1.
        -13    1    4    4    0    0  0.79573502418E+01 -0.80831454309E+01  0.91471798137E+00  0.11380005973E+02  0.10566000000E+00 0.  1.
         14    1    4    4    0    0  0.11693117004E+02 -0.10446732856E+02  0.86575444014E-01  0.15680264919E+02  0.00000000000E+00 0. -1.
<mgrwt>
<rscale>  0 0.81354729E+02</rscale>
<asrwt>0</asrwt>
<pdfrwt beam="1">  1        1 0.92928795E-02 0.81354729E+02</pdfrwt>
<pdfrwt beam="2">  1       -2 0.42143305E-02 0.81354729E+02</pdfrwt>
<totfact> 0.12939061E+05</totfact>
</mgrwt>
</event>
<event>
 8    1  0.1319619E-024  0.8012026E+02  0.7818608E-02  0.1328711E+00
         -2   -1    0    0    0  501 -0.00000000000E+00  0.00000000000E+00  0.62210249583E+01  0.62210254809E+01  0.25500000000E-02 0.  1.
          1   -1    0    0  501    0  0.00000000000E+00 -0.00000000000E+00 -0.25796615552E+03  0.25796615557E+03  0.50400000000E-02 0. -1.
        -24    2    1    2    0    0  0.22204460493E-15  0.00000000000E+00 -0.25174513056E+03  0.26418718105E+03  0.80120258796E+02 0.  0.
         66    2    3    3    0    0 -0.19372138686E+01 -0.33604734924E+02 -0.54482104840E+02  0.64072855007E+02  0.19999985102E+01 0.  0.
         13    1    3    3    0    0  0.19372138686E+01  0.33604734924E+02 -0.19726302572E+03  0.20011432604E+03  0.10566000000E+00 0. -1.
         13    1    4    4    0    0 -0.82860950801E+00 -0.20266815755E+02 -0.31293788080E+02  0.37292663501E+02  0.10566000000E+00 0. -1.
        -13    1    4    4    0    0 -0.10299548141E+01 -0.13158082252E+02 -0.22900917690E+02  0.26432160913E+02  0.10566000000E+00 0.  1.
        -14    1    4    4    0    0 -0.78649546488E-01 -0.17983691651E+00 -0.28739906979E+00  0.34803059208E+00  0.00000000000E+00 0.  1.
<mgrwt>
<rscale>  0 0.80120259E+02</rscale>
<asrwt>0</asrwt>
<pdfrwt beam="1">  1        1 0.39687093E-01 0.80120259E+02</pdfrwt>
<pdfrwt beam="2">  1       -2 0.95708100E-03 0.80120259E+02</pdfrwt>
<totfact> 0.17452595E+05</totfact>
</mgrwt>
</event>
<event>
 8    1  0.1319619E-024  0.8098757E+02  0.7818608E-02  0.1326272E+00
         -2   -1    0    0    0  501 -0.00000000000E+00  0.00000000000E+00  0.75714542651E+01  0.75714546945E+01  0.25500000000E-02 0.  1.
          1   -1    0    0  501    0  0.00000000000E+00 -0.00000000000E+00 -0.21656957025E+03  0.21656957031E+03  0.50400000000E-02 0. -1.
        -24    2    1    2    0    0  0.00000000000E+00 -0.17763568394E-14 -0.20899811598E+03  0.22414102500E+03  0.80987570677E+02 0.  0.
         66    2    3    3    0    0 -0.38052182052E+02 -0.13357557586E+02 -0.95239142326E+02  0.10344509236E+03  0.19999999118E+01 0.  0.
         13    1    3    3    0    0  0.38052182052E+02  0.13357557586E+02 -0.11375897366E+03  0.12069593264E+03  0.10566000000E+00 0. -1.
         13    1    4    4    0    0 -0.14222826076E+02 -0.53822108375E+01 -0.35773191359E+02  0.38871446578E+02  0.10566000000E+00 0.  1.
        -13    1    4    4    0    0 -0.10518072319E+01 -0.23373018073E+00 -0.32783810356E+01  0.34525171254E+01  0.10566000000E+00 0. -1.
        -14    1    4    4    0    0 -0.22777548745E+02 -0.77416165676E+01 -0.56187569932E+02  0.61121128661E+02  0.00000000000E+00 0.  1.
<mgrwt>
<rscale>  0 0.80987571E+02</rscale>
<asrwt>0</asrwt>
<pdfrwt beam="1">  1        1 0.33318391E-01 0.80987571E+02</pdfrwt>
<pdfrwt beam="2">  1       -2 0.11648393E-02 0.80987571E+02</pdfrwt>
<totfact> 0.16391956E+05</totfact>
</mgrwt>
</event>
<event>
 8    1  0.1319619E-024  0.8166471E+02  0.7818608E-02  0.1324393E+00
         -2   -1    0    0    0  501 -0.00000000000E+00  0.00000000000E+00  0.43272942008E+02  0.43272942083E+02  0.25500000000E-02 0.  1.
          1   -1    0    0  501    0  0.00000000000E+00 -0.00000000000E+00 -0.38529418282E+02  0.38529418611E+02  0.50400000000E-02 0. -1.
        -24    2    1    2    0    0  0.00000000000E+00  0.35527136788E-14  0.47435237261E+01  0.81802360694E+02  0.81664712072E+02 0.  0.
         66    2    3    3    0    0  0.31292393969E+02 -0.21115374876E+02  0.17897798423E+02  0.41825879066E+02  0.19999986907E+01 0.  0.
         13    1    3    3    0    0 -0.31292393969E+02  0.21115374876E+02 -0.13154274697E+02  0.39976481628E+02  0.10566000000E+00 0. -1.
         13    1    4    4    0    0  0.10908055026E+02 -0.80447759377E+01  0.60213060965E+01  0.14831432011E+02  0.10566000000E+00 0. -1.
        -13    1    4    4    0    0  0.32923861341E+01 -0.23230546168E+01  0.15700722338E+01  0.43258155374E+01  0.10566000000E+00 0.  1.
        -14    1    4    4    0    0  0.17091952809E+02 -0.10747544322E+02  0.10306420093E+02  0.22668631518E+02  0.00000000000E+00 0.  1.
<mgrwt>
<rscale>  0 0.81664712E+02</rscale>
<asrwt>0</asrwt>
<pdfrwt beam="1">  1        1 0.59276029E-02 0.81664712E+02</pdfrwt>
<pdfrwt beam="2">  1       -2 0.66573757E-02 0.81664712E+02</pdfrwt>
<totfact> 0.11905599E+05</totfact>
</mgrwt>
</event>
<event>
 8    1  0.1319619E-024  0.7905843E+02  0.7818608E-02  0.1331745E+00
          1   -1    0    0  501    0  0.00000000000E+00  0.00000000000E+00  0.22329966855E+02  0.22329967424E+02  0.50400000000E-02 0. -1.
         -2   -1    0    0    0  501 -0.00000000000E+00 -0.00000000000E+00 -0.69975870279E+02  0.69975870325E+02  0.25500000000E-02 0.  1.
        -24    2    1    2    0    0 -0.35527136788E-14  0.17763568394E-14 -0.47645903424E+02  0.92305837749E+02  0.79058431363E+02 0.  0.
         66    2    3    3    0    0 -0.24248280838E+02  0.15272856642E+02 -0.55584639657E+02  0.62569093297E+02  0.19999991313E+01 0.  0.
         13    1    3    3    0    0  0.24248280838E+02 -0.15272856642E+02  0.79387362336E+01  0.29736744453E+02  0.10566000000E+00 0. -1.
         13    1    4    4    0    0 -0.63563666420E+00  0.72381408858E+00 -0.15806652475E+01  0.18540786024E+01  0.10566000000E+00 0. -1.
        -13    1    4    4    0    0 -0.11875978066E+02  0.70226441046E+01 -0.26188274138E+02  0.29600561678E+02  0.10566000000E+00 0.  1.
         14    1    4    4    0    0 -0.11736666108E+02  0.75263984490E+01 -0.27815700271E+02  0.31114453017E+02  0.00000000000E+00 0. -1.
<mgrwt>
<rscale>  0 0.79058431E+02</rscale>
<asrwt>0</asrwt>
<pdfrwt beam="1">  1        1 0.34353796E-02 0.79058431E+02</pdfrwt>
<pdfrwt beam="2">  1       -2 0.10765518E-01 0.79058431E+02</pdfrwt>
<totfact> 0.11842724E+05</totfact>
</mgrwt>
</event>
<event>
 8    1  0.1319619E-024  0.8071168E+02  0.7818608E-02  0.1327044E+00
          1   -1    0    0  501    0  0.00000000000E+00  0.00000000000E+00  0.14487176707E+02  0.14487177584E+02  0.50400000000E-02 0. -1.
         -2   -1    0    0    0  501 -0.00000000000E+00 -0.00000000000E+00 -0.11241623393E+03  0.11241623396E+03  0.25500000000E-02 0.  1.
        -24    2    1    2    0    0 -0.17763568394E-14 -0.17763568394E-14 -0.97929057224E+02  0.12690341154E+03  0.80711682009E+02 0.  0.
         66    2    3    3    0    0  0.10450452539E+02  0.51882352787E+01 -0.10969566368E+03  0.11033253543E+03  0.20000005817E+01 0.  0.
         13    1    3    3    0    0 -0.10450452539E+02 -0.51882352787E+01  0.11766606453E+02  0.16570876109E+02  0.10566000000E+00 0. -1.
         13    1    4    4    0    0  0.42616306080E+01  0.20194245922E+01 -0.41441385941E+02  0.41708982293E+02  0.10566000000E+00 0. -1.
        -13    1    4    4    0    0  0.29539292927E+01  0.14641892306E+01 -0.25342975404E+02  0.25556743038E+02  0.10566000000E+00 0.  1.
        -14    1    4    4    0    0  0.32348926382E+01  0.17046214559E+01 -0.42911302332E+02  0.43066810103E+02  0.00000000000E+00 0.  1.
<mgrwt>
<rscale>  0 0.80711682E+02</rscale>
<asrwt>0</asrwt>
<pdfrwt beam="1">  1        1 0.22287966E-02 0.80711682E+02</pdfrwt>
<pdfrwt beam="2">  1       -2 0.17294805E-01 0.80711682E+02</pdfrwt>
<totfact> 0.10065840E+05</totfact>
</mgrwt>
</event>
<event>
 8    1  0.1319619E-024  0.8589855E+02  0.7818608E-02  0.1313099E+00
         -2   -1    0    0    0  501 -0.00000000000E+00  0.00000000000E+00  0.35999844509E+03  0.35999844510E+03  0.25500000000E-02 0.  1.
          1   -1    0    0  501    0  0.00000000000E+00 -0.00000000000E+00 -0.51240219296E+01  0.51240244083E+01  0.50400000000E-02 0. -1.
        -24    2    1    2    0    0  0.00000000000E+00  0.00000000000E+00  0.35487442316E+03  0.36512246951E+03  0.85898553688E+02 0.  0.
         66    2    3    3    0    0 -0.69438272182E+01 -0.34343995576E+02  0.28293734928E+03  0.28510571794E+03  0.20000043158E+01 0.  0.
         13    1    3    3    0    0  0.69438272182E+01  0.34343995576E+02  0.71937073887E+02  0.80016751571E+02  0.10566000000E+00 0. -1.
         13    1    4    4    0    0 -0.38392524152E+01 -0.14630055925E+02  0.11922398736E+03  0.12017965186E+03  0.10566000000E+00 0. -1.
        -13    1    4    4    0    0 -0.18569839093E+01 -0.12136215508E+02  0.10265089392E+03  0.10338255802E+03  0.10566000000E+00 0.  1.
         14    1    4    4    0    0 -0.12475908938E+01 -0.75777241441E+01  0.61062467995E+02  0.61543508057E+02  0.00000000000E+00 0. -1.
<mgrwt>
<rscale>  0 0.85898554E+02</rscale>
<asrwt>0</asrwt>
<pdfrwt beam="1">  1        1 0.78831170E-03 0.85898554E+02</pdfrwt>
<pdfrwt beam="2">  1       -2 0.55384346E-01 0.85898554E+02</pdfrwt>
<totfact> 0.52574154E+04</totfact>
</mgrwt>
</event>
<event>
 8    1  0.1319619E-024  0.7698006E+02  0.7818608E-02  0.1337847E+00
         -2   -1    0    0    0  501 -0.00000000000E+00  0.00000000000E+00  0.72567465795E+01  0.72567470275E+01  0.25500000000E-02 0.  1.
          1   -1    0    0  501    0  0.00000000000E+00 -0.00000000000E+00 -0.20415241073E+03  0.20415241080E+03  0.50400000000E-02 0. -1.
        -24    2    1    2    0    0  0.00000000000E+00  0.00000000000E+00 -0.19689566415E+03  0.21140915782E+03  0.76980058774E+02 0.  0.
         66    2    3    3    0    0  0.36789649158E+01 -0.38272206333E+02 -0.10149845050E+03  0.10855520263E+03  0.20000013017E+01 0.  0.
         13    1    3    3    0    0 -0.36789649158E+01  0.38272206333E+02 -0.95397213657E+02  0.10285395519E+03  0.10566000000E+00 0. -1.
         13    1    4    4    0    0  0.23168433636E+01 -0.21198825560E+02 -0.53716466961E+02  0.57794705251E+02  0.10566000000E+00 0. -1.
        -13    1    4    4    0    0  0.24078380372E+00 -0.33137263276E+01 -0.89191823441E+01  0.95184944575E+01  0.10566000000E+00 0.  1.
         14    1    4    4    0    0  0.11213377485E+01 -0.13759654446E+02 -0.38862801192E+02  0.41242002926E+02  0.00000000000E+00 0. -1.
<mgrwt>
<rscale>  0 0.76980059E+02</rscale>
<asrwt>0</asrwt>
<pdfrwt beam="1">  1        1 0.31408059E-01 0.76980059E+02</pdfrwt>
<pdfrwt beam="2">  1       -2 0.11164227E-02 0.76980059E+02</pdfrwt>
<totfact> 0.18536556E+05</totfact>
</mgrwt>
</event>
<event>
 8    1  0.1319619E-024  0.7827491E+02  0.7818608E-02  0.1334020E+00
          1   -1    0    0  501    0  0.00000000000E+00  0.00000000000E+00  0.10386266808E+03  0.10386266820E+03  0.50400000000E-02 0. -1.
         -2   -1    0    0    0  501 -0.00000000000E+00 -0.00000000000E+00 -0.14747746137E+02  0.14747746357E+02  0.25500000000E-02 0.  1.
        -24    2    1    2    0    0  0.00000000000E+00  0.35527136788E-14  0.89114921939E+02  0.11861041455E+03  0.78274907402E+02 0.  0.
         66    2    3    3    0    0  0.19431587307E+02 -0.20596612961E+02  0.37032993420E+01  0.28627285640E+02  0.20000015888E+01 0.  0.
         13    1    3    3    0    0 -0.19431587307E+02  0.20596612961E+02  0.85411622597E+02  0.89983128915E+02  0.10566000000E+00 0. -1.
         13    1    4    4    0    0  0.38390411919E+01 -0.33283136608E+01  0.60352010020E+00  0.51177445857E+01  0.10566000000E+00 0.  1.
        -13    1    4    4    0    0  0.13654194014E+02 -0.14930614387E+02  0.22597699246E+01  0.20358732384E+02  0.10566000000E+00 0.  1.
        -14    1    4    4    0    0  0.19383521007E+01 -0.23376849133E+01  0.84000931716E+00  0.31508086697E+01  0.00000000000E+00 0.  1.
<mgrwt>
<rscale>  0 0.78274907E+02</rscale>
<asrwt>0</asrwt>
<pdfrwt beam="1">  1        1 0.15978872E-01 0.78274907E+02</pdfrwt>
<pdfrwt beam="2">  1       -2 0.22688841E-02 0.78274907E+02</pdfrwt>
<totfact> 0.15688860E+05</totfact>
</mgrwt>
</event>
<event>
 8    1  0.1319619E-024  0.8596324E+02  0.7818608E-02  0.1312933E+00
         -2   -1    0    0    0  501 -0.00000000000E+00  0.00000000000E+00  0.16387337146E+02  0.16387337345E+02  0.25500000000E-02 0.  1.
          1   -1    0    0  501    0  0.00000000000E+00 -0.00000000000E+00 -0.11273459434E+03  0.11273459445E+03  0.50400000000E-02 0. -1.
        -24    2    1    2    0    0  0.00000000000E+00  0.00000000000E+00 -0.96347257191E+02  0.12912193179E+03  0.85963243902E+02 0.  0.
         66    2    3    3    0    0  0.21940051641E+02 -0.28047214855E+02 -0.12106330683E+02  0.37663979762E+02  0.20000004391E+01 0.  0.
         13    1    3    3    0    0 -0.21940051641E+02  0.28047214855E+02 -0.84240926508E+02  0.91457952033E+02  0.10566000000E+00 0. -1.
         13    1    4    4    0    0  0.12760271527E+02 -0.15486814642E+02 -0.61223034262E+01  0.20979983806E+02  0.10566000000E+00 0. -1.
        -13    1    4    4    0    0  0.32907257645E+01 -0.44689746695E+01 -0.17802808890E+01  0.58293374181E+01  0.10566000000E+00 0.  1.
         14    1    4    4    0    0  0.58890543491E+01 -0.80914255438E+01 -0.42037463682E+01  0.10854658538E+02  0.00000000000E+00 0. -1.
<mgrwt>
<rscale>  0 0.85963244E+02</rscale>
<asrwt>0</asrwt>
<pdfrwt beam="1">  1        1 0.17343783E-01 0.85963244E+02</pdfrwt>
<pdfrwt beam="2">  1       -2 0.25211289E-02 0.85963244E+02</pdfrwt>
<totfact> 0.12350878E+05</totfact>
</mgrwt>
</event>
<event>
 8    1  0.1319619E-024  0.8075632E+02  0.7818608E-02  0.1326919E+00
          1   -1    0    0  501    0  0.00000000000E+00  0.00000000000E+00  0.31113683463E+02  0.31113683871E+02  0.50400000000E-02 0. -1.
         -2   -1    0    0    0  501 -0.00000000000E+00 -0.00000000000E+00 -0.52401241108E+02  0.52401241170E+02  0.25500000000E-02 0.  1.
        -24    2    1    2    0    0  0.71054273576E-14  0.35527136788E-14 -0.21287557645E+02  0.83514925041E+02  0.80756316125E+02 0.  0.
         66    2    3    3    0    0 -0.33368639156E+02 -0.12076798312E+02 -0.30517880761E+02  0.46847157650E+02  0.19999992891E+01 0.  0.
         13    1    3    3    0    0  0.33368639156E+02  0.12076798312E+02  0.92303231159E+01  0.36667767391E+02  0.10566000000E+00 0. -1.
         13    1    4    4    0    0 -0.66969497733E+01 -0.30357480590E+01 -0.60763780985E+01  0.95393101100E+01  0.10566000000E+00 0. -1.
        -13    1    4    4    0    0 -0.17362404982E+02 -0.64596321360E+01 -0.16187969198E+02  0.24601655734E+02  0.10566000000E+00 0.  1.
         14    1    4    4    0    0 -0.93092844009E+01 -0.25814181172E+01 -0.82535334647E+01  0.12706191806E+02  0.00000000000E+00 0. -1.
<mgrwt>
<rscale>  0 0.80756316E+02</rscale>
<asrwt>0</asrwt>
<pdfrwt beam="1">  1        1 0.47867206E-02 0.80756316E+02</pdfrwt>
<pdfrwt beam="2">  1       -2 0.80617294E-02 0.80756316E+02</pdfrwt>
<totfact> 0.11848366E+05</totfact>
</mgrwt>
</event>
<event>
 8    1  0.1319619E-024  0.7875632E+02  0.7818608E-02  0.1332618E+00
         -2   -1    0    0    0  501 -0.00000000000E+00  0.00000000000E+00  0.12936494579E+03  0.12936494581E+03  0.25500000000E-02 0.  1.
          1   -1    0    0  501    0  0.00000000000E+00 -0.00000000000E+00 -0.11986550436E+02  0.11986551496E+02  0.50400000000E-02 0. -1.
        -24    2    1    2    0    0  0.17763568394E-14 -0.71054273576E-14  0.11737839535E+03  0.14135149731E+03  0.78756320991E+02 0.  0.
         66    2    3    3    0    0 -0.14203184831E+02  0.32819234839E+02  0.88207622855E+02  0.95201981960E+02  0.20000011568E+01 0.  0.
         13    1    3    3    0    0  0.14203184831E+02 -0.32819234839E+02  0.29170772496E+02  0.46149515348E+02  0.10566000000E+00 0. -1.
         13    1    4    4    0    0 -0.15238058016E+01  0.40634697748E+01  0.93410902849E+01  0.10300529233E+02  0.10566000000E+00 0. -1.
        -13    1    4    4    0    0 -0.12466441384E+02  0.28005992486E+02  0.76729652778E+02  0.82626863401E+02  0.10566000000E+00 0.  1.
         14    1    4    4    0    0 -0.21293764564E+00  0.74977257846E+00  0.21368797915E+01  0.22745893264E+01  0.00000000000E+00 0. -1.
<mgrwt>
<rscale>  0 0.78756321E+02</rscale>
<asrwt>0</asrwt>
<pdfrwt beam="1">  1        1 0.18440847E-02 0.78756321E+02</pdfrwt>
<pdfrwt beam="2">  1       -2 0.19902300E-01 0.78756321E+02</pdfrwt>
<totfact> 0.10304110E+05</totfact>
</mgrwt>
</event>
<event>
 8    1  0.1319619E-024  0.7845681E+02  0.7818608E-02  0.1333489E+00
         -2   -1    0    0    0  501 -0.00000000000E+00  0.00000000000E+00  0.16381096326E+03  0.16381096328E+03  0.25500000000E-02 0.  1.
          1   -1    0    0  501    0  0.00000000000E+00 -0.00000000000E+00 -0.93941686284E+01  0.93941699803E+01  0.50400000000E-02 0. -1.
        -24    2    1    2    0    0  0.00000000000E+00  0.00000000000E+00  0.15441679463E+03  0.17320513326E+03  0.78456814385E+02 0.  0.
         66    2    3    3    0    0  0.24691376929E+02 -0.50316064904E+01  0.14355711365E+03  0.14576565452E+03  0.19999996887E+01 0.  0.
         13    1    3    3    0    0 -0.24691376929E+02  0.50316064904E+01  0.10859680978E+02  0.27439478740E+02  0.10566000000E+00 0. -1.
         13    1    4    4    0    0  0.62241131602E+00 -0.33968317173E+00  0.43289513090E+01  0.43879111175E+01  0.10566000000E+00 0.  1.
        -13    1    4    4    0    0  0.13023809240E+02 -0.21520326282E+01  0.78117093918E+02  0.79224632392E+02  0.10566000000E+00 0.  1.
        -14    1    4    4    0    0  0.11045156373E+02 -0.25398906904E+01  0.61111068428E+02  0.62153111012E+02  0.00000000000E+00 0.  1.
<mgrwt>
<rscale>  0 0.78456814E+02</rscale>
<asrwt>0</asrwt>
<pdfrwt beam="1">  1        1 0.14452569E-02 0.78456814E+02</pdfrwt>
<pdfrwt beam="2">  1       -2 0.25201686E-01 0.78456814E+02</pdfrwt>
<totfact> 0.96445957E+04</totfact>
</mgrwt>
</event>
<event>
 8    1  0.1319619E-024  0.8135899E+02  0.7818608E-02  0.1325238E+00
          1   -1    0    0  501    0  0.00000000000E+00  0.00000000000E+00  0.67112774844E+02  0.67112775033E+02  0.50400000000E-02 0. -1.
         -2   -1    0    0    0  501 -0.00000000000E+00 -0.00000000000E+00 -0.24657321663E+02  0.24657321795E+02  0.25500000000E-02 0.  1.
        -24    2    1    2    0    0 -0.35527136788E-14  0.00000000000E+00  0.42455453181E+02  0.91770096828E+02  0.81358989467E+02 0.  0.
         66    2    3    3    0    0  0.21743102909E+02 -0.26595620583E+01 -0.17390934477E+02  0.28040691730E+02  0.19999990730E+01 0.  0.
         13    1    3    3    0    0 -0.21743102909E+02  0.26595620583E+01  0.59846387658E+02  0.63729405098E+02  0.10566000000E+00 0. -1.
         13    1    4    4    0    0  0.32863720476E+01  0.17278983643E+00 -0.22047809442E+01  0.39626153751E+01  0.10566000000E+00 0. -1.
        -13    1    4    4    0    0  0.13148589681E+02 -0.22291312539E+01 -0.10560160039E+02  0.17011248656E+02  0.10566000000E+00 0.  1.
        -14    1    4    4    0    0  0.53081411805E+01 -0.60322064083E+00 -0.46259934937E+01  0.70668276997E+01  0.00000000000E+00 0.  1.
<mgrwt>
<rscale>  0 0.81358989E+02</rscale>
<asrwt>0</asrwt>
<pdfrwt beam="1">  1        1 0.10325042E-01 0.81358989E+02</pdfrwt>
<pdfrwt beam="2">  1       -2 0.37934341E-02 0.81358989E+02</pdfrwt>
<totfact> 0.13155764E+05</totfact>
</mgrwt>
</event>
<event>
 8    1  0.1319619E-024  0.7869375E+02  0.7818608E-02  0.1332800E+00
         -2   -1    0    0    0  501 -0.00000000000E+00  0.00000000000E+00  0.19970464269E+03  0.19970464271E+03  0.25500000000E-02 0.  1.
          1   -1    0    0  501    0  0.00000000000E+00 -0.00000000000E+00 -0.77523297102E+01  0.77523313485E+01  0.50400000000E-02 0. -1.
        -24    2    1    2    0    0 -0.22204460493E-15 -0.35527136788E-14  0.19195231298E+03  0.20745697406E+03  0.78693745785E+02 0.  0.
         66    2    3    3    0    0  0.82987472252E+00  0.27388944130E+02  0.17038457401E+03  0.17258547451E+03  0.19999990149E+01 0.  0.
         13    1    3    3    0    0 -0.82987472252E+00 -0.27388944130E+02  0.21567738965E+02  0.34871499548E+02  0.10566000000E+00 0. -1.
         13    1    4    4    0    0 -0.28606607164E-01  0.14006723186E+02  0.83410624208E+02  0.84578558202E+02  0.10566000000E+00 0. -1.
        -13    1    4    4    0    0  0.39699607055E+00  0.87797344286E+01  0.54160140504E+02  0.54868691674E+02  0.10566000000E+00 0.  1.
         14    1    4    4    0    0  0.46148525913E+00  0.46024865148E+01  0.32813809303E+02  0.33138224631E+02  0.00000000000E+00 0. -1.
<mgrwt>
<rscale>  0 0.78693746E+02</rscale>
<asrwt>0</asrwt>
<pdfrwt beam="1">  1        1 0.11926662E-02 0.78693746E+02</pdfrwt>
<pdfrwt beam="2">  1       -2 0.30723792E-01 0.78693746E+02</pdfrwt>
<totfact> 0.88818042E+04</totfact>
</mgrwt>
</event>
<event>
 8    1  0.1319619E-024  0.7925444E+02  0.7818608E-02  0.1331181E+00
          1   -1    0    0  501    0  0.00000000000E+00  0.00000000000E+00  0.33735744100E+01  0.33735781748E+01  0.50400000000E-02 0. -1.
         -2   -1    0    0    0  501 -0.00000000000E+00 -0.00000000000E+00 -0.46547534122E+03  0.46547534123E+03  0.25500000000E-02 0.  1.
        -24    2    1    2    0    0 -0.44408920985E-15  0.35527136788E-14 -0.46210176681E+03  0.46884891940E+03  0.79254440476E+02 0.  0.
         66    2    3    3    0    0 -0.35201406403E+01  0.20864642408E+02 -0.42922811377E+03  0.42975399747E+03  0.19999986026E+01 0.  0.
         13    1    3    3    0    0  0.35201406403E+01 -0.20864642408E+02 -0.32873653042E+02  0.39094921938E+02  0.10566000000E+00 0. -1.
         13    1    4    4    0    0 -0.15080739516E+01  0.63616912307E+01 -0.12567171658E+03  0.12584171373E+03  0.10566000000E+00 0. -1.
        -13    1    4    4    0    0 -0.10575604971E+01  0.10651931770E+02 -0.21240817063E+03  0.21267774730E+03  0.10566000000E+00 0.  1.
        -14    1    4    4    0    0 -0.95450619155E+00  0.38510194076E+01 -0.91148226558E+02  0.91234536428E+02  0.00000000000E+00 0.  1.
<mgrwt>
<rscale>  0 0.79254440E+02</rscale>
<asrwt>0</asrwt>
<pdfrwt beam="1">  1        1 0.51901211E-03 0.79254440E+02</pdfrwt>
<pdfrwt beam="2">  1       -2 0.71611540E-01 0.79254440E+02</pdfrwt>
<totfact> 0.54466401E+04</totfact>
</mgrwt>
</event>
<event>
 8    1  0.1319619E-024  0.7986562E+02  0.7818608E-02  0.1329433E+00
         -2   -1    0    0    0  501 -0.00000000000E+00  0.00000000000E+00  0.21911231319E+03  0.21911231320E+03  0.25500000000E-02 0.  1.
          1   -1    0    0  501    0  0.00000000000E+00 -0.00000000000E+00 -0.72776796030E+01  0.72776813482E+01  0.50400000000E-02 0. -1.
        -24    2    1    2    0    0 -0.13877787808E-16 -0.35527136788E-14  0.21183463359E+03  0.22638999455E+03  0.79865622434E+02 0.  0.
         66    2    3    3    0    0  0.10925525759E+00 -0.18787594172E+02  0.20578685985E+03  0.20665240699E+03  0.19999996774E+01 0.  0.
         13    1    3    3    0    0 -0.10925525759E+00  0.18787594172E+02  0.60477737416E+01  0.19737587562E+02  0.10566000000E+00 0. -1.
         13    1    4    4    0    0 -0.16169372297E+00 -0.96538591361E+01  0.11107300529E+03  0.11149191365E+03  0.10566000000E+00 0. -1.
        -13    1    4    4    0    0 -0.19818749288E-01 -0.61574923408E+01  0.68639213169E+02  0.68914932005E+02  0.10566000000E+00 0.  1.
        -14    1    4    4    0    0  0.29076772984E+00 -0.29762426955E+01  0.26074641381E+02  0.26245561332E+02  0.00000000000E+00 0.  1.
<mgrwt>
<rscale>  0 0.79865622E+02</rscale>
<asrwt>0</asrwt>
<pdfrwt beam="1">  1        1 0.11196431E-02 0.79865622E+02</pdfrwt>
<pdfrwt beam="2">  1       -2 0.33709587E-01 0.79865622E+02</pdfrwt>
<totfact> 0.82237340E+04</totfact>
</mgrwt>
</event>
<event>
 8    1  0.1319619E-024  0.8138943E+02  0.7818608E-02  0.1325154E+00
          1   -1    0    0  501    0  0.00000000000E+00  0.00000000000E+00  0.77118822412E+01  0.77118838881E+01  0.50400000000E-02 0. -1.
         -2   -1    0    0    0  501 -0.00000000000E+00 -0.00000000000E+00 -0.21474132765E+03  0.21474132767E+03  0.25500000000E-02 0.  1.
        -24    2    1    2    0    0 -0.35527136788E-14  0.71054273576E-14 -0.20702944541E+03  0.22245321156E+03  0.81389434598E+02 0.  0.
         66    2    3    3    0    0  0.19259979296E+02 -0.34782610405E+02 -0.12697394805E+03  0.13306825415E+03  0.19999973742E+01 0.  0.
         13    1    3    3    0    0 -0.19259979296E+02  0.34782610405E+02 -0.80055497364E+02  0.89384957411E+02  0.10566000000E+00 0. -1.
         13    1    4    4    0    0  0.94338123381E+01 -0.16138854774E+02 -0.57769384947E+02  0.60718798159E+02  0.10566000000E+00 0. -1.
        -13    1    4    4    0    0  0.95308707294E+01 -0.17623108749E+02 -0.65875214294E+02  0.68854676538E+02  0.10566000000E+00 0.  1.
        -14    1    4    4    0    0  0.29529622813E+00 -0.10206468815E+01 -0.33293488068E+01  0.34947794489E+01  0.00000000000E+00 0.  1.
<mgrwt>
<rscale>  0 0.81389435E+02</rscale>
<asrwt>0</asrwt>
<pdfrwt beam="1">  1        1 0.11864437E-02 0.81389435E+02</pdfrwt>
<pdfrwt beam="2">  1       -2 0.33037123E-01 0.81389435E+02</pdfrwt>
<totfact> 0.79002612E+04</totfact>
</mgrwt>
</event>
<event>
 8    1  0.1319619E-024  0.7880935E+02  0.7818608E-02  0.1332465E+00
         -2   -1    0    0    0  501 -0.00000000000E+00  0.00000000000E+00  0.13614924148E+02  0.13614924387E+02  0.25500000000E-02 0.  1.
          1   -1    0    0  501    0  0.00000000000E+00 -0.00000000000E+00 -0.11404605176E+03  0.11404605187E+03  0.50400000000E-02 0. -1.
        -24    2    1    2    0    0  0.00000000000E+00  0.00000000000E+00 -0.10043112761E+03  0.12766097626E+03  0.78809348846E+02 0.  0.
         66    2    3    3    0    0  0.86137166882E+01 -0.21408735093E+02  0.14408789700E+01  0.23207891370E+02  0.20000090497E+01 0.  0.
         13    1    3    3    0    0 -0.86137166882E+01  0.21408735093E+02 -0.10187200658E+03  0.10445308489E+03  0.10566000000E+00 0. -1.
         13    1    4    4    0    0  0.67038402521E+00 -0.10803547154E+01 -0.12710943096E+00  0.12821473766E+01  0.10566000000E+00 0. -1.
        -13    1    4    4    0    0  0.28052623618E+01 -0.63750876883E+01  0.10756253466E+01  0.70483596583E+01  0.10566000000E+00 0.  1.
         14    1    4    4    0    0  0.51380703012E+01 -0.13953292689E+02  0.49236305440E+00  0.14877384335E+02  0.00000000000E+00 0. -1.
<mgrwt>
<rscale>  0 0.78809349E+02</rscale>
<asrwt>0</asrwt>
<pdfrwt beam="1">  1        1 0.17545546E-01 0.78809349E+02</pdfrwt>
<pdfrwt beam="2">  1       -2 0.20946038E-02 0.78809349E+02</pdfrwt>
<totfact> 0.15651130E+05</totfact>
</mgrwt>
</event>
<event>
 8    1  0.1319619E-024  0.8314744E+02  0.7818608E-02  0.1320350E+00
         -2   -1    0    0    0  501 -0.00000000000E+00  0.00000000000E+00  0.10551487222E+04  0.10551487222E+04  0.25500000000E-02 0.  1.
          1   -1    0    0  501    0  0.00000000000E+00 -0.00000000000E+00 -0.16380346489E+01  0.16380424025E+01  0.50400000000E-02 0. -1.
        -24    2    1    2    0    0 -0.35527136788E-14 -0.17763568394E-14  0.10535106875E+04  0.10567867646E+04  0.83147441697E+02 0.  0.
         66    2    3    3    0    0  0.20459730055E+02  0.12364298657E+02  0.95898523055E+03  0.95928522810E+03  0.20000011050E+01 0.  0.
         13    1    3    3    0    0 -0.20459730055E+02 -0.12364298657E+02  0.94525456960E+02  0.97501536463E+02  0.10566000000E+00 0. -1.
         13    1    4    4    0    0  0.10422993751E+01  0.72767683413E+00  0.44982742397E+02  0.45000824206E+02  0.10566000000E+00 0. -1.
        -13    1    4    4    0    0  0.59253677250E+01  0.33433160112E+01  0.30650766202E+03  0.30658317922E+03  0.10566000000E+00 0.  1.
        -14    1    4    4    0    0  0.13492062955E+02  0.82933058117E+01  0.60749482614E+03  0.60770122467E+03  0.00000000000E+00 0.  1.
<mgrwt>
<rscale>  0 0.83147442E+02</rscale>
<asrwt>0</asrwt>
<pdfrwt beam="1">  1        1 0.25200531E-03 0.83147442E+02</pdfrwt>
<pdfrwt beam="2">  1       -2 0.16233097E+00 0.83147442E+02</pdfrwt>
<totfact> 0.22140109E+04</totfact>
</mgrwt>
</event>
<event>
 8    1  0.1319619E-024  0.8039520E+02  0.7818608E-02  0.1327934E+00
          1   -1    0    0  501    0  0.00000000000E+00  0.00000000000E+00  0.51633211234E+01  0.51633235832E+01  0.50400000000E-02 0. -1.
         -2   -1    0    0    0  501 -0.00000000000E+00 -0.00000000000E+00 -0.31294714754E+03  0.31294714755E+03  0.25500000000E-02 0.  1.
        -24    2    1    2    0    0  0.00000000000E+00 -0.35527136788E-14 -0.30778382642E+03  0.31811047114E+03  0.80395199118E+02 0.  0.
         66    2    3    3    0    0 -0.84573506150E+01  0.23246224227E+02 -0.27923355330E+03  0.28033424873E+03  0.20000003889E+01 0.  0.
         13    1    3    3    0    0  0.84573506150E+01 -0.23246224227E+02 -0.28550273123E+02  0.37776222411E+02  0.10566000000E+00 0. -1.
         13    1    4    4    0    0 -0.16810127794E+01  0.43662519882E+01 -0.48977521321E+02  0.49200596736E+02  0.10566000000E+00 0. -1.
        -13    1    4    4    0    0 -0.60696183100E+01  0.16512044559E+02 -0.20722392575E+03  0.20796935940E+03  0.10566000000E+00 0.  1.
        -14    1    4    4    0    0 -0.70671952566E+00  0.23679276799E+01 -0.23032106223E+02  0.23164292587E+02  0.00000000000E+00 0.  1.
<mgrwt>
<rscale>  0 0.80395199E+02</rscale>
<asrwt>0</asrwt>
<pdfrwt beam="1">  1        1 0.79435753E-03 0.80395199E+02</pdfrwt>
<pdfrwt beam="2">  1       -2 0.48145700E-01 0.80395199E+02</pdfrwt>
<totfact> 0.67780864E+04</totfact>
</mgrwt>
</event>
<event>
 8    1  0.1319619E-024  0.7961029E+02  0.7818608E-02  0.1330161E+00
          1   -1    0    0  501    0  0.00000000000E+00  0.00000000000E+00  0.15755035336E+02  0.15755036142E+02  0.50400000000E-02 0. -1.
         -2   -1    0    0    0  501 -0.00000000000E+00 -0.00000000000E+00 -0.10056781478E+03  0.10056781481E+03  0.25500000000E-02 0.  1.
        -24    2    1    2    0    0  0.00000000000E+00  0.00000000000E+00 -0.84812779443E+02  0.11632285095E+03  0.79610288890E+02 0.  0.
         66    2    3    3    0    0 -0.33906711684E+02  0.20731997346E+01 -0.72678649767E+02  0.80250541333E+02  0.19999994914E+01 0.  0.
         13    1    3    3    0    0  0.33906711684E+02 -0.20731997346E+01 -0.12134129677E+02  0.36072309621E+02  0.10566000000E+00 0. -1.
         13    1    4    4    0    0 -0.15794535756E+01  0.46840294758E+00 -0.35380432652E+01  0.39042270811E+01  0.10566000000E+00 0. -1.
        -13    1    4    4    0    0 -0.73594594488E+01  0.63392329149E+00 -0.15285306769E+02  0.16976903993E+02  0.10566000000E+00 0.  1.
        -14    1    4    4    0    0 -0.24967798659E+02  0.97087349554E+00 -0.53855299732E+02  0.59369410259E+02  0.00000000000E+00 0.  1.
<mgrwt>
<rscale>  0 0.79610289E+02</rscale>
<asrwt>0</asrwt>
<pdfrwt beam="1">  1        1 0.24238517E-02 0.79610289E+02</pdfrwt>
<pdfrwt beam="2">  1       -2 0.15471971E-01 0.79610289E+02</pdfrwt>
<totfact> 0.10731133E+05</totfact>
</mgrwt>
</event>
<event>
 8    1  0.1319619E-024  0.7957019E+02  0.7818608E-02  0.1330276E+00
          1   -1    0    0  501    0  0.00000000000E+00  0.00000000000E+00  0.30098636914E+02  0.30098637336E+02  0.50400000000E-02 0. -1.
         -2   -1    0    0    0  501 -0.00000000000E+00 -0.00000000000E+00 -0.52588879027E+02  0.52588879089E+02  0.25500000000E-02 0.  1.
        -24    2    1    2    0    0  0.00000000000E+00  0.00000000000E+00 -0.22490242113E+02  0.82687516425E+02  0.79570185259E+02 0.  0.
         66    2    3    3    0    0 -0.18373979016E+02  0.33496704572E+02  0.18895609132E+00  0.38257914611E+02  0.20000009701E+01 0.  0.
         13    1    3    3    0    0  0.18373979016E+02 -0.33496704572E+02 -0.22679198204E+02  0.44429601814E+02  0.10566000000E+00 0. -1.
         13    1    4    4    0    0 -0.73312975794E+01  0.12252088843E+02 -0.71511481197E+00  0.14296298767E+02  0.10566000000E+00 0. -1.
        -13    1    4    4    0    0 -0.74606884483E+01  0.14150566465E+02  0.65348279533E+00  0.16010577979E+02  0.10566000000E+00 0.  1.
         14    1    4    4    0    0 -0.35819929885E+01  0.70940492643E+01  0.25058810796E+00  0.79510378652E+01  0.00000000000E+00 0. -1.
<mgrwt>
<rscale>  0 0.79570185E+02</rscale>
<asrwt>0</asrwt>
<pdfrwt beam="1">  1        1 0.46305596E-02 0.79570185E+02</pdfrwt>
<pdfrwt beam="2">  1       -2 0.80905968E-02 0.79570185E+02</pdfrwt>
<totfact> 0.12290514E+05</totfact>
</mgrwt>
</event>
<event>
 8    1  0.1319619E-024  0.8000536E+02  0.7818608E-02  0.1329036E+00
          1   -1    0    0  501    0  0.00000000000E+00  0.00000000000E+00  0.50216982215E+01  0.50217007506E+01  0.50400000000E-02 0. -1.
         -2   -1    0    0    0  501 -0.00000000000E+00 -0.00000000000E+00 -0.31865991200E+03  0.31865991201E+03  0.25500000000E-02 0.  1.
        -24    2    1    2    0    0  0.35527136788E-14  0.35527136788E-14 -0.31363821377E+03  0.32368161276E+03  0.80005357928E+02 0.  0.
         66    2    3    3    0    0  0.29149654789E+02  0.26346805573E+02 -0.18674386270E+03  0.19084319950E+03  0.20000001291E+01 0.  0.
         13    1    3    3    0    0 -0.29149654789E+02 -0.26346805573E+02 -0.12689435107E+03  0.13283841326E+03  0.10566000000E+00 0. -1.
         13    1    4    4    0    0  0.13389651651E+02  0.13019336779E+02 -0.87147318750E+02  0.89126046871E+02  0.10566000000E+00 0. -1.
        -13    1    4    4    0    0  0.49725384571E+01  0.47791306375E+01 -0.33489560735E+02  0.34192514833E+02  0.10566000000E+00 0.  1.
        -14    1    4    4    0    0  0.10787464681E+02  0.85483381571E+01 -0.66106983219E+02  0.67524637798E+02  0.00000000000E+00 0.  1.
<mgrwt>
<rscale>  0 0.80005358E+02</rscale>
<asrwt>0</asrwt>
<pdfrwt beam="1">  1        1 0.77256941E-03 0.80005358E+02</pdfrwt>
<pdfrwt beam="2">  1       -2 0.49024586E-01 0.80005358E+02</pdfrwt>
<totfact> 0.67941027E+04</totfact>
</mgrwt>
</event>
<event>
 8    1  0.1319619E-024  0.7839382E+02  0.7818608E-02  0.1333672E+00
         -2   -1    0    0    0  501 -0.00000000000E+00  0.00000000000E+00  0.10223502648E+03  0.10223502651E+03  0.25500000000E-02 0.  1.
          1   -1    0    0  501    0  0.00000000000E+00 -0.00000000000E+00 -0.15028093571E+02  0.15028094416E+02  0.50400000000E-02 0. -1.
        -24    2    1    2    0    0  0.00000000000E+00  0.00000000000E+00  0.87206932905E+02  0.11726312092E+03  0.78393815968E+02 0.  0.
         66    2    3    3    0    0  0.25931589084E+02  0.24582526990E+02  0.67641662636E+02  0.76525436768E+02  0.20000006566E+01 0.  0.
         13    1    3    3    0    0 -0.25931589084E+02 -0.24582526990E+02  0.19565270269E+02  0.40737684156E+02  0.10566000000E+00 0. -1.
         13    1    4    4    0    0  0.91892214079E+01  0.88979737939E+01  0.25270071689E+02  0.28323195705E+02  0.10566000000E+00 0. -1.
        -13    1    4    4    0    0  0.72917805089E+01  0.77271170329E+01  0.19820155804E+02  0.22488400138E+02  0.10566000000E+00 0.  1.
        -14    1    4    4    0    0  0.94505871675E+01  0.79574361637E+01  0.22551435143E+02  0.25713840925E+02  0.00000000000E+00 0.  1.
<mgrwt>
<rscale>  0 0.78393816E+02</rscale>
<asrwt>0</asrwt>
<pdfrwt beam="1">  1        1 0.23120144E-02 0.78393816E+02</pdfrwt>
<pdfrwt beam="2">  1       -2 0.15728466E-01 0.78393816E+02</pdfrwt>
<totfact> 0.11116610E+05</totfact>
</mgrwt>
</event>
<event>
 8    1  0.1319619E-024  0.8001641E+02  0.7818608E-02  0.1329005E+00
         -2   -1    0    0    0  501 -0.00000000000E+00  0.00000000000E+00  0.50424017163E+01  0.50424023611E+01  0.25500000000E-02 0.  1.
          1   -1    0    0  501    0  0.00000000000E+00 -0.00000000000E+00 -0.31743926503E+03  0.31743926507E+03  0.50400000000E-02 0. -1.
        -24    2    1    2    0    0  0.00000000000E+00  0.00000000000E+00 -0.31239686332E+03  0.32248166743E+03  0.80016408448E+02 0.  0.
         66    2    3    3    0    0  0.25763974470E+02 -0.29462954873E+02 -0.12335562811E+03  0.12943129095E+03  0.19999996714E+01 0.  0.
         13    1    3    3    0    0 -0.25763974470E+02  0.29462954873E+02 -0.18904123520E+03  0.19305037648E+03  0.10566000000E+00 0. -1.
         13    1    4    4    0    0  0.89535327109E+01 -0.93441682421E+01 -0.38588742215E+02  0.40701123055E+02  0.10566000000E+00 0. -1.
        -13    1    4    4    0    0  0.12176048772E+02 -0.14664622272E+02 -0.60900084314E+02  0.63813311648E+02  0.10566000000E+00 0.  1.
         14    1    4    4    0    0  0.46343929879E+01 -0.54541643597E+01 -0.23866801584E+02  0.24916856244E+02  0.00000000000E+00 0. -1.
<mgrwt>
<rscale>  0 0.80016408E+02</rscale>
<asrwt>0</asrwt>
<pdfrwt beam="1">  1        1 0.48836795E-01 0.80016408E+02</pdfrwt>
<pdfrwt beam="2">  1       -2 0.77575441E-03 0.80016408E+02</pdfrwt>
<totfact> 0.18225088E+05</totfact>
</mgrwt>
</event>
<event>
 8    1  0.1538361E-024  0.7972192E+02  0.7818608E-02  0.1329842E+00
          1   -1    0    0  501    0  0.00000000000E+00  0.00000000000E+00  0.18578189978E+02  0.18578190661E+02  0.50400000000E-02 0. -1.
         -2   -1    0    0    0  501 -0.00000000000E+00 -0.00000000000E+00 -0.85524812888E+02  0.85524812926E+02  0.25500000000E-02 0.  1.
        -24    2    1    2    0    0 -0.17763568394E-14  0.00000000000E+00 -0.66946622910E+02  0.10410300359E+03  0.79721923188E+02 0.  0.
         66    2    3    3    0    0 -0.93359980529E+01  0.92568348442E+01 -0.82598284941E+02  0.83661977699E+02  0.19999966063E+01 0.  0.
         13    1    3    3    0    0  0.93359980529E+01 -0.92568348442E+01  0.15651662031E+02  0.20441025888E+02  0.10566000000E+00 0. -1.
         13    1    4    4    0    0 -0.90273115539E+00  0.52707572377E+00 -0.48811334360E+01  0.49929310042E+01  0.10566000000E+00 0. -1.
        -13    1    4    4    0    0 -0.73168960681E+01  0.70889968535E+01 -0.62951966909E+02  0.63771091775E+02  0.10566000000E+00 0.  1.
        -14    1    4    4    0    0 -0.11163708295E+01  0.16407622669E+01 -0.14765184596E+02  0.14897954920E+02  0.00000000000E+00 0.  1.
<mgrwt>
<rscale>  0 0.79721923E+02</rscale>
<asrwt>0</asrwt>
<pdfrwt beam="1">  1        1 0.28581832E-02 0.79721923E+02</pdfrwt>
<pdfrwt beam="2">  1       -2 0.13157663E-01 0.79721923E+02</pdfrwt>
<totfact> 0.11110955E+05</totfact>
</mgrwt>
</event>
<event>
 8    1  0.1319619E-024  0.7729848E+02  0.7818608E-02  0.1336898E+00
         -2   -1    0    0    0  501 -0.00000000000E+00  0.00000000000E+00  0.99391261909E+02  0.99391261941E+02  0.25500000000E-02 0.  1.
          1   -1    0    0  501    0  0.00000000000E+00 -0.00000000000E+00 -0.15029124753E+02  0.15029125598E+02  0.50400000000E-02 0. -1.
        -24    2    1    2    0    0  0.00000000000E+00  0.00000000000E+00  0.84362137156E+02  0.11442038754E+03  0.77298479280E+02 0.  0.
         66    2    3    3    0    0 -0.18534715169E+02 -0.28976858793E+02  0.68211161945E+02  0.76419608912E+02  0.20000001381E+01 0.  0.
         13    1    3    3    0    0  0.18534715169E+02  0.28976858793E+02  0.16150975211E+02  0.38000778627E+02  0.10566000000E+00 0. -1.
         13    1    4    4    0    0 -0.57399096772E+01 -0.76302702389E+01  0.19672408389E+02  0.21867382168E+02  0.10566000000E+00 0. -1.
        -13    1    4    4    0    0 -0.57658929902E+01 -0.94685060299E+01  0.22394647911E+02  0.24988588345E+02  0.10566000000E+00 0.  1.
         14    1    4    4    0    0 -0.70289125012E+01 -0.11878082525E+02  0.26144105645E+02  0.29563638399E+02  0.00000000000E+00 0. -1.
<mgrwt>
<rscale>  0 0.77298479E+02</rscale>
<asrwt>0</asrwt>
<pdfrwt beam="1">  1        1 0.23121731E-02 0.77298479E+02</pdfrwt>
<pdfrwt beam="2">  1       -2 0.15290963E-01 0.77298479E+02</pdfrwt>
<totfact> 0.11604896E+05</totfact>
</mgrwt>
</event>
<event>
 8    1  0.1319619E-024  0.8090955E+02  0.7818608E-02  0.1326490E+00
          1   -1    0    0  501    0  0.00000000000E+00  0.00000000000E+00  0.17631375231E+03  0.17631375238E+03  0.50400000000E-02 0. -1.
         -2   -1    0    0    0  501 -0.00000000000E+00 -0.00000000000E+00 -0.92822531878E+01  0.92822535381E+01  0.25500000000E-02 0.  1.
        -24    2    1    2    0    0  0.71054273576E-14  0.00000000000E+00  0.16703149912E+03  0.18559600592E+03  0.80909552677E+02 0.  0.
         66    2    3    3    0    0  0.28168860129E+02  0.83909449392E+01  0.19885757279E+02  0.35543437983E+02  0.20000007810E+01 0.  0.
         13    1    3    3    0    0 -0.28168860129E+02 -0.83909449392E+01  0.14714574184E+03  0.15005256793E+03  0.10566000000E+00 0. -1.
         13    1    4    4    0    0  0.98467315197E+01  0.31211067079E+01  0.61967733339E+01  0.12046185807E+02  0.10566000000E+00 0. -1.
        -13    1    4    4    0    0  0.11371329442E+02  0.27135543201E+01  0.82676298200E+01  0.14319056436E+02  0.10566000000E+00 0.  1.
         14    1    4    4    0    0  0.69507991672E+01  0.25562839112E+01  0.54213541251E+01  0.91781957403E+01  0.00000000000E+00 0. -1.
<mgrwt>
<rscale>  0 0.80909553E+02</rscale>
<asrwt>0</asrwt>
<pdfrwt beam="1">  1        1 0.27125191E-01 0.80909553E+02</pdfrwt>
<pdfrwt beam="2">  1       -2 0.14280391E-02 0.80909553E+02</pdfrwt>
<totfact> 0.15791072E+05</totfact>
</mgrwt>
</event>
<event>
 8    1  0.1319619E-024  0.7845456E+02  0.7818608E-02  0.1333495E+00
         -2   -1    0    0    0  501 -0.00000000000E+00  0.00000000000E+00  0.26277937903E+02  0.26277938026E+02  0.25500000000E-02 0.  1.
          1   -1    0    0  501    0  0.00000000000E+00 -0.00000000000E+00 -0.58557851893E+02  0.58557852110E+02  0.50400000000E-02 0. -1.
        -24    2    1    2    0    0 -0.35527136788E-14 -0.88817841970E-15 -0.32279913990E+02  0.84835790136E+02  0.78454562906E+02 0.  0.
         66    2    3    3    0    0  0.19236637740E+02 -0.57354281393E+01  0.20260794522E+02  0.28590962974E+02  0.20000004099E+01 0.  0.
         13    1    3    3    0    0 -0.19236637740E+02  0.57354281393E+01 -0.52540708512E+02  0.56244827162E+02  0.10566000000E+00 0. -1.
         13    1    4    4    0    0  0.98324223625E+01 -0.31515083969E+01  0.11113236743E+02  0.15169829585E+02  0.10566000000E+00 0.  1.
        -13    1    4    4    0    0  0.85559265204E+01 -0.26484052520E+01  0.81489099504E+01  0.12109245493E+02  0.10566000000E+00 0. -1.
        -14    1    4    4    0    0  0.84828885712E+00  0.64485509541E-01  0.99864782887E+00  0.13118878962E+01  0.00000000000E+00 0.  1.
<mgrwt>
<rscale>  0 0.78454563E+02</rscale>
<asrwt>0</asrwt>
<pdfrwt beam="1">  1        1 0.90089003E-02 0.78454563E+02</pdfrwt>
<pdfrwt beam="2">  1       -2 0.40427597E-02 0.78454563E+02</pdfrwt>
<totfact> 0.14231719E+05</totfact>
</mgrwt>
</event>
<event>
 8    1  0.1319619E-024  0.8008856E+02  0.7818608E-02  0.1328800E+00
          1   -1    0    0  501    0  0.00000000000E+00  0.00000000000E+00  0.22719667996E+03  0.22719668001E+03  0.50400000000E-02 0. -1.
         -2   -1    0    0    0  501 -0.00000000000E+00 -0.00000000000E+00 -0.70579566728E+01  0.70579571335E+01  0.25500000000E-02 0.  1.
        -24    2    1    2    0    0  0.00000000000E+00  0.00000000000E+00  0.22013872329E+03  0.23425463715E+03  0.80088560578E+02 0.  0.
         66    2    3    3    0    0 -0.33921150778E+02  0.13882577825E+02  0.63140854415E+02  0.73035182890E+02  0.20000016019E+01 0.  0.
         13    1    3    3    0    0  0.33921150778E+02 -0.13882577825E+02  0.15699786887E+03  0.16121945426E+03  0.10566000000E+00 0. -1.
         13    1    4    4    0    0 -0.19560456126E+01  0.10431573411E+01  0.40768843426E+01  0.46418144788E+01  0.10566000000E+00 0. -1.
        -13    1    4    4    0    0 -0.11957583266E+02  0.56198455438E+01  0.22490831546E+02  0.26084768145E+02  0.10566000000E+00 0.  1.
        -14    1    4    4    0    0 -0.20007521899E+02  0.72195749400E+01  0.36573138526E+02  0.42308600266E+02  0.00000000000E+00 0.  1.
<mgrwt>
<rscale>  0 0.80088561E+02</rscale>
<asrwt>0</asrwt>
<pdfrwt beam="1">  1        1 0.34953326E-01 0.80088561E+02</pdfrwt>
<pdfrwt beam="2">  1       -2 0.10858398E-02 0.80088561E+02</pdfrwt>
<totfact> 0.17043301E+05</totfact>
</mgrwt>
</event>
<event>
 8    1  0.1319619E-024  0.7882673E+02  0.7818608E-02  0.1332414E+00
          1   -1    0    0  501    0  0.00000000000E+00  0.00000000000E+00  0.18842341345E+03  0.18842341352E+03  0.50400000000E-02 0. -1.
         -2   -1    0    0    0  501 -0.00000000000E+00 -0.00000000000E+00 -0.82442690257E+01  0.82442694200E+01  0.25500000000E-02 0.  1.
        -24    2    1    2    0    0  0.00000000000E+00  0.00000000000E+00  0.18017914442E+03  0.19666768294E+03  0.78826730406E+02 0.  0.
         66    2    3    3    0    0 -0.60218729298E+01 -0.32711474239E+02  0.37510458743E+02  0.50173080517E+02  0.19999982232E+01 0.  0.
         13    1    3    3    0    0  0.60218729298E+01  0.32711474239E+02  0.14266868568E+03  0.14649460242E+03  0.10566000000E+00 0. -1.
         13    1    4    4    0    0 -0.84813078558E+00 -0.49146976218E+01  0.57582740340E+01  0.76185603908E+01  0.10566000000E+00 0. -1.
        -13    1    4    4    0    0 -0.49293285771E+01 -0.26107410807E+02  0.30420759600E+02  0.40389713517E+02  0.10566000000E+00 0.  1.
         14    1    4    4    0    0 -0.24441356713E+00 -0.16893658103E+01  0.13314251093E+01  0.21648066090E+01  0.00000000000E+00 0. -1.
<mgrwt>
<rscale>  0 0.78826730E+02</rscale>
<asrwt>0</asrwt>
<pdfrwt beam="1">  1        1 0.28988219E-01 0.78826730E+02</pdfrwt>
<pdfrwt beam="2">  1       -2 0.12683490E-02 0.78826730E+02</pdfrwt>
<totfact> 0.17142332E+05</totfact>
</mgrwt>
</event>
<event>
 8    1  0.1319619E-024  0.7983000E+02  0.7818608E-02  0.1329535E+00
          1   -1    0    0  501    0  0.00000000000E+00  0.00000000000E+00  0.28365468361E+01  0.28365513136E+01  0.50400000000E-02 0. -1.
         -2   -1    0    0    0  501 -0.00000000000E+00 -0.00000000000E+00 -0.56167093396E+03  0.56167093396E+03  0.25500000000E-02 0.  1.
        -24    2    1    2    0    0  0.00000000000E+00 -0.88817841970E-15 -0.55883438712E+03  0.56450748528E+03  0.79829998774E+02 0.  0.
         66    2    3    3    0    0  0.34031198638E+02 -0.69559483237E+01 -0.41828733304E+03  0.41973181994E+03  0.19999983287E+01 0.  0.
         13    1    3    3    0    0 -0.34031198638E+02  0.69559483237E+01 -0.14054705408E+03  0.14477566534E+03  0.10566000000E+00 0. -1.
         13    1    4    4    0    0  0.38765981465E+01 -0.44166617052E+00 -0.42166892451E+02  0.42347149434E+02  0.10566000000E+00 0. -1.
        -13    1    4    4    0    0  0.29781553735E+02 -0.65080576748E+01 -0.37235322204E+03  0.37359902152E+03  0.10566000000E+00 0.  1.
        -14    1    4    4    0    0  0.37304675625E+00 -0.62244783741E-02 -0.37672185527E+01  0.37856489866E+01  0.00000000000E+00 0.  1.
<mgrwt>
<rscale>  0 0.79829999E+02</rscale>
<asrwt>0</asrwt>
<pdfrwt beam="1">  1        1 0.43639261E-03 0.79829999E+02</pdfrwt>
<pdfrwt beam="2">  1       -2 0.86410824E-01 0.79829999E+02</pdfrwt>
<totfact> 0.46193736E+04</totfact>
</mgrwt>
</event>
<event>
 8    1  0.1319619E-024  0.7891923E+02  0.7818608E-02  0.1332147E+00
         -2   -1    0    0    0  501 -0.00000000000E+00  0.00000000000E+00  0.58251130566E+03  0.58251130567E+03  0.25500000000E-02 0.  1.
          1   -1    0    0  501    0  0.00000000000E+00 -0.00000000000E+00 -0.26730120857E+01  0.26730168372E+01  0.50400000000E-02 0. -1.
        -24    2    1    2    0    0 -0.17763568394E-14  0.00000000000E+00  0.57983829358E+03  0.58518432251E+03  0.78919228378E+02 0.  0.
         66    2    3    3    0    0 -0.11725624448E+02  0.61083212803E+01  0.56558440511E+03  0.56574245125E+03  0.19999956792E+01 0.  0.
         13    1    3    3    0    0  0.11725624448E+02 -0.61083212803E+01  0.14253888470E+02  0.19441871261E+02  0.10566000000E+00 0. -1.
         13    1    4    4    0    0 -0.10782220735E+01  0.85356042727E+00  0.47352907440E+02  0.47372989512E+02  0.10566000000E+00 0. -1.
        -13    1    4    4    0    0 -0.74116050587E+01  0.43559995218E+01  0.37781825923E+03  0.37791606845E+03  0.10566000000E+00 0.  1.
        -14    1    4    4    0    0 -0.32357973159E+01  0.89876133128E+00  0.14041323844E+03  0.14045339328E+03  0.00000000000E+00 0.  1.
<mgrwt>
<rscale>  0 0.78919228E+02</rscale>
<asrwt>0</asrwt>
<pdfrwt beam="1">  1        1 0.41123309E-03 0.78919228E+02</pdfrwt>
<pdfrwt beam="2">  1       -2 0.89617102E-01 0.78919228E+02</pdfrwt>
<totfact> 0.46163474E+04</totfact>
</mgrwt>
</event>
<event>
 8    1  0.1319619E-024  0.7927296E+02  0.7818608E-02  0.1331127E+00
         -2   -1    0    0    0  501 -0.00000000000E+00  0.00000000000E+00  0.26234873498E+02  0.26234873622E+02  0.25500000000E-02 0.  1.
          1   -1    0    0  501    0  0.00000000000E+00 -0.00000000000E+00 -0.59884048783E+02  0.59884048995E+02  0.50400000000E-02 0. -1.
        -24    2    1    2    0    0  0.00000000000E+00 -0.35527136788E-14 -0.33649175284E+02  0.86118922617E+02  0.79272957781E+02 0.  0.
         66    2    3    3    0    0  0.36987837662E+01 -0.26610968912E+02  0.14785459409E+02  0.30731652692E+02  0.19999998691E+01 0.  0.
         13    1    3    3    0    0 -0.36987837662E+01  0.26610968912E+02 -0.48434634693E+02  0.55387269925E+02  0.10566000000E+00 0. -1.
         13    1    4    4    0    0  0.19642777650E+00 -0.21033787582E+01  0.86538295978E+00  0.22853528774E+01  0.10566000000E+00 0. -1.
        -13    1    4    4    0    0  0.24882546127E+01 -0.11997598004E+02  0.66432603466E+01  0.13938358618E+02  0.10566000000E+00 0.  1.
        -14    1    4    4    0    0  0.10141013770E+01 -0.12509992150E+02  0.72768161025E+01  0.14507941197E+02  0.00000000000E+00 0.  1.
<mgrwt>
<rscale>  0 0.79272958E+02</rscale>
<asrwt>0</asrwt>
<pdfrwt beam="1">  1        1 0.92129306E-02 0.79272958E+02</pdfrwt>
<pdfrwt beam="2">  1       -2 0.40361344E-02 0.79272958E+02</pdfrwt>
<totfact> 0.13879052E+05</totfact>
</mgrwt>
</event>
<event>
 8    1  0.1319619E-024  0.8019717E+02  0.7818608E-02  0.1328493E+00
         -2   -1    0    0    0  501 -0.00000000000E+00  0.00000000000E+00  0.13772106684E+02  0.13772106920E+02  0.25500000000E-02 0.  1.
          1   -1    0    0  501    0  0.00000000000E+00 -0.00000000000E+00 -0.11675020917E+03  0.11675020927E+03  0.50400000000E-02 0. -1.
        -24    2    1    2    0    0  0.00000000000E+00  0.00000000000E+00 -0.10297810248E+03  0.13052231619E+03  0.80197165998E+02 0.  0.
         66    2    3    3    0    0  0.18642508861E+02 -0.11796556358E+02  0.29264682063E+01  0.22344263267E+02  0.20000015569E+01 0.  0.
         13    1    3    3    0    0 -0.18642508861E+02  0.11796556358E+02 -0.10590457069E+03  0.10817805293E+03  0.10566000000E+00 0. -1.
         13    1    4    4    0    0  0.70150696181E+01 -0.45128048157E+01  0.30345901055E+00  0.83474463435E+01  0.10566000000E+00 0. -1.
        -13    1    4    4    0    0  0.17066981234E+01 -0.14064734264E+01  0.30227482087E+00  0.22346185550E+01  0.10566000000E+00 0.  1.
         14    1    4    4    0    0  0.99207411199E+01 -0.58772781160E+01  0.23207343749E+01  0.11762198368E+02  0.00000000000E+00 0. -1.
<mgrwt>
<rscale>  0 0.80197166E+02</rscale>
<asrwt>0</asrwt>
<pdfrwt beam="1">  1        1 0.17961570E-01 0.80197166E+02</pdfrwt>
<pdfrwt beam="2">  1       -2 0.21187857E-02 0.80197166E+02</pdfrwt>
<totfact> 0.14994209E+05</totfact>
</mgrwt>
</event>
<event>
 8    1  0.1319619E-024  0.7649070E+02  0.7818608E-02  0.1339316E+00
         -2   -1    0    0    0  501 -0.00000000000E+00  0.00000000000E+00  0.40497820966E+02  0.40497821046E+02  0.25500000000E-02 0.  1.
          1   -1    0    0  501    0  0.00000000000E+00 -0.00000000000E+00 -0.36118155711E+02  0.36118156062E+02  0.50400000000E-02 0. -1.
        -24    2    1    2    0    0  0.00000000000E+00  0.00000000000E+00  0.43796652552E+01  0.76615977108E+02  0.76490695385E+02 0.  0.
         66    2    3    3    0    0  0.19469677550E+02 -0.64096593727E+01  0.34501710886E+02  0.40181091707E+02  0.19999998878E+01 0.  0.
         13    1    3    3    0    0 -0.19469677550E+02  0.64096593727E+01 -0.30122045631E+02  0.36434885401E+02  0.10566000000E+00 0. -1.
         13    1    4    4    0    0  0.32802458507E+01 -0.89695153759E+00  0.64157591392E+01  0.72620702468E+01  0.10566000000E+00 0. -1.
        -13    1    4    4    0    0  0.12240670199E+02 -0.46151983778E+01  0.20467839395E+02  0.24291514496E+02  0.10566000000E+00 0.  1.
        -14    1    4    4    0    0  0.39487615004E+01 -0.89750945728E+00  0.76181123519E+01  0.86275069643E+01  0.00000000000E+00 0.  1.
<mgrwt>
<rscale>  0 0.76490695E+02</rscale>
<asrwt>0</asrwt>
<pdfrwt beam="1">  1        1 0.55566394E-02 0.76490695E+02</pdfrwt>
<pdfrwt beam="2">  1       -2 0.62304340E-02 0.76490695E+02</pdfrwt>
<totfact> 0.14172225E+05</totfact>
</mgrwt>
</event>
<event>
 8    1  0.1319619E-024  0.7943941E+02  0.7818608E-02  0.1330650E+00
         -2   -1    0    0    0  501 -0.00000000000E+00  0.00000000000E+00  0.10946454501E+03  0.10946454503E+03  0.25500000000E-02 0.  1.
          1   -1    0    0  501    0  0.00000000000E+00 -0.00000000000E+00 -0.14412475239E+02  0.14412476120E+02  0.50400000000E-02 0. -1.
        -24    2    1    2    0    0  0.00000000000E+00  0.35527136788E-14  0.95052069766E+02  0.12387702116E+03  0.79439413414E+02 0.  0.
         66    2    3    3    0    0  0.16966592119E+02  0.25785383861E+02  0.86475239084E+02  0.91840722094E+02  0.19999977662E+01 0.  0.
         13    1    3    3    0    0 -0.16966592119E+02 -0.25785383861E+02  0.85768306815E+01  0.32036299061E+02  0.10566000000E+00 0. -1.
         13    1    4    4    0    0  0.51616467253E+01  0.79731855690E+01  0.27152307305E+02  0.28765834614E+02  0.10566000000E+00 0.  1.
        -13    1    4    4    0    0  0.61039222781E+01  0.95614525898E+01  0.29188623020E+02  0.31315589099E+02  0.10566000000E+00 0.  1.
        -14    1    4    4    0    0  0.57010231155E+01  0.82507457017E+01  0.30134308760E+02  0.31759298381E+02  0.00000000000E+00 0.  1.
<mgrwt>
<rscale>  0 0.79439413E+02</rscale>
<asrwt>0</asrwt>
<pdfrwt beam="1">  1        1 0.22173040E-02 0.79439413E+02</pdfrwt>
<pdfrwt beam="2">  1       -2 0.16840699E-01 0.79439413E+02</pdfrwt>
<totfact> 0.10558772E+05</totfact>
</mgrwt>
</event>
<event>
 8    1  0.1319619E-024  0.8008283E+02  0.7818608E-02  0.1328817E+00
         -2   -1    0    0    0  501 -0.00000000000E+00  0.00000000000E+00  0.29823531117E+02  0.29823531226E+02  0.25500000000E-02 0.  1.
          1   -1    0    0  501    0  0.00000000000E+00 -0.00000000000E+00 -0.53760062776E+02  0.53760063012E+02  0.50400000000E-02 0. -1.
        -24    2    1    2    0    0  0.00000000000E+00  0.00000000000E+00 -0.23936531660E+02  0.83583594238E+02  0.80082830107E+02 0.  0.
         66    2    3    3    0    0  0.11755417646E+02 -0.18193714030E+01  0.27901962502E+02  0.30397688235E+02  0.19999955650E+01 0.  0.
         13    1    3    3    0    0 -0.11755417646E+02  0.18193714030E+01 -0.51838494162E+02  0.53185906003E+02  0.10566000000E+00 0. -1.
         13    1    4    4    0    0  0.13083346767E+01 -0.12402675140E+00  0.26156356049E+01  0.29291356941E+01  0.10566000000E+00 0. -1.
        -13    1    4    4    0    0  0.61636857901E+01 -0.97216325329E+00  0.17061012993E+02  0.18166602662E+02  0.10566000000E+00 0.  1.
        -14    1    4    4    0    0  0.42833971788E+01 -0.72318139829E+00  0.82253139046E+01  0.93019498793E+01  0.00000000000E+00 0.  1.
<mgrwt>
<rscale>  0 0.80082830E+02</rscale>
<asrwt>0</asrwt>
<pdfrwt beam="1">  1        1 0.82707790E-02 0.80082830E+02</pdfrwt>
<pdfrwt beam="2">  1       -2 0.45882356E-02 0.80082830E+02</pdfrwt>
<totfact> 0.13269568E+05</totfact>
</mgrwt>
</event>
<event>
 8    1  0.1319619E-024  0.7916005E+02  0.7818608E-02  0.1331452E+00
          1   -1    0    0  501    0  0.00000000000E+00  0.00000000000E+00  0.27366206439E+03  0.27366206444E+03  0.50400000000E-02 0. -1.
         -2   -1    0    0    0  501 -0.00000000000E+00 -0.00000000000E+00 -0.57244999761E+01  0.57245005440E+01  0.25500000000E-02 0.  1.
        -24    2    1    2    0    0  0.17763568394E-14  0.35527136788E-14  0.26793756441E+03  0.27938656498E+03  0.79160054747E+02 0.  0.
         66    2    3    3    0    0 -0.12021679474E+02 -0.19049629998E+02  0.24880881931E+03  0.24983442066E+03  0.20000004178E+01 0.  0.
         13    1    3    3    0    0  0.12021679474E+02  0.19049629998E+02  0.19128745106E+02  0.29552144318E+02  0.10566000000E+00 0. -1.
         13    1    4    4    0    0 -0.32609809934E+00 -0.59149009431E+00  0.69159758495E+01  0.69496824739E+01  0.10566000000E+00 0.  1.
        -13    1    4    4    0    0 -0.94277461582E+01 -0.13406338987E+02  0.17977732234E+03  0.18052287699E+03  0.10566000000E+00 0.  1.
        -14    1    4    4    0    0 -0.22678352167E+01 -0.50518009169E+01  0.62115521117E+02  0.62361861203E+02  0.00000000000E+00 0.  1.
<mgrwt>
<rscale>  0 0.79160055E+02</rscale>
<asrwt>0</asrwt>
<pdfrwt beam="1">  1        1 0.42101840E-01 0.79160055E+02</pdfrwt>
<pdfrwt beam="2">  1       -2 0.88069270E-03 0.79160055E+02</pdfrwt>
<totfact> 0.18225774E+05</totfact>
</mgrwt>
</event>
<event>
 8    1  0.1319619E-024  0.8776387E+02  0.7818608E-02  0.1308359E+00
          1   -1    0    0  501    0  0.00000000000E+00  0.00000000000E+00  0.75445671041E+02  0.75445671209E+02  0.50400000000E-02 0. -1.
         -2   -1    0    0    0  501 -0.00000000000E+00 -0.00000000000E+00 -0.25523321662E+02  0.25523321790E+02  0.25500000000E-02 0.  1.
        -24    2    1    2    0    0  0.00000000000E+00  0.00000000000E+00  0.49922349378E+02  0.10096899300E+03  0.87763868304E+02 0.  0.
         66    2    3    3    0    0 -0.39687368980E+02 -0.11239587478E+02  0.78247491107E+01  0.42031443885E+02  0.19999983099E+01 0.  0.
         13    1    3    3    0    0  0.39687368980E+02  0.11239587478E+02  0.42097600268E+02  0.58937549114E+02  0.10566000000E+00 0. -1.
         13    1    4    4    0    0 -0.22998154775E+02 -0.59955317172E+01  0.43149289913E+01  0.24155564573E+02  0.10566000000E+00 0. -1.
        -13    1    4    4    0    0 -0.15704331139E+02 -0.46582208713E+01  0.32327644979E+01  0.16696914941E+02  0.10566000000E+00 0.  1.
         14    1    4    4    0    0 -0.98488306526E+00 -0.58583488917E+00  0.27705562148E+00  0.11789643705E+01  0.00000000000E+00 0. -1.
<mgrwt>
<rscale>  0 0.87763868E+02</rscale>
<asrwt>0</asrwt>
<pdfrwt beam="1">  1        1 0.11607026E-01 0.87763868E+02</pdfrwt>
<pdfrwt beam="2">  1       -2 0.39266649E-02 0.87763868E+02</pdfrwt>
<totfact> 0.10881760E+05</totfact>
</mgrwt>
</event>
<event>
 8    1  0.1319619E-024  0.8046771E+02  0.7818608E-02  0.1327729E+00
         -2   -1    0    0    0  501 -0.00000000000E+00  0.00000000000E+00  0.30825393324E+02  0.30825393430E+02  0.25500000000E-02 0.  1.
          1   -1    0    0  501    0  0.00000000000E+00 -0.00000000000E+00 -0.52513950775E+02  0.52513951017E+02  0.50400000000E-02 0. -1.
        -24    2    1    2    0    0 -0.35527136788E-14 -0.17763568394E-14 -0.21688557451E+02  0.83339344447E+02  0.80467712833E+02 0.  0.
         66    2    3    3    0    0 -0.22922162995E+02 -0.89160532477E+01  0.22093594890E+02  0.33121722147E+02  0.19999952257E+01 0.  0.
         13    1    3    3    0    0  0.22922162995E+02  0.89160532477E+01 -0.43782152340E+02  0.50217622300E+02  0.10566000000E+00 0. -1.
         13    1    4    4    0    0 -0.23822162927E+01 -0.13301592578E+01  0.25307118438E+01  0.37228946518E+01  0.10566000000E+00 0. -1.
        -13    1    4    4    0    0 -0.10527858428E+02 -0.36871176682E+01  0.10907830046E+02  0.15602005004E+02  0.10566000000E+00 0.  1.
         14    1    4    4    0    0 -0.10012088275E+02 -0.38987763217E+01  0.86550529995E+01  0.13796822491E+02  0.00000000000E+00 0. -1.
<mgrwt>
<rscale>  0 0.80467713E+02</rscale>
<asrwt>0</asrwt>
<pdfrwt beam="1">  1        1 0.80790694E-02 0.80467713E+02</pdfrwt>
<pdfrwt beam="2">  1       -2 0.47423682E-02 0.80467713E+02</pdfrwt>
<totfact> 0.13046019E+05</totfact>
</mgrwt>
</event>
<event>
 8    1  0.1319619E-024  0.8030827E+02  0.7818608E-02  0.1328179E+00
          1   -1    0    0  501    0  0.00000000000E+00  0.00000000000E+00  0.24635369980E+03  0.24635369985E+03  0.50400000000E-02 0. -1.
         -2   -1    0    0    0  501 -0.00000000000E+00 -0.00000000000E+00 -0.65448760802E+01  0.65448765770E+01  0.25500000000E-02 0.  1.
        -24    2    1    2    0    0  0.00000000000E+00 -0.35527136788E-14  0.23980882372E+03  0.25289857642E+03  0.80308268725E+02 0.  0.
         66    2    3    3    0    0 -0.26267603160E+02 -0.26111726622E+02  0.71341545689E+02  0.80407868928E+02  0.20000003154E+01 0.  0.
         13    1    3    3    0    0  0.26267603160E+02  0.26111726622E+02  0.16846727803E+03  0.17249070750E+03  0.10566000000E+00 0. -1.
         13    1    4    4    0    0 -0.17541691908E+02 -0.16848745997E+02  0.48388145986E+02  0.54157317443E+02  0.10566000000E+00 0. -1.
        -13    1    4    4    0    0 -0.21513736944E+01 -0.23570514648E+01  0.61954692385E+01  0.69698711252E+01  0.10566000000E+00 0.  1.
        -14    1    4    4    0    0 -0.65745375582E+01 -0.69059291602E+01  0.16757930465E+02  0.19280680360E+02  0.00000000000E+00 0.  1.
<mgrwt>
<rscale>  0 0.80308269E+02</rscale>
<asrwt>0</asrwt>
<pdfrwt beam="1">  1        1 0.37900565E-01 0.80308269E+02</pdfrwt>
<pdfrwt beam="2">  1       -2 0.10069042E-02 0.80308269E+02</pdfrwt>
<totfact> 0.17189724E+05</totfact>
</mgrwt>
</event>
<event>
 8    1  0.1319619E-024  0.8005417E+02  0.7818608E-02  0.1328898E+00
         -2   -1    0    0    0  501 -0.00000000000E+00  0.00000000000E+00  0.29758738484E+02  0.29758738594E+02  0.25500000000E-02 0.  1.
          1   -1    0    0  501    0  0.00000000000E+00 -0.00000000000E+00 -0.53838556409E+02  0.53838556645E+02  0.50400000000E-02 0. -1.
        -24    2    1    2    0    0 -0.35527136788E-14 -0.17763568394E-14 -0.24079817925E+02  0.83597295239E+02  0.80054170035E+02 0.  0.
         66    2    3    3    0    0  0.16162358883E+02 -0.87603354466E+01  0.25052424177E+02  0.31138228342E+02  0.19999963322E+01 0.  0.
         13    1    3    3    0    0 -0.16162358883E+02  0.87603354466E+01 -0.49132242101E+02  0.52459066897E+02  0.10566000000E+00 0. -1.
         13    1    4    4    0    0  0.11477066342E+01 -0.35905097747E+00  0.16735797324E+01  0.20635361103E+01  0.10566000000E+00 0. -1.
        -13    1    4    4    0    0  0.10135338835E+02 -0.59255520426E+01  0.17151316154E+02  0.20784996276E+02  0.10566000000E+00 0.  1.
        -14    1    4    4    0    0  0.48793134134E+01 -0.24757324265E+01  0.62275282898E+01  0.82896959554E+01  0.00000000000E+00 0.  1.
<mgrwt>
<rscale>  0 0.80054170E+02</rscale>
<asrwt>0</asrwt>
<pdfrwt beam="1">  1        1 0.82828549E-02 0.80054170E+02</pdfrwt>
<pdfrwt beam="2">  1       -2 0.45782675E-02 0.80054170E+02</pdfrwt>
<totfact> 0.13285779E+05</totfact>
</mgrwt>
</event>
<event>
 8    1  0.1319619E-024  0.7961321E+02  0.7818608E-02  0.1330153E+00
          1   -1    0    0  501    0  0.00000000000E+00  0.00000000000E+00  0.27485667895E+03  0.27485667899E+03  0.50400000000E-02 0. -1.
         -2   -1    0    0    0  501 -0.00000000000E+00 -0.00000000000E+00 -0.57650622764E+01  0.57650628403E+01  0.25500000000E-02 0.  1.
        -24    2    1    2    0    0  0.00000000000E+00  0.22204460493E-15  0.26909161667E+03  0.28062174183E+03  0.79613213899E+02 0.  0.
         66    2    3    3    0    0 -0.37606126426E+02 -0.15037205861E+01  0.89205618677E+02  0.96840716266E+02  0.20000007644E+01 0.  0.
         13    1    3    3    0    0  0.37606126426E+02  0.15037205861E+01  0.17988599799E+03  0.18378102557E+03  0.10566000000E+00 0. -1.
         13    1    4    4    0    0 -0.10327249535E+02 -0.11340908899E+01  0.25225545028E+02  0.27281450311E+02  0.10566000000E+00 0. -1.
        -13    1    4    4    0    0 -0.21068436179E+02 -0.35348816894E-01  0.50063049232E+02  0.54315746474E+02  0.10566000000E+00 0.  1.
         14    1    4    4    0    0 -0.62104407118E+01 -0.33428087936E+00  0.13917024417E+02  0.15243519481E+02  0.00000000000E+00 0. -1.
<mgrwt>
<rscale>  0 0.79613214E+02</rscale>
<asrwt>0</asrwt>
<pdfrwt beam="1">  1        1 0.42285637E-01 0.79613214E+02</pdfrwt>
<pdfrwt beam="2">  1       -2 0.88693283E-03 0.79613214E+02</pdfrwt>
<totfact> 0.17968578E+05</totfact>
</mgrwt>
</event>
<event>
 8    1  0.1319619E-024  0.8175026E+02  0.7818608E-02  0.1324157E+00
         -2   -1    0    0    0  501 -0.00000000000E+00  0.00000000000E+00  0.10047227873E+03  0.10047227877E+03  0.25500000000E-02 0.  1.
          1   -1    0    0  501    0  0.00000000000E+00 -0.00000000000E+00 -0.16629223883E+02  0.16629224647E+02  0.50400000000E-02 0. -1.
        -24    2    1    2    0    0  0.00000000000E+00  0.00000000000E+00  0.83843054850E+02  0.11710150341E+03  0.81750255382E+02 0.  0.
         66    2    3    3    0    0  0.49216468086E+00 -0.40434384852E+02  0.50248384700E+02  0.64529697937E+02  0.20000116192E+01 0.  0.
         13    1    3    3    0    0 -0.49216468086E+00  0.40434384852E+02  0.33594670150E+02  0.52571805476E+02  0.10566000000E+00 0. -1.
         13    1    4    4    0    0 -0.73710741441E+00 -0.13668063344E+02  0.17338909963E+02  0.22090908665E+02  0.10566000000E+00 0. -1.
        -13    1    4    4    0    0  0.54430340099E+00 -0.14212865519E+02  0.17504993299E+02  0.22555215958E+02  0.10566000000E+00 0.  1.
         14    1    4    4    0    0  0.68496869428E+00 -0.12553455989E+02  0.15404481437E+02  0.19883573314E+02  0.00000000000E+00 0. -1.
<mgrwt>
<rscale>  0 0.81750255E+02</rscale>
<asrwt>0</asrwt>
<pdfrwt beam="1">  1        1 0.25583422E-02 0.81750255E+02</pdfrwt>
<pdfrwt beam="2">  1       -2 0.15457274E-01 0.81750255E+02</pdfrwt>
<totfact> 0.10028853E+05</totfact>
</mgrwt>
</event>
<event>
 8    1  0.1319619E-024  0.7928521E+02  0.7818608E-02  0.1331092E+00
         -2   -1    0    0    0  501 -0.00000000000E+00  0.00000000000E+00  0.18375042648E+02  0.18375042825E+02  0.25500000000E-02 0.  1.
          1   -1    0    0  501    0  0.00000000000E+00 -0.00000000000E+00 -0.85525571938E+02  0.85525572086E+02  0.50400000000E-02 0. -1.
        -24    2    1    2    0    0  0.00000000000E+00  0.00000000000E+00 -0.67150529290E+02  0.10390061491E+03  0.79285207921E+02 0.  0.
         66    2    3    3    0    0  0.14259629702E+02 -0.35802644105E+02 -0.21559897729E+02  0.44204021924E+02  0.20000000043E+01 0.  0.
         13    1    3    3    0    0 -0.14259629702E+02  0.35802644105E+02 -0.45590631561E+02  0.59696592987E+02  0.10566000000E+00 0. -1.
         13    1    4    4    0    0  0.38003005450E+01 -0.10768121208E+02 -0.67746448923E+01  0.13277864890E+02  0.10566000000E+00 0. -1.
        -13    1    4    4    0    0  0.35613271308E+01 -0.90736338298E+01 -0.59784193495E+01  0.11435320011E+02  0.10566000000E+00 0.  1.
         14    1    4    4    0    0  0.68980020260E+01 -0.15960889068E+02 -0.88068334874E+01  0.19490837023E+02  0.00000000000E+00 0. -1.
<mgrwt>
<rscale>  0 0.79285208E+02</rscale>
<asrwt>0</asrwt>
<pdfrwt beam="1">  1        1 0.13157780E-01 0.79285208E+02</pdfrwt>
<pdfrwt beam="2">  1       -2 0.28269297E-02 0.79285208E+02</pdfrwt>
<totfact> 0.14676923E+05</totfact>
</mgrwt>
</event>
<event>
 8    1  0.1319619E-024  0.7919471E+02  0.7818608E-02  0.1331352E+00
         -2   -1    0    0    0  501 -0.00000000000E+00  0.00000000000E+00  0.34199391295E+01  0.34199400802E+01  0.25500000000E-02 0.  1.
          1   -1    0    0  501    0  0.00000000000E+00 -0.00000000000E+00 -0.45847316580E+03  0.45847316582E+03  0.50400000000E-02 0. -1.
        -24    2    1    2    0    0 -0.17763568394E-14  0.00000000000E+00 -0.45505322667E+03  0.46189310590E+03  0.79194710568E+02 0.  0.
         66    2    3    3    0    0  0.93770787666E+01 -0.35842703509E+02 -0.30876366738E+03  0.31098493740E+03  0.19999986379E+01 0.  0.
         13    1    3    3    0    0 -0.93770787666E+01  0.35842703509E+02 -0.14628955929E+03  0.15090816850E+03  0.10566000000E+00 0. -1.
         13    1    4    4    0    0  0.18899761652E+01 -0.91141100857E+01 -0.77358198260E+02  0.77916243586E+02  0.10566000000E+00 0. -1.
        -13    1    4    4    0    0  0.28889592620E+01 -0.84869535120E+01 -0.78468278308E+02  0.78978834697E+02  0.10566000000E+00 0.  1.
        -14    1    4    4    0    0  0.45981433394E+01 -0.18241639911E+02 -0.15293719081E+03  0.15408985912E+03  0.00000000000E+00 0.  1.
<mgrwt>
<rscale>  0 0.79194711E+02</rscale>
<asrwt>0</asrwt>
<pdfrwt beam="1">  1        1 0.70534285E-01 0.79194711E+02</pdfrwt>
<pdfrwt beam="2">  1       -2 0.52614492E-03 0.79194711E+02</pdfrwt>
<totfact> 0.19912075E+05</totfact>
</mgrwt>
</event>
<event>
 8    1  0.1319619E-024  0.7978350E+02  0.7818608E-02  0.1329667E+00
         -2   -1    0    0    0  501 -0.00000000000E+00  0.00000000000E+00  0.31495313293E+03  0.31495313294E+03  0.25500000000E-02 0.  1.
          1   -1    0    0  501    0  0.00000000000E+00 -0.00000000000E+00 -0.50526603850E+01  0.50526628987E+01  0.50400000000E-02 0. -1.
        -24    2    1    2    0    0  0.00000000000E+00  0.00000000000E+00  0.30990047254E+03  0.32000579584E+03  0.79783497585E+02 0.  0.
         66    2    3    3    0    0 -0.21317068495E+02  0.26149207959E+02  0.24024042623E+03  0.24260597864E+03  0.19999973946E+01 0.  0.
         13    1    3    3    0    0  0.21317068495E+02 -0.26149207959E+02  0.69660046314E+02  0.77399817200E+02  0.10566000000E+00 0. -1.
         13    1    4    4    0    0 -0.10167247770E+02  0.12740946160E+02  0.11937978529E+03  0.12048754681E+03  0.10566000000E+00 0. -1.
        -13    1    4    4    0    0 -0.37683707932E+01  0.53417603237E+01  0.43268639616E+02  0.43759814443E+02  0.10566000000E+00 0.  1.
        -14    1    4    4    0    0 -0.73814499319E+01  0.80665014753E+01  0.77592001320E+02  0.78358617382E+02  0.00000000000E+00 0.  1.
<mgrwt>
<rscale>  0 0.79783498E+02</rscale>
<asrwt>0</asrwt>
<pdfrwt beam="1">  1        1 0.77733271E-03 0.79783498E+02</pdfrwt>
<pdfrwt beam="2">  1       -2 0.48454319E-01 0.79783498E+02</pdfrwt>
<totfact> 0.68884274E+04</totfact>
</mgrwt>
</event>
<event>
 8    1  0.1319619E-024  0.8037669E+02  0.7818608E-02  0.1327986E+00
          1   -1    0    0  501    0  0.00000000000E+00  0.00000000000E+00  0.34860691542E+02  0.34860691907E+02  0.50400000000E-02 0. -1.
         -2   -1    0    0    0  501 -0.00000000000E+00 -0.00000000000E+00 -0.46330205056E+02  0.46330205126E+02  0.25500000000E-02 0.  1.
        -24    2    1    2    0    0 -0.35527136788E-14  0.00000000000E+00 -0.11469513513E+02  0.81190897032E+02  0.80376688291E+02 0.  0.
         66    2    3    3    0    0 -0.21264172458E+02  0.11351275108E+02 -0.38189757628E+02  0.45204801294E+02  0.19999988616E+01 0.  0.
         13    1    3    3    0    0  0.21264172458E+02 -0.11351275108E+02  0.26720244115E+02  0.35986095738E+02  0.10566000000E+00 0. -1.
         13    1    4    4    0    0 -0.38564312180E+01  0.22349780765E+01 -0.68290485824E+01  0.81556273405E+01  0.10566000000E+00 0.  1.
        -13    1    4    4    0    0 -0.43834300037E+01  0.28860824812E+01 -0.94319547667E+01  0.10794297821E+02  0.10566000000E+00 0. -1.
         14    1    4    4    0    0 -0.13024311236E+02  0.62302145505E+01 -0.21928754279E+02  0.26254876133E+02  0.00000000000E+00 0. -1.
<mgrwt>
<rscale>  0 0.80376688E+02</rscale>
<asrwt>0</asrwt>
<pdfrwt beam="1">  1        1 0.53631834E-02 0.80376688E+02</pdfrwt>
<pdfrwt beam="2">  1       -2 0.71277238E-02 0.80376688E+02</pdfrwt>
<totfact> 0.12247427E+05</totfact>
</mgrwt>
</event>
<event>
 8    1  0.1319619E-024  0.7899606E+02  0.7818608E-02  0.1331925E+00
          1   -1    0    0  501    0  0.00000000000E+00  0.00000000000E+00  0.92817882106E+01  0.92817895789E+01  0.50400000000E-02 0. -1.
         -2   -1    0    0    0  501 -0.00000000000E+00 -0.00000000000E+00 -0.16808123544E+03  0.16808123546E+03  0.25500000000E-02 0.  1.
        -24    2    1    2    0    0  0.00000000000E+00  0.00000000000E+00 -0.15879944723E+03  0.17736302504E+03  0.78996064525E+02 0.  0.
         66    2    3    3    0    0  0.82276466856E+01 -0.23913582916E+02 -0.14749696453E+03  0.14966264784E+03  0.19999988620E+01 0.  0.
         13    1    3    3    0    0 -0.82276466856E+01  0.23913582916E+02 -0.11302482706E+02  0.27700377204E+02  0.10566000000E+00 0. -1.
         13    1    4    4    0    0  0.24304401659E+01 -0.73533077787E+01 -0.41585622913E+02  0.42300749069E+02  0.10566000000E+00 0. -1.
        -13    1    4    4    0    0  0.19910055719E+01 -0.59945982543E+01 -0.34683183623E+02  0.35253846623E+02  0.10566000000E+00 0.  1.
        -14    1    4    4    0    0  0.38062009478E+01 -0.10565676883E+02 -0.71228157990E+02  0.72108052146E+02  0.00000000000E+00 0.  1.
<mgrwt>
<rscale>  0 0.78996065E+02</rscale>
<asrwt>0</asrwt>
<pdfrwt beam="1">  1        1 0.14279677E-02 0.78996065E+02</pdfrwt>
<pdfrwt beam="2">  1       -2 0.25858649E-01 0.78996065E+02</pdfrwt>
<totfact> 0.93904036E+04</totfact>
</mgrwt>
</event>
<event>
 8    1  0.1319619E-024  0.8186197E+02  0.7818608E-02  0.1323849E+00
          1   -1    0    0  501    0  0.00000000000E+00  0.00000000000E+00  0.59153238763E+02  0.59153238978E+02  0.50400000000E-02 0. -1.
         -2   -1    0    0    0  501 -0.00000000000E+00 -0.00000000000E+00 -0.28322129549E+02  0.28322129664E+02  0.25500000000E-02 0.  1.
        -24    2    1    2    0    0 -0.35527136788E-14 -0.35527136788E-14  0.30831109214E+02  0.87475368642E+02  0.81861974223E+02 0.  0.
         66    2    3    3    0    0  0.23124020867E+02  0.10900608690E+02  0.49548770849E+02  0.55790898755E+02  0.20000201035E+01 0.  0.
         13    1    3    3    0    0 -0.23124020867E+02 -0.10900608690E+02 -0.18717661635E+02  0.31684469886E+02  0.10566000000E+00 0. -1.
         13    1    4    4    0    0  0.71363507394E+00  0.34110415345E+00  0.11095989968E+01  0.13667483425E+01  0.10566000000E+00 0. -1.
        -13    1    4    4    0    0  0.27549787327E+01  0.17331758997E+01  0.58711007923E+01  0.67137765129E+01  0.10566000000E+00 0. -1.
        -14    1    4    4    0    0  0.19655407061E+02  0.88263286366E+01  0.42568071060E+02  0.47710373900E+02  0.00000000000E+00 0.  1.
<mgrwt>
<rscale>  0 0.81861974E+02</rscale>
<asrwt>0</asrwt>
<pdfrwt beam="1">  1        1 0.91004983E-02 0.81861974E+02</pdfrwt>
<pdfrwt beam="2">  1       -2 0.43572507E-02 0.81861974E+02</pdfrwt>
<totfact> 0.12676191E+05</totfact>
</mgrwt>
</event>
<event>
 8    1  0.1319619E-024  0.7956568E+02  0.7818608E-02  0.1330288E+00
         -2   -1    0    0    0  501 -0.00000000000E+00  0.00000000000E+00  0.96945948798E+02  0.96945948832E+02  0.25500000000E-02 0.  1.
          1   -1    0    0  501    0  0.00000000000E+00 -0.00000000000E+00 -0.16325328049E+02  0.16325328827E+02  0.50400000000E-02 0. -1.
        -24    2    1    2    0    0  0.00000000000E+00  0.00000000000E+00  0.80620620749E+02  0.11327127766E+03  0.79565682632E+02 0.  0.
         66    2    3    3    0    0  0.53504483414E+01  0.16107031231E+02  0.91518863522E+02  0.93100838593E+02  0.20000034582E+01 0.  0.
         13    1    3    3    0    0 -0.53504483414E+01 -0.16107031231E+02 -0.10898242773E+02  0.20170439066E+02  0.10566000000E+00 0. -1.
         13    1    4    4    0    0  0.69073428878E+00  0.42819917816E+01  0.23199418143E+02  0.23601625658E+02  0.10566000000E+00 0.  1.
        -13    1    4    4    0    0  0.14592442250E+01  0.28276542908E+01  0.15537557581E+02  0.15860387200E+02  0.10566000000E+00 0. -1.
        -14    1    4    4    0    0  0.32004698276E+01  0.89973851586E+01  0.52781887798E+02  0.53638825736E+02  0.00000000000E+00 0.  1.
<mgrwt>
<rscale>  0 0.79565683E+02</rscale>
<asrwt>0</asrwt>
<pdfrwt beam="1">  1        1 0.25115890E-02 0.79565683E+02</pdfrwt>
<pdfrwt beam="2">  1       -2 0.14914761E-01 0.79565683E+02</pdfrwt>
<totfact> 0.10843971E+05</totfact>
</mgrwt>
</event>
<event>
 8    1  0.1319619E-024  0.8165537E+02  0.7818608E-02  0.1324418E+00
          1   -1    0    0  501    0  0.00000000000E+00  0.00000000000E+00  0.55725195881E+02  0.55725196109E+02  0.50400000000E-02 0. -1.
         -2   -1    0    0    0  501 -0.00000000000E+00 -0.00000000000E+00 -0.29912854296E+02  0.29912854405E+02  0.25500000000E-02 0.  1.
        -24    2    1    2    0    0  0.35527136788E-14  0.11102230246E-15  0.25812341585E+02  0.85638050513E+02  0.81655365517E+02 0.  0.
         66    2    3    3    0    0  0.18390160910E+02 -0.90837271126E+00 -0.25274623020E+02  0.31334162293E+02  0.19999996370E+01 0.  0.
         13    1    3    3    0    0 -0.18390160910E+02  0.90837271126E+00  0.51086964604E+02  0.54303888220E+02  0.10566000000E+00 0. -1.
         13    1    4    4    0    0  0.66843043787E+01  0.48817607200E+00 -0.89456185814E+01  0.11178260005E+02  0.10566000000E+00 0. -1.
        -13    1    4    4    0    0  0.57579500769E+01 -0.82097966497E+00 -0.74209380279E+01  0.94291824645E+01  0.10566000000E+00 0.  1.
         14    1    4    4    0    0  0.59479064547E+01 -0.57556911830E+00 -0.89080664104E+01  0.10726719824E+02  0.00000000000E+00 0. -1.
<mgrwt>
<rscale>  0 0.81655366E+02</rscale>
<asrwt>0</asrwt>
<pdfrwt beam="1">  1        1 0.85731071E-02 0.81655366E+02</pdfrwt>
<pdfrwt beam="2">  1       -2 0.46019776E-02 0.81655366E+02</pdfrwt>
<totfact> 0.12644331E+05</totfact>
</mgrwt>
</event>
<event>
 8    1  0.1319619E-024  0.8090459E+02  0.7818608E-02  0.1326504E+00
          1   -1    0    0  501    0  0.00000000000E+00  0.00000000000E+00  0.35299915668E+02  0.35299916027E+02  0.50400000000E-02 0. -1.
         -2   -1    0    0    0  501 -0.00000000000E+00 -0.00000000000E+00 -0.46356717268E+02  0.46356717338E+02  0.25500000000E-02 0.  1.
        -24    2    1    2    0    0  0.00000000000E+00 -0.88817841970E-15 -0.11056801601E+02  0.81656633366E+02  0.80904591409E+02 0.  0.
         66    2    3    3    0    0  0.35023912371E+02  0.79042937864E+01 -0.24284873587E+02  0.43392481075E+02  0.20000076750E+01 0.  0.
         13    1    3    3    0    0 -0.35023912371E+02 -0.79042937864E+01  0.13228071986E+02  0.38264152291E+02  0.10566000000E+00 0. -1.
         13    1    4    4    0    0  0.14739980065E+02  0.40105157812E+01 -0.94694323939E+01  0.17973106661E+02  0.10566000000E+00 0. -1.
        -13    1    4    4    0    0  0.10277520564E+02  0.19926300668E+01 -0.76055971332E+01  0.12940412486E+02  0.10566000000E+00 0.  1.
         14    1    4    4    0    0  0.10006411742E+02  0.19011479383E+01 -0.72098440596E+01  0.12478961928E+02  0.00000000000E+00 0. -1.
<mgrwt>
<rscale>  0 0.80904591E+02</rscale>
<asrwt>0</asrwt>
<pdfrwt beam="1">  1        1 0.54307563E-02 0.80904591E+02</pdfrwt>
<pdfrwt beam="2">  1       -2 0.71318027E-02 0.80904591E+02</pdfrwt>
<totfact> 0.12046871E+05</totfact>
</mgrwt>
</event>
<event>
 8    1  0.1319619E-024  0.8029579E+02  0.7818608E-02  0.1328214E+00
          1   -1    0    0  501    0  0.00000000000E+00  0.00000000000E+00  0.37037052253E+02  0.37037052596E+02  0.50400000000E-02 0. -1.
         -2   -1    0    0    0  501 -0.00000000000E+00 -0.00000000000E+00 -0.43520026214E+02  0.43520026289E+02  0.25500000000E-02 0.  1.
        -24    2    1    2    0    0  0.00000000000E+00  0.35527136788E-14 -0.64829739607E+01  0.80557078885E+02  0.80295790719E+02 0.  0.
         66    2    3    3    0    0  0.26650406082E+02 -0.29951121667E+02 -0.16462354817E+01  0.40174916528E+02  0.19999983262E+01 0.  0.
         13    1    3    3    0    0 -0.26650406082E+02  0.29951121667E+02 -0.48367384790E+01  0.40382162357E+02  0.10566000000E+00 0. -1.
         13    1    4    4    0    0  0.65913430221E+01 -0.85674807336E+01 -0.91870512786E-01  0.10810510311E+02  0.10566000000E+00 0. -1.
        -13    1    4    4    0    0  0.45928000126E+01 -0.51201830073E+01 -0.45732804422E+00  0.68942293956E+01  0.10566000000E+00 0.  1.
         14    1    4    4    0    0  0.15466263048E+02 -0.16263457926E+02 -0.10970369247E+01  0.22470176822E+02  0.00000000000E+00 0. -1.
<mgrwt>
<rscale>  0 0.80295791E+02</rscale>
<asrwt>0</asrwt>
<pdfrwt beam="1">  1        1 0.56980081E-02 0.80295791E+02</pdfrwt>
<pdfrwt beam="2">  1       -2 0.66953886E-02 0.80295791E+02</pdfrwt>
<totfact> 0.12407893E+05</totfact>
</mgrwt>
</event>
<event>
 8    1  0.1319619E-024  0.7904294E+02  0.7818608E-02  0.1331790E+00
          1   -1    0    0  501    0  0.00000000000E+00  0.00000000000E+00  0.14295228325E+03  0.14295228334E+03  0.50400000000E-02 0. -1.
         -2   -1    0    0    0  501 -0.00000000000E+00 -0.00000000000E+00 -0.10926348350E+02  0.10926348647E+02  0.25500000000E-02 0.  1.
        -24    2    1    2    0    0  0.00000000000E+00  0.00000000000E+00  0.13202593490E+03  0.15387863199E+03  0.79042937038E+02 0.  0.
         66    2    3    3    0    0 -0.21540673483E+02 -0.51649383828E+01  0.23964096128E+01  0.22370068794E+02  0.19999990504E+01 0.  0.
         13    1    3    3    0    0  0.21540673483E+02  0.51649383828E+01  0.12962952529E+03  0.13150856319E+03  0.10566000000E+00 0. -1.
         13    1    4    4    0    0 -0.36193948313E+01 -0.10270388796E+01  0.33731191585E+00  0.37788584479E+01  0.10566000000E+00 0. -1.
        -13    1    4    4    0    0 -0.62366104356E+01 -0.19822616288E+01  0.78222435784E-01  0.65453765113E+01  0.10566000000E+00 0.  1.
         14    1    4    4    0    0 -0.11684668216E+02 -0.21556378744E+01  0.19808752612E+01  0.12045833834E+02  0.00000000000E+00 0. -1.
<mgrwt>
<rscale>  0 0.79042937E+02</rscale>
<asrwt>0</asrwt>
<pdfrwt beam="1">  1        1 0.21992659E-01 0.79042937E+02</pdfrwt>
<pdfrwt beam="2">  1       -2 0.16809767E-02 0.79042937E+02</pdfrwt>
<totfact> 0.16161249E+05</totfact>
</mgrwt>
</event>
<event>
 8    1  0.1319619E-024  0.7846314E+02  0.7818608E-02  0.1333470E+00
          1   -1    0    0  501    0  0.00000000000E+00  0.00000000000E+00  0.24994229414E+03  0.24994229419E+03  0.50400000000E-02 0. -1.
         -2   -1    0    0    0  501 -0.00000000000E+00 -0.00000000000E+00 -0.61578846647E+01  0.61578851927E+01  0.25500000000E-02 0.  1.
        -24    2    1    2    0    0  0.00000000000E+00 -0.35527136788E-14  0.24378440947E+03  0.25610017938E+03  0.78463135146E+02 0.  0.
         66    2    3    3    0    0  0.19863135495E+02  0.27673734669E+02  0.18532313528E+03  0.18843843623E+03  0.20000090049E+01 0.  0.
         13    1    3    3    0    0 -0.19863135495E+02 -0.27673734669E+02  0.58461274196E+02  0.67661743156E+02  0.10566000000E+00 0. -1.
         13    1    4    4    0    0  0.93092504511E+00  0.19133894145E+01  0.11798617853E+02  0.11989421494E+02  0.10566000000E+00 0. -1.
        -13    1    4    4    0    0  0.59540832252E+01  0.74345946559E+01  0.49613078495E+02  0.50519234224E+02  0.10566000000E+00 0.  1.
         14    1    4    4    0    0  0.12978127225E+02  0.18325750598E+02  0.12391143893E+03  0.12592978051E+03  0.00000000000E+00 0. -1.
<mgrwt>
<rscale>  0 0.78463135E+02</rscale>
<asrwt>0</asrwt>
<pdfrwt beam="1">  1        1 0.38452665E-01 0.78463135E+02</pdfrwt>
<pdfrwt beam="2">  1       -2 0.94736681E-03 0.78463135E+02</pdfrwt>
<totfact> 0.18330012E+05</totfact>
</mgrwt>
</event>
<event>
 8    1  0.1319619E-024  0.8405531E+02  0.7818608E-02  0.1317922E+00
         -2   -1    0    0    0  501 -0.00000000000E+00  0.00000000000E+00  0.57982016350E+02  0.57982016406E+02  0.25500000000E-02 0.  1.
          1   -1    0    0  501    0  0.00000000000E+00 -0.00000000000E+00 -0.30463301741E+02  0.30463302158E+02  0.50400000000E-02 0. -1.
        -24    2    1    2    0    0  0.00000000000E+00  0.35527136788E-14  0.27518714609E+02  0.88445318564E+02  0.84055307519E+02 0.  0.
         66    2    3    3    0    0  0.36062260852E+02  0.20265416894E+02  0.60963290714E+01  0.41860948376E+02  0.19999977792E+01 0.  0.
         13    1    3    3    0    0 -0.36062260852E+02 -0.20265416894E+02  0.21422385538E+02  0.46584370188E+02  0.10566000000E+00 0. -1.
         13    1    4    4    0    0  0.85016029719E+01  0.47430174073E+01  0.10833655926E+01  0.97958313716E+01  0.10566000000E+00 0. -1.
        -13    1    4    4    0    0  0.26560274112E+02  0.14883122616E+02  0.51179256612E+01  0.30873286621E+02  0.10566000000E+00 0.  1.
        -14    1    4    4    0    0  0.10003837685E+01  0.63927687117E+00 -0.10496218240E+00  0.11918303831E+01  0.00000000000E+00 0.  1.
<mgrwt>
<rscale>  0 0.84055308E+02</rscale>
<asrwt>0</asrwt>
<pdfrwt beam="1">  1        1 0.46866618E-02 0.84055308E+02</pdfrwt>
<pdfrwt beam="2">  1       -2 0.89203103E-02 0.84055308E+02</pdfrwt>
<totfact> 0.10514469E+05</totfact>
</mgrwt>
</event>
<event>
 8    1  0.1319619E-024  0.7930151E+02  0.7818608E-02  0.1331045E+00
         -2   -1    0    0    0  501 -0.00000000000E+00  0.00000000000E+00  0.12945558137E+02  0.12945558388E+02  0.25500000000E-02 0.  1.
          1   -1    0    0  501    0  0.00000000000E+00 -0.00000000000E+00 -0.12144568686E+03  0.12144568696E+03  0.50400000000E-02 0. -1.
        -24    2    1    2    0    0  0.00000000000E+00  0.00000000000E+00 -0.10850012872E+03  0.13439124535E+03  0.79301506254E+02 0.  0.
         66    2    3    3    0    0 -0.27686539895E+02 -0.18552963241E+02 -0.17960392455E+02  0.37912170191E+02  0.20000037731E+01 0.  0.
         13    1    3    3    0    0  0.27686539895E+02  0.18552963241E+02 -0.90539736266E+02  0.96479075159E+02  0.10566000000E+00 0. -1.
         13    1    4    4    0    0 -0.16814713306E+02 -0.11628905594E+02 -0.11663449390E+02  0.23537485945E+02  0.10566000000E+00 0. -1.
        -13    1    4    4    0    0 -0.53100101488E+01 -0.28647597422E+01 -0.28136459983E+01  0.66581396801E+01  0.10566000000E+00 0.  1.
         14    1    4    4    0    0 -0.55618164400E+01 -0.40592979041E+01 -0.34832970665E+01  0.77165445661E+01  0.00000000000E+00 0. -1.
<mgrwt>
<rscale>  0 0.79301506E+02</rscale>
<asrwt>0</asrwt>
<pdfrwt beam="1">  1        1 0.18683951E-01 0.79301506E+02</pdfrwt>
<pdfrwt beam="2">  1       -2 0.19916244E-02 0.79301506E+02</pdfrwt>
<totfact> 0.15560469E+05</totfact>
</mgrwt>
</event>
<event>
 8    1  0.1319619E-024  0.8082732E+02  0.7818608E-02  0.1326720E+00
         -2   -1    0    0    0  501 -0.00000000000E+00  0.00000000000E+00  0.60622081300E+01  0.60622086663E+01  0.25500000000E-02 0.  1.
          1   -1    0    0  501    0  0.00000000000E+00 -0.00000000000E+00 -0.26941733341E+03  0.26941733345E+03  0.50400000000E-02 0. -1.
        -24    2    1    2    0    0  0.00000000000E+00  0.00000000000E+00 -0.26335512528E+03  0.27547954212E+03  0.80827322838E+02 0.  0.
         66    2    3    3    0    0 -0.39118958948E+02 -0.17373915882E+01 -0.16548886612E+03  0.17007020988E+03  0.19999997633E+01 0.  0.
         13    1    3    3    0    0  0.39118958948E+02  0.17373915882E+01 -0.97866259153E+02  0.10540933224E+03  0.10566000000E+00 0. -1.
         13    1    4    4    0    0 -0.34662422546E+01 -0.77280971894E-01 -0.14882806165E+02  0.15281684825E+02  0.10566000000E+00 0. -1.
        -13    1    4    4    0    0 -0.18937655574E+02 -0.13814415655E+01 -0.83437285187E+02  0.85570642763E+02  0.10566000000E+00 0.  1.
         14    1    4    4    0    0 -0.16715061119E+02 -0.27866905080E+00 -0.67168774771E+02  0.69217882291E+02  0.00000000000E+00 0. -1.
<mgrwt>
<rscale>  0 0.80827323E+02</rscale>
<asrwt>0</asrwt>
<pdfrwt beam="1">  1        1 0.41448811E-01 0.80827323E+02</pdfrwt>
<pdfrwt beam="2">  1       -2 0.93264766E-03 0.80827323E+02</pdfrwt>
<totfact> 0.17197453E+05</totfact>
</mgrwt>
</event>
<event>
 8    1  0.1319619E-024  0.7796827E+02  0.7818608E-02  0.1334918E+00
         -2   -1    0    0    0  501 -0.00000000000E+00  0.00000000000E+00  0.70769362738E+02  0.70769362784E+02  0.25500000000E-02 0.  1.
          1   -1    0    0  501    0  0.00000000000E+00 -0.00000000000E+00 -0.21474866388E+02  0.21474866980E+02  0.50400000000E-02 0. -1.
        -24    2    1    2    0    0  0.00000000000E+00  0.00000000000E+00  0.49294496350E+02  0.92244229763E+02  0.77968266328E+02 0.  0.
         66    2    3    3    0    0  0.94898436095E+01 -0.37748201929E+02  0.26633852829E+02  0.47205359779E+02  0.19999986879E+01 0.  0.
         13    1    3    3    0    0 -0.94898436095E+01  0.37748201929E+02  0.22660643521E+02  0.45038869984E+02  0.10566000000E+00 0. -1.
         13    1    4    4    0    0  0.54144827561E+01 -0.20043834105E+02  0.13206316068E+02  0.24606703503E+02  0.10566000000E+00 0. -1.
        -13    1    4    4    0    0  0.11704237801E+01 -0.50632840404E+01  0.35322618269E+01  0.62844868325E+01  0.10566000000E+00 0.  1.
         14    1    4    4    0    0  0.29049370734E+01 -0.12641083783E+02  0.98952749334E+01  0.16314169443E+02  0.00000000000E+00 0. -1.
<mgrwt>
<rscale>  0 0.77968266E+02</rscale>
<asrwt>0</asrwt>
<pdfrwt beam="1">  1        1 0.33038257E-02 0.77968266E+02</pdfrwt>
<pdfrwt beam="2">  1       -2 0.10887594E-01 0.77968266E+02</pdfrwt>
<totfact> 0.12240077E+05</totfact>
</mgrwt>
</event>
<event>
 8    1  0.1319619E-024  0.8064991E+02  0.7818608E-02  0.1327217E+00
          1   -1    0    0  501    0  0.00000000000E+00  0.00000000000E+00  0.54196477574E+03  0.54196477577E+03  0.50400000000E-02 0. -1.
         -2   -1    0    0    0  501 -0.00000000000E+00 -0.00000000000E+00 -0.30003823513E+01  0.30003834349E+01  0.25500000000E-02 0.  1.
        -24    2    1    2    0    0  0.00000000000E+00  0.00000000000E+00  0.53896439339E+03  0.54496515920E+03  0.80649906381E+02 0.  0.
         66    2    3    3    0    0 -0.59891566882E+01 -0.36326591560E+02  0.38039202306E+03  0.38217480614E+03  0.19999976803E+01 0.  0.
         13    1    3    3    0    0  0.59891566882E+01  0.36326591560E+02  0.15857237034E+03  0.16279035306E+03  0.10566000000E+00 0. -1.
         13    1    4    4    0    0 -0.12989845482E+01 -0.69675990096E+01  0.80850527470E+02  0.81160666293E+02  0.10566000000E+00 0. -1.
        -13    1    4    4    0    0 -0.10694365575E+01 -0.85538270291E+01  0.86875809848E+02  0.87302515153E+02  0.10566000000E+00 0.  1.
         14    1    4    4    0    0 -0.36207355825E+01 -0.20805165521E+02  0.21266568574E+03  0.21371162469E+03  0.00000000000E+00 0. -1.
<mgrwt>
<rscale>  0 0.80649906E+02</rscale>
<asrwt>0</asrwt>
<pdfrwt beam="1">  1        1 0.83379294E-01 0.80649906E+02</pdfrwt>
<pdfrwt beam="2">  1       -2 0.46159683E-03 0.80649906E+02</pdfrwt>
<totfact> 0.19363222E+05</totfact>
</mgrwt>
</event>
<event>
 8    1  0.1319619E-024  0.8060247E+02  0.7818608E-02  0.1327350E+00
         -2   -1    0    0    0  501 -0.00000000000E+00  0.00000000000E+00  0.19910103094E+03  0.19910103096E+03  0.25500000000E-02 0.  1.
          1   -1    0    0  501    0  0.00000000000E+00 -0.00000000000E+00 -0.81576136318E+01  0.81576151887E+01  0.50400000000E-02 0. -1.
        -24    2    1    2    0    0  0.00000000000E+00  0.00000000000E+00  0.19094341731E+03  0.20725864615E+03  0.80602467634E+02 0.  0.
         66    2    3    3    0    0 -0.38529265078E+02  0.10982574527E+02  0.84908592833E+02  0.93907349831E+02  0.20000011569E+01 0.  0.
         13    1    3    3    0    0  0.38529265078E+02 -0.10982574527E+02  0.10603482448E+03  0.11335129632E+03  0.10566000000E+00 0. -1.
         13    1    4    4    0    0 -0.23946574769E+02  0.67484855749E+01  0.51607395534E+02  0.57291490979E+02  0.10566000000E+00 0. -1.
        -13    1    4    4    0    0 -0.19916126968E+01  0.72895542877E+00  0.39023136728E+01  0.44426470924E+01  0.10566000000E+00 0.  1.
        -14    1    4    4    0    0 -0.12591077612E+02  0.35051335233E+01  0.29398883626E+02  0.32173211760E+02  0.00000000000E+00 0.  1.
<mgrwt>
<rscale>  0 0.80602468E+02</rscale>
<asrwt>0</asrwt>
<pdfrwt beam="1">  1        1 0.12550176E-02 0.80602468E+02</pdfrwt>
<pdfrwt beam="2">  1       -2 0.30630929E-01 0.80602468E+02</pdfrwt>
<totfact> 0.83597506E+04</totfact>
</mgrwt>
</event>
<event>
 8    1  0.1319619E-024  0.7895552E+02  0.7818608E-02  0.1332042E+00
         -2   -1    0    0    0  501 -0.00000000000E+00  0.00000000000E+00  0.67411140423E+02  0.67411140471E+02  0.25500000000E-02 0.  1.
          1   -1    0    0  501    0  0.00000000000E+00 -0.00000000000E+00 -0.23119225396E+02  0.23119225946E+02  0.50400000000E-02 0. -1.
        -24    2    1    2    0    0  0.17763568394E-14 -0.35527136788E-14  0.44291915027E+02  0.90530366417E+02  0.78955516000E+02 0.  0.
         66    2    3    3    0    0  0.98926015315E+01 -0.28347492033E+02  0.51506013629E+02  0.59651599403E+02  0.20000004360E+01 0.  0.
         13    1    3    3    0    0 -0.98926015315E+01  0.28347492033E+02 -0.72140986022E+01  0.30878767014E+02  0.10566000000E+00 0. -1.
         13    1    4    4    0    0  0.10904519463E+01 -0.41705079218E+01  0.83570249449E+01  0.94038955618E+01  0.10566000000E+00 0. -1.
        -13    1    4    4    0    0  0.40397044856E+00 -0.70289459039E+00  0.13700369665E+01  0.15954366969E+01  0.10566000000E+00 0.  1.
        -14    1    4    4    0    0  0.83981791366E+01 -0.23474089521E+02  0.41778951718E+02  0.48652267144E+02  0.00000000000E+00 0.  1.
<mgrwt>
<rscale>  0 0.78955516E+02</rscale>
<asrwt>0</asrwt>
<pdfrwt beam="1">  1        1 0.35568039E-02 0.78955516E+02</pdfrwt>
<pdfrwt beam="2">  1       -2 0.10370945E-01 0.78955516E+02</pdfrwt>
<totfact> 0.11970170E+05</totfact>
</mgrwt>
</event>
<event>
 8    1  0.1319619E-024  0.7415264E+02  0.7818608E-02  0.1346515E+00
          1   -1    0    0  501    0  0.00000000000E+00  0.00000000000E+00  0.41533837735E+02  0.41533838041E+02  0.50400000000E-02 0. -1.
         -2   -1    0    0    0  501 -0.00000000000E+00 -0.00000000000E+00 -0.33097194621E+02  0.33097194719E+02  0.25500000000E-02 0.  1.
        -24    2    1    2    0    0  0.44408920985E-15 -0.17763568394E-14  0.84366431144E+01  0.74631032761E+02  0.74152640572E+02 0.  0.
         66    2    3    3    0    0  0.28511666477E+01 -0.14215033898E+02 -0.30093334142E+02  0.33463489096E+02  0.20000006876E+01 0.  0.
         13    1    3    3    0    0 -0.28511666477E+01  0.14215033898E+02  0.38529977256E+02  0.41167543664E+02  0.10566000000E+00 0. -1.
         13    1    4    4    0    0  0.85621535955E+00 -0.31708420520E+01 -0.53389009309E+01  0.62691603302E+01  0.10566000000E+00 0. -1.
        -13    1    4    4    0    0  0.11785969474E+01 -0.60945924421E+01 -0.12642481171E+02  0.14084624311E+02  0.10566000000E+00 0.  1.
        -14    1    4    4    0    0  0.81635434074E+00 -0.49495994035E+01 -0.12111952040E+02  0.13109704455E+02  0.00000000000E+00 0.  1.
<mgrwt>
<rscale>  0 0.74152641E+02</rscale>
<asrwt>0</asrwt>
<pdfrwt beam="1">  1        1 0.63898212E-02 0.74152641E+02</pdfrwt>
<pdfrwt beam="2">  1       -2 0.50918761E-02 0.74152641E+02</pdfrwt>
<totfact> 0.15787933E+05</totfact>
</mgrwt>
</event>
<event>
 8    1  0.1319619E-024  0.7774384E+02  0.7818608E-02  0.1335579E+00
          1   -1    0    0  501    0  0.00000000000E+00  0.00000000000E+00  0.37948083806E+02  0.37948084141E+02  0.50400000000E-02 0. -1.
         -2   -1    0    0    0  501 -0.00000000000E+00 -0.00000000000E+00 -0.39818250214E+02  0.39818250295E+02  0.25500000000E-02 0.  1.
        -24    2    1    2    0    0 -0.69388939039E-16  0.00000000000E+00 -0.18701664073E+01  0.77766334436E+02  0.77743843803E+02 0.  0.
         66    2    3    3    0    0  0.27955931644E-01  0.22246274799E+02 -0.32790224376E+02  0.39674882997E+02  0.20000005486E+01 0.  0.
         13    1    3    3    0    0 -0.27955931644E-01 -0.22246274799E+02  0.30920057969E+02  0.38091451440E+02  0.10566000000E+00 0. -1.
         13    1    4    4    0    0  0.54417132023E+00  0.11433928180E+02 -0.17502260353E+02  0.20913419556E+02  0.10566000000E+00 0. -1.
        -13    1    4    4    0    0  0.13237334944E-01  0.28424845652E+01 -0.47805570037E+01  0.55628035226E+01  0.10566000000E+00 0.  1.
         14    1    4    4    0    0 -0.52945272353E+00  0.79698620539E+01 -0.10507407020E+02  0.13198659918E+02  0.00000000000E+00 0. -1.
<mgrwt>
<rscale>  0 0.77743844E+02</rscale>
<asrwt>0</asrwt>
<pdfrwt beam="1">  1        1 0.58381668E-02 0.77743844E+02</pdfrwt>
<pdfrwt beam="2">  1       -2 0.61258846E-02 0.77743844E+02</pdfrwt>
<totfact> 0.13646069E+05</totfact>
</mgrwt>
</event>
<event>
 8    1  0.1319619E-024  0.8050661E+02  0.7818608E-02  0.1327620E+00
         -2   -1    0    0    0  501 -0.00000000000E+00  0.00000000000E+00  0.68212180862E+01  0.68212185629E+01  0.25500000000E-02 0.  1.
          1   -1    0    0  501    0  0.00000000000E+00 -0.00000000000E+00 -0.23754240744E+03  0.23754240749E+03  0.50400000000E-02 0. -1.
        -24    2    1    2    0    0  0.71054273576E-14  0.00000000000E+00 -0.23072118935E+03  0.24436362605E+03  0.80506611669E+02 0.  0.
         66    2    3    3    0    0  0.34056256840E+02 -0.29731918394E+01 -0.51067328260E+02  0.61486100183E+02  0.20000001084E+01 0.  0.
         13    1    3    3    0    0 -0.34056256840E+02  0.29731918394E+01 -0.17965386109E+03  0.18287752587E+03  0.10566000000E+00 0. -1.
         13    1    4    4    0    0  0.20805776192E+01 -0.58228631449E+00 -0.36589585834E+01  0.42505296767E+01  0.10566000000E+00 0. -1.
        -13    1    4    4    0    0  0.25505906126E+02 -0.20791012008E+01 -0.37839381778E+02  0.45680454097E+02  0.10566000000E+00 0.  1.
         14    1    4    4    0    0  0.64697730941E+01 -0.31180432407E+00 -0.95689878985E+01  0.11555116409E+02  0.00000000000E+00 0. -1.
<mgrwt>
<rscale>  0 0.80506612E+02</rscale>
<asrwt>0</asrwt>
<pdfrwt beam="1">  1        1 0.36544980E-01 0.80506612E+02</pdfrwt>
<pdfrwt beam="2">  1       -2 0.10494184E-02 0.80506612E+02</pdfrwt>
<totfact> 0.16956813E+05</totfact>
</mgrwt>
</event>
<event>
 8    1  0.1319619E-024  0.8418500E+02  0.7818608E-02  0.1317578E+00
          1   -1    0    0  501    0  0.00000000000E+00  0.00000000000E+00  0.12510250865E+03  0.12510250875E+03  0.50400000000E-02 0. -1.
         -2   -1    0    0    0  501 -0.00000000000E+00 -0.00000000000E+00 -0.14162614529E+02  0.14162614759E+02  0.25500000000E-02 0.  1.
        -24    2    1    2    0    0  0.00000000000E+00  0.00000000000E+00  0.11093989412E+03  0.13926512351E+03  0.84185001744E+02 0.  0.
         66    2    3    3    0    0 -0.27514979258E+02 -0.30687436172E+02  0.41563887883E+02  0.58569186636E+02  0.20000062025E+01 0.  0.
         13    1    3    3    0    0  0.27514979258E+02  0.30687436172E+02  0.69376006236E+02  0.80695936873E+02  0.10566000000E+00 0. -1.
         13    1    4    4    0    0 -0.11931760144E+02 -0.12676412888E+02  0.17240844525E+02  0.24501351551E+02  0.10566000000E+00 0.  1.
        -13    1    4    4    0    0 -0.12257707293E+02 -0.13437087554E+02  0.18976340980E+02  0.26285345557E+02  0.10566000000E+00 0.  1.
        -14    1    4    4    0    0 -0.33255118207E+01 -0.45739357302E+01  0.53467023785E+01  0.77824895283E+01  0.00000000000E+00 0.  1.
<mgrwt>
<rscale>  0 0.84185002E+02</rscale>
<asrwt>0</asrwt>
<pdfrwt beam="1">  1        1 0.19246540E-01 0.84185002E+02</pdfrwt>
<pdfrwt beam="2">  1       -2 0.21788637E-02 0.84185002E+02</pdfrwt>
<totfact> 0.13317706E+05</totfact>
</mgrwt>
</event>
