<event>
 8    1  0.2433467E-024  0.7961428E+02  0.7818608E-02  0.1330150E+00
          2   -1    0    0  501    0  0.00000000000E+00  0.00000000000E+00  0.15950981137E+02  0.15950981340E+02  0.25500000000E-02 0. -1.
         -1   -1    0    0    0  501 -0.00000000000E+00 -0.00000000000E+00 -0.99342373473E+02  0.99342373600E+02  0.50400000000E-02 0.  1.
         24    2    1    2    0    0  0.00000000000E+00  0.00000000000E+00 -0.83391392336E+02  0.11529335494E+03  0.79614278730E+02 0.  0.
         66    2    3    3    0    0 -0.29335453193E+01  0.31024030763E+02 -0.59111288285E+01  0.31781088955E+02  0.19999995507E+01 0.  0.
        -13    1    3    3    0    0  0.29335453193E+01 -0.31024030763E+02 -0.77480263507E+02  0.83512265986E+02  0.10566000000E+00 0.  1.
         13    1    4    4    0    0 -0.88001249229E+00  0.11637604681E+02 -0.17138155667E+01  0.11796465255E+02  0.10566000000E+00 0. -1.
        -13    1    4    4    0    0 -0.12873735705E+00  0.62039910105E+00 -0.35105017170E+00  0.73203047091E+00  0.10566000000E+00 0. -1.
         14    1    4    4    0    0 -0.19247954700E+01  0.18766026981E+02 -0.38462630901E+01  0.19252593228E+02  0.00000000000E+00 0. -1.
<mgrwt>
<rscale>  0 0.79614279E+02</rscale>
<asrwt>0</asrwt>
<pdfrwt beam="1">  1        2 0.24539972E-02 0.79614279E+02</pdfrwt>
<pdfrwt beam="2">  1       -1 0.15283442E-01 0.79614279E+02</pdfrwt>
<totfact> 0.12013575E+05</totfact>
</mgrwt>
</event>
<event>
 8    1  0.2433467E-024  0.7835637E+02  0.7818608E-02  0.1333782E+00
         -1   -1    0    0    0  501 -0.00000000000E+00  0.00000000000E+00  0.84795979914E+01  0.84795994892E+01  0.50400000000E-02 0.  1.
          2   -1    0    0  501    0  0.00000000000E+00 -0.00000000000E+00 -0.18101449247E+03  0.18101449249E+03  0.25500000000E-02 0. -1.
         24    2    1    2    0    0  0.00000000000E+00  0.17763568394E-14 -0.17253489448E+03  0.18949409198E+03  0.78356372309E+02 0.  0.
         66    2    3    3    0    0 -0.23361487085E+02  0.14580824720E+02 -0.15362898687E+03  0.15609043896E+03  0.19999998491E+01 0.  0.
        -13    1    3    3    0    0  0.23361487085E+02 -0.14580824720E+02 -0.18905907606E+02  0.33403653016E+02  0.10566000000E+00 0.  1.
         13    1    4    4    0    0 -0.14472698784E+02  0.80972431246E+01 -0.91685627039E+02  0.93173438951E+02  0.10566000000E+00 0. -1.
        -13    1    4    4    0    0 -0.86543074711E+00  0.80086577702E+00 -0.75326142764E+01  0.76250769336E+01  0.10566000000E+00 0.  1.
        -14    1    4    4    0    0 -0.80233575545E+01  0.56827158182E+01 -0.54410745557E+02  0.55291923077E+02  0.00000000000E+00 0.  1.
<mgrwt>
<rscale>  0 0.78356372E+02</rscale>
<asrwt>0</asrwt>
<pdfrwt beam="1">  1        2 0.27848381E-01 0.78356372E+02</pdfrwt>
<pdfrwt beam="2">  1       -1 0.13045538E-02 0.78356372E+02</pdfrwt>
<totfact> 0.22516116E+05</totfact>
</mgrwt>
</event>
<event>
 8    1  0.2433467E-024  0.7918020E+02  0.7818608E-02  0.1331394E+00
          2   -1    0    0  501    0  0.00000000000E+00  0.00000000000E+00  0.78427386836E+03  0.78427386836E+03  0.25500000000E-02 0. -1.
         -1   -1    0    0    0  501 -0.00000000000E+00 -0.00000000000E+00 -0.19985027913E+01  0.19985091464E+01  0.50400000000E-02 0.  1.
         24    2    1    2    0    0  0.17763568394E-14  0.00000000000E+00  0.78227536557E+03  0.78627237751E+03  0.79180199927E+02 0.  0.
         66    2    3    3    0    0 -0.11000568610E+02 -0.12304960068E+02  0.74845106100E+03  0.74863570263E+03  0.19999995311E+01 0.  0.
        -13    1    3    3    0    0  0.11000568610E+02  0.12304960068E+02  0.33824304571E+02  0.37636674877E+02  0.10566000000E+00 0.  1.
         13    1    4    4    0    0 -0.66746043830E+01 -0.64070699915E+01  0.41289602892E+03  0.41299968856E+03  0.10566000000E+00 0. -1.
        -13    1    4    4    0    0 -0.32591879271E+00 -0.49097560695E+00  0.18606550176E+02  0.18616179887E+02  0.10566000000E+00 0. -1.
         14    1    4    4    0    0 -0.40000454340E+01 -0.54069144691E+01  0.31694848190E+03  0.31701983419E+03  0.00000000000E+00 0. -1.
<mgrwt>
<rscale>  0 0.79180200E+02</rscale>
<asrwt>0</asrwt>
<pdfrwt beam="1">  1        2 0.12065764E+00 0.79180200E+02</pdfrwt>
<pdfrwt beam="2">  1       -1 0.30746214E-03 0.79180200E+02</pdfrwt>
<totfact> 0.35173285E+05</totfact>
</mgrwt>
</event>
<event>
 8    1  0.2433467E-024  0.7970568E+02  0.7818608E-02  0.1329889E+00
          2   -1    0    0  501    0  0.00000000000E+00  0.00000000000E+00  0.90453819822E+02  0.90453819858E+02  0.25500000000E-02 0. -1.
         -1   -1    0    0    0  501 -0.00000000000E+00 -0.00000000000E+00 -0.17558669136E+02  0.17558669860E+02  0.50400000000E-02 0.  1.
         24    2    1    2    0    0  0.17763568394E-14  0.35527136788E-14  0.72895150686E+02  0.10801248972E+03  0.79705676972E+02 0.  0.
         66    2    3    3    0    0  0.10381729454E+02  0.19153892699E+02  0.81651622207E+02  0.84531883475E+02  0.20000007295E+01 0.  0.
        -13    1    3    3    0    0 -0.10381729454E+02 -0.19153892699E+02 -0.87564715211E+01  0.23480606242E+02  0.10566000000E+00 0.  1.
         13    1    4    4    0    0  0.62799007202E+01  0.11978080345E+02  0.51735456465E+02  0.53474107580E+02  0.10566000000E+00 0. -1.
        -13    1    4    4    0    0  0.40950839138E+01  0.71030323685E+01  0.28948855989E+02  0.30087708590E+02  0.10566000000E+00 0.  1.
        -14    1    4    4    0    0  0.67448197025E-02  0.72779985267E-01  0.96730975338E+00  0.97006730582E+00  0.00000000000E+00 0.  1.
<mgrwt>
<rscale>  0 0.79705677E+02</rscale>
<asrwt>0</asrwt>
<pdfrwt beam="1">  1        2 0.13915973E-01 0.79705677E+02</pdfrwt>
<pdfrwt beam="2">  1       -1 0.27013337E-02 0.79705677E+02</pdfrwt>
<totfact> 0.17415573E+05</totfact>
</mgrwt>
</event>
<event>
 8    1  0.2433467E-024  0.7885620E+02  0.7818608E-02  0.1332329E+00
         -1   -1    0    0    0  501 -0.00000000000E+00  0.00000000000E+00  0.23540467926E+01  0.23540521879E+01  0.50400000000E-02 0.  1.
          2   -1    0    0  501    0  0.00000000000E+00 -0.00000000000E+00 -0.66038334470E+03  0.66038334471E+03  0.25500000000E-02 0. -1.
         24    2    1    2    0    0  0.00000000000E+00  0.00000000000E+00 -0.65802929791E+03  0.66273739690E+03  0.78856200364E+02 0.  0.
         66    2    3    3    0    0  0.19767309054E+02 -0.14189110077E+02 -0.58969268730E+03  0.59019788445E+03  0.20000008458E+01 0.  0.
        -13    1    3    3    0    0 -0.19767309054E+02  0.14189110077E+02 -0.68336610615E+02  0.72539512449E+02  0.10566000000E+00 0.  1.
         13    1    4    4    0    0  0.60204194940E+01 -0.43626529549E+01 -0.18429544294E+03  0.18444538391E+03  0.10566000000E+00 0. -1.
        -13    1    4    4    0    0  0.68537817450E+00 -0.24414120496E+00 -0.24282178909E+02  0.24293306172E+02  0.10566000000E+00 0.  1.
        -14    1    4    4    0    0  0.13061511385E+02 -0.95823159173E+01 -0.38111506545E+03  0.38145919437E+03  0.00000000000E+00 0.  1.
<mgrwt>
<rscale>  0 0.78856200E+02</rscale>
<asrwt>0</asrwt>
<pdfrwt beam="1">  1        2 0.10159729E+00 0.78856200E+02</pdfrwt>
<pdfrwt beam="2">  1       -1 0.36216199E-03 0.78856200E+02</pdfrwt>
<totfact> 0.34246580E+05</totfact>
</mgrwt>
</event>
<event>
 8    1  0.2433467E-024  0.7922230E+02  0.7818608E-02  0.1331273E+00
          2   -1    0    0  501    0  0.00000000000E+00  0.00000000000E+00  0.24048741647E+02  0.24048741782E+02  0.25500000000E-02 0. -1.
         -1   -1    0    0    0  501 -0.00000000000E+00 -0.00000000000E+00 -0.65244297532E+02  0.65244297726E+02  0.50400000000E-02 0.  1.
         24    2    1    2    0    0  0.35527136788E-14  0.00000000000E+00 -0.41195555885E+02  0.89293039508E+02  0.79222301658E+02 0.  0.
         66    2    3    3    0    0 -0.25542535429E+02  0.33930430078E+01  0.13260998806E+02  0.29048028346E+02  0.20000011171E+01 0.  0.
        -13    1    3    3    0    0  0.25542535429E+02 -0.33930430078E+01 -0.54456554691E+02  0.60245011162E+02  0.10566000000E+00 0.  1.
         13    1    4    4    0    0 -0.75917720309E+01  0.99907341314E+00  0.30577167082E+01  0.82458441507E+01  0.10566000000E+00 0. -1.
        -13    1    4    4    0    0 -0.89692027405E+01  0.15907642331E+01  0.50304226409E+01  0.10406413629E+02  0.10566000000E+00 0.  1.
         14    1    4    4    0    0 -0.89815606578E+01  0.80320536151E+00  0.51728594574E+01  0.10395770566E+02  0.00000000000E+00 0. -1.
<mgrwt>
<rscale>  0 0.79222302E+02</rscale>
<asrwt>0</asrwt>
<pdfrwt beam="1">  1        2 0.36998065E-02 0.79222302E+02</pdfrwt>
<pdfrwt beam="2">  1       -1 0.10037584E-01 0.79222302E+02</pdfrwt>
<totfact> 0.13243101E+05</totfact>
</mgrwt>
</event>
<event>
 8    1  0.2433467E-024  0.8459277E+02  0.7818608E-02  0.1316501E+00
         -1   -1    0    0    0  501 -0.00000000000E+00  0.00000000000E+00  0.23880452034E+01  0.23880505218E+01  0.50400000000E-02 0.  1.
          2   -1    0    0  501    0  0.00000000000E+00 -0.00000000000E+00 -0.74914087637E+03  0.74914087638E+03  0.25500000000E-02 0. -1.
         24    2    1    2    0    0  0.00000000000E+00  0.00000000000E+00 -0.74675283117E+03  0.75152892690E+03  0.84592772187E+02 0.  0.
         66    2    3    3    0    0 -0.28697364208E+02 -0.93118848192E+01 -0.63663872597E+03  0.63735635034E+03  0.19999990581E+01 0.  0.
        -13    1    3    3    0    0  0.28697364208E+02  0.93118848192E+01 -0.11011410520E+03  0.11417257656E+03  0.10566000000E+00 0.  1.
         13    1    4    4    0    0 -0.41216639158E+01 -0.16957804083E+01 -0.94717416650E+02  0.94822275682E+02  0.10566000000E+00 0. -1.
        -13    1    4    4    0    0 -0.88073483019E+00  0.42568307038E-02 -0.19528662196E+02  0.19548798509E+02  0.10566000000E+00 0.  1.
         14    1    4    4    0    0 -0.23694965461E+02 -0.76203612416E+01 -0.52239264713E+03  0.52298527615E+03  0.00000000000E+00 0. -1.
<mgrwt>
<rscale>  0 0.84592772E+02</rscale>
<asrwt>0</asrwt>
<pdfrwt beam="1">  1        2 0.11525226E+00 0.84592772E+02</pdfrwt>
<pdfrwt beam="2">  1       -1 0.36739258E-03 0.84592772E+02</pdfrwt>
<totfact> 0.29349577E+05</totfact>
</mgrwt>
</event>
<event>
 8    1  0.2433467E-024  0.8063447E+02  0.7818608E-02  0.1327260E+00
          2   -1    0    0  501    0  0.00000000000E+00  0.00000000000E+00  0.14709470056E+04  0.14709470056E+04  0.25500000000E-02 0. -1.
         -1   -1    0    0    0  501 -0.00000000000E+00 -0.00000000000E+00 -0.11050507025E+01  0.11050621958E+01  0.50400000000E-02 0.  1.
         24    2    1    2    0    0  0.17763568394E-14  0.35527136788E-14  0.14698419549E+04  0.14720520678E+04  0.80634471111E+02 0.  0.
         66    2    3    3    0    0  0.11262734170E+02  0.16597283479E+02  0.13733237145E+04  0.13734716393E+04  0.20000010726E+01 0.  0.
        -13    1    3    3    0    0 -0.11262734170E+02 -0.16597283479E+02  0.96518240341E+02  0.98580428496E+02  0.10566000000E+00 0.  1.
         13    1    4    4    0    0  0.18879029862E+01  0.33120557225E+01  0.22019777733E+03  0.22023080210E+03  0.10566000000E+00 0. -1.
        -13    1    4    4    0    0  0.64543949115E+01  0.93996005258E+01  0.78512914724E+03  0.78521194637E+03  0.10566000000E+00 0. -1.
         14    1    4    4    0    0  0.29204362727E+01  0.38856272303E+01  0.36799678996E+03  0.36802889080E+03  0.00000000000E+00 0. -1.
<mgrwt>
<rscale>  0 0.80634471E+02</rscale>
<asrwt>0</asrwt>
<pdfrwt beam="1">  1        2 0.22630073E+00 0.80634471E+02</pdfrwt>
<pdfrwt beam="2">  1       -1 0.17000779E-03 0.80634471E+02</pdfrwt>
<totfact> 0.32807287E+05</totfact>
</mgrwt>
</event>
<event>
 8    1  0.2433467E-024  0.7328612E+02  0.7818608E-02  0.1349262E+00
         -1   -1    0    0    0  501 -0.00000000000E+00  0.00000000000E+00  0.87340953157E+02  0.87340953302E+02  0.50400000000E-02 0.  1.
          2   -1    0    0  501    0  0.00000000000E+00 -0.00000000000E+00 -0.15373242408E+02  0.15373242619E+02  0.25500000000E-02 0. -1.
         24    2    1    2    0    0  0.00000000000E+00  0.00000000000E+00  0.71967710749E+02  0.10271419592E+03  0.73286115011E+02 0.  0.
         66    2    3    3    0    0 -0.18816983904E+02  0.24044878959E+02  0.76842155100E+01  0.31548094359E+02  0.20000005640E+01 0.  0.
        -13    1    3    3    0    0  0.18816983904E+02 -0.24044878959E+02  0.64283495239E+02  0.71166101563E+02  0.10566000000E+00 0.  1.
         13    1    4    4    0    0 -0.87523890872E+01  0.11916953770E+02  0.35813169341E+01  0.15213648376E+02  0.10566000000E+00 0. -1.
        -13    1    4    4    0    0 -0.72340528282E+01  0.78437323056E+01  0.29641329905E+01  0.11074877210E+02  0.10566000000E+00 0.  1.
        -14    1    4    4    0    0 -0.28305419890E+01  0.42841928837E+01  0.11387655853E+01  0.52595687727E+01  0.00000000000E+00 0.  1.
<mgrwt>
<rscale>  0 0.73286115E+02</rscale>
<asrwt>0</asrwt>
<pdfrwt beam="1">  1        2 0.23651142E-02 0.73286115E+02</pdfrwt>
<pdfrwt beam="2">  1       -1 0.13437070E-01 0.73286115E+02</pdfrwt>
<totfact> 0.15152245E+05</totfact>
</mgrwt>
</event>
<event>
 8    1  0.2433467E-024  0.8460552E+02  0.7818608E-02  0.1316467E+00
          2   -1    0    0  501    0  0.00000000000E+00  0.00000000000E+00  0.98044637011E+01  0.98044640327E+01  0.25500000000E-02 0. -1.
         -1   -1    0    0    0  501 -0.00000000000E+00 -0.00000000000E+00 -0.18252131590E+03  0.18252131597E+03  0.50400000000E-02 0.  1.
         24    2    1    2    0    0  0.00000000000E+00  0.00000000000E+00 -0.17271685220E+03  0.19232578000E+03  0.84605523578E+02 0.  0.
         66    2    3    3    0    0  0.15755391664E+02  0.32236218760E+02 -0.35570402924E+02  0.50563422942E+02  0.20000022482E+01 0.  0.
        -13    1    3    3    0    0 -0.15755391664E+02 -0.32236218760E+02 -0.13714644927E+03  0.14176235706E+03  0.10566000000E+00 0.  1.
         13    1    4    4    0    0  0.51954451286E+01  0.11751463554E+02 -0.12913815521E+02  0.18217226493E+02  0.10566000000E+00 0. -1.
        -13    1    4    4    0    0  0.90212969370E+01  0.17910590594E+02 -0.20262494369E+02  0.28508821371E+02  0.10566000000E+00 0.  1.
        -14    1    4    4    0    0  0.15386495988E+01  0.25741646124E+01 -0.23940930336E+01  0.38373750785E+01  0.00000000000E+00 0.  1.
<mgrwt>
<rscale>  0 0.84605524E+02</rscale>
<asrwt>0</asrwt>
<pdfrwt beam="1">  1        2 0.15083792E-02 0.84605524E+02</pdfrwt>
<pdfrwt beam="2">  1       -1 0.28080200E-01 0.84605524E+02</pdfrwt>
<totfact> 0.88746089E+04</totfact>
</mgrwt>
</event>
<event>
 8    1  0.2433467E-024  0.8057498E+02  0.7818608E-02  0.1327428E+00
         -1   -1    0    0    0  501 -0.00000000000E+00  0.00000000000E+00  0.13334836056E+01  0.13334931301E+01  0.50400000000E-02 0.  1.
          2   -1    0    0  501    0  0.00000000000E+00 -0.00000000000E+00 -0.12171697437E+04  0.12171697437E+04  0.25500000000E-02 0. -1.
         24    2    1    2    0    0 -0.88817841970E-15  0.17763568394E-14 -0.12158362601E+04  0.12185032368E+04  0.80574976337E+02 0.  0.
         66    2    3    3    0    0 -0.77832608018E+01  0.11722257949E+02 -0.11787738487E+04  0.11788595238E+04  0.20000004157E+01 0.  0.
        -13    1    3    3    0    0  0.77832608018E+01 -0.11722257949E+02 -0.37062411345E+02  0.39643712980E+02  0.10566000000E+00 0.  1.
         13    1    4    4    0    0 -0.12005389585E+01  0.15753419377E+01 -0.19061780005E+03  0.19062811927E+03  0.10566000000E+00 0.  1.
        -13    1    4    4    0    0 -0.29370487681E+01  0.32578508889E+01 -0.38485180353E+03  0.38487681366E+03  0.10566000000E+00 0. -1.
         14    1    4    4    0    0 -0.36456730752E+01  0.68890651227E+01 -0.60330424516E+03  0.60335459091E+03  0.00000000000E+00 0. -1.
<mgrwt>
<rscale>  0 0.80574976E+02</rscale>
<asrwt>0</asrwt>
<pdfrwt beam="1">  1        2 0.18725600E+00 0.80574976E+02</pdfrwt>
<pdfrwt beam="2">  1       -1 0.20515303E-03 0.80574976E+02</pdfrwt>
<totfact> 0.34335138E+05</totfact>
</mgrwt>
</event>
<event>
 8    1  0.2433467E-024  0.7955754E+02  0.7818608E-02  0.1330312E+00
          2   -1    0    0  501    0  0.00000000000E+00  0.00000000000E+00  0.10770150992E+04  0.10770150992E+04  0.25500000000E-02 0. -1.
         -1   -1    0    0    0  501 -0.00000000000E+00 -0.00000000000E+00 -0.14691957780E+01  0.14692044227E+01  0.50400000000E-02 0.  1.
         24    2    1    2    0    0  0.00000000000E+00  0.00000000000E+00  0.10755459034E+04  0.10784843036E+04  0.79557543947E+02 0.  0.
         66    2    3    3    0    0  0.13590933243E+02 -0.21023238491E+02  0.95673985834E+03  0.95706940530E+03  0.20000008414E+01 0.  0.
        -13    1    3    3    0    0 -0.13590933243E+02  0.21023238491E+02  0.11880604506E+03  0.12141489830E+03  0.10566000000E+00 0.  1.
         13    1    4    4    0    0  0.64390452939E+01 -0.84091276481E+01  0.40118547605E+03  0.40132526968E+03  0.10566000000E+00 0. -1.
        -13    1    4    4    0    0  0.29061128176E+01 -0.50148802678E+01  0.20811272247E+03  0.20819344594E+03  0.10566000000E+00 0.  1.
         14    1    4    4    0    0  0.42457751310E+01 -0.75992305751E+01  0.34744165983E+03  0.34755068968E+03  0.00000000000E+00 0. -1.
<mgrwt>
<rscale>  0 0.79557544E+02</rscale>
<asrwt>0</asrwt>
<pdfrwt beam="1">  1        2 0.16569489E+00 0.79557544E+02</pdfrwt>
<pdfrwt beam="2">  1       -1 0.22603043E-03 0.79557544E+02</pdfrwt>
<totfact> 0.35780274E+05</totfact>
</mgrwt>
</event>
<event>
 8    1  0.2433467E-024  0.7831344E+02  0.7818608E-02  0.1333907E+00
         -1   -1    0    0    0  501 -0.00000000000E+00  0.00000000000E+00  0.19565580773E+03  0.19565580779E+03  0.50400000000E-02 0.  1.
          2   -1    0    0  501    0  0.00000000000E+00 -0.00000000000E+00 -0.78364581694E+01  0.78364585843E+01  0.25500000000E-02 0. -1.
         24    2    1    2    0    0  0.00000000000E+00  0.00000000000E+00  0.18781934956E+03  0.20349226638E+03  0.78313436949E+02 0.  0.
         66    2    3    3    0    0  0.71159967735E+01  0.37010656176E+02  0.66617059824E+02  0.76565388682E+02  0.20000009114E+01 0.  0.
        -13    1    3    3    0    0 -0.71159967735E+01 -0.37010656176E+02  0.12120228973E+03  0.12692687769E+03  0.10566000000E+00 0.  1.
         13    1    4    4    0    0  0.19446412072E+01  0.63404772251E+01  0.11724303715E+02  0.13470476699E+02  0.10566000000E+00 0. -1.
        -13    1    4    4    0    0  0.13695348566E+01  0.84848438752E+01  0.15662837863E+02  0.17866277040E+02  0.10566000000E+00 0.  1.
         14    1    4    4    0    0  0.38018207096E+01  0.22185335076E+02  0.39229918247E+02  0.45228634943E+02  0.00000000000E+00 0. -1.
<mgrwt>
<rscale>  0 0.78313437E+02</rscale>
<asrwt>0</asrwt>
<pdfrwt beam="1">  1        2 0.12056091E-02 0.78313437E+02</pdfrwt>
<pdfrwt beam="2">  1       -1 0.30100891E-01 0.78313437E+02</pdfrwt>
<totfact> 0.10584623E+05</totfact>
</mgrwt>
</event>
<event>
 8    1  0.2433467E-024  0.8395148E+02  0.7818608E-02  0.1318198E+00
          2   -1    0    0  501    0  0.00000000000E+00  0.00000000000E+00  0.27258640584E+03  0.27258640585E+03  0.25500000000E-02 0. -1.
         -1   -1    0    0    0  501 -0.00000000000E+00 -0.00000000000E+00 -0.64638681671E+01  0.64638701320E+01  0.50400000000E-02 0.  1.
         24    2    1    2    0    0  0.35527136788E-14  0.00000000000E+00  0.26612253767E+03  0.27905027598E+03  0.83951482829E+02 0.  0.
         66    2    3    3    0    0 -0.31422352506E+02 -0.16099584285E+02  0.20845144958E+03  0.21142981742E+03  0.20000022065E+01 0.  0.
        -13    1    3    3    0    0  0.31422352506E+02  0.16099584285E+02  0.57671088089E+02  0.67620458566E+02  0.10566000000E+00 0.  1.
         13    1    4    4    0    0 -0.15516739894E+02 -0.72873810982E+01  0.10144163446E+03  0.10287998593E+03  0.10566000000E+00 0. -1.
        -13    1    4    4    0    0 -0.93576692906E+01 -0.47503065356E+01  0.59203791907E+02  0.60126795416E+02  0.10566000000E+00 0.  1.
         14    1    4    4    0    0 -0.65479433216E+01 -0.40618966510E+01  0.47806023218E+02  0.48423036068E+02  0.00000000000E+00 0. -1.
<mgrwt>
<rscale>  0 0.83951483E+02</rscale>
<asrwt>0</asrwt>
<pdfrwt beam="1">  1        2 0.41936364E-01 0.83951483E+02</pdfrwt>
<pdfrwt beam="2">  1       -1 0.99444156E-03 0.83951483E+02</pdfrwt>
<totfact> 0.21690294E+05</totfact>
</mgrwt>
</event>
<event>
 8    1  0.2433467E-024  0.8110882E+02  0.7818608E-02  0.1325934E+00
         -1   -1    0    0    0  501 -0.00000000000E+00  0.00000000000E+00  0.39932908607E+02  0.39932908925E+02  0.50400000000E-02 0.  1.
          2   -1    0    0  501    0  0.00000000000E+00 -0.00000000000E+00 -0.41185581905E+02  0.41185581984E+02  0.25500000000E-02 0. -1.
         24    2    1    2    0    0  0.00000000000E+00  0.00000000000E+00 -0.12526732986E+01  0.81118490909E+02  0.81108818121E+02 0.  0.
         66    2    3    3    0    0 -0.33608510454E+02  0.20921185298E+02 -0.93126327497E+01  0.40717970125E+02  0.19999982901E+01 0.  0.
        -13    1    3    3    0    0  0.33608510454E+02 -0.20921185298E+02  0.80599594512E+01  0.40400520784E+02  0.10566000000E+00 0.  1.
         13    1    4    4    0    0 -0.98989387378E+00  0.64944247925E+00 -0.51520555767E-01  0.11897410720E+01  0.10566000000E+00 0. -1.
        -13    1    4    4    0    0 -0.93525982983E+01  0.51596174187E+01 -0.27923347262E+01  0.11040880585E+02  0.10566000000E+00 0.  1.
         14    1    4    4    0    0 -0.23266018282E+02  0.15112125400E+02 -0.64687774678E+01  0.28487348468E+02  0.00000000000E+00 0. -1.
<mgrwt>
<rscale>  0 0.81108818E+02</rscale>
<asrwt>0</asrwt>
<pdfrwt beam="1">  1        2 0.63362434E-02 0.81108818E+02</pdfrwt>
<pdfrwt beam="2">  1       -1 0.61435245E-02 0.81108818E+02</pdfrwt>
<totfact> 0.13805989E+05</totfact>
</mgrwt>
</event>
<event>
 8    1  0.2433467E-024  0.8225962E+02  0.7818608E-02  0.1322759E+00
          2   -1    0    0  501    0  0.00000000000E+00  0.00000000000E+00  0.58530812285E+03  0.58530812285E+03  0.25500000000E-02 0. -1.
         -1   -1    0    0    0  501 -0.00000000000E+00 -0.00000000000E+00 -0.28902038538E+01  0.28902082482E+01  0.50400000000E-02 0.  1.
         24    2    1    2    0    0  0.00000000000E+00  0.35527136788E-14  0.58241791899E+03  0.58819833110E+03  0.82259615519E+02 0.  0.
         66    2    3    3    0    0  0.39252159347E+00  0.26464408077E+02  0.51626814718E+03  0.51695001573E+03  0.20000007378E+01 0.  0.
        -13    1    3    3    0    0 -0.39252159347E+00 -0.26464408077E+02  0.66149771807E+02  0.71248315365E+02  0.10566000000E+00 0.  1.
         13    1    4    4    0    0  0.16144714389E+00  0.13762258784E+02  0.27574678990E+03  0.27609007432E+03  0.10566000000E+00 0. -1.
        -13    1    4    4    0    0  0.81260880096E-01  0.12508302665E+02  0.23418111684E+03  0.23451496943E+03  0.10566000000E+00 0.  1.
        -14    1    4    4    0    0  0.14981356949E+00  0.19384662785E+00  0.63402404383E+01  0.63449719807E+01  0.00000000000E+00 0.  1.
<mgrwt>
<rscale>  0 0.82259616E+02</rscale>
<asrwt>0</asrwt>
<pdfrwt beam="1">  1        2 0.90047398E-01 0.82259616E+02</pdfrwt>
<pdfrwt beam="2">  1       -1 0.44464711E-03 0.82259616E+02</pdfrwt>
<totfact> 0.29703279E+05</totfact>
</mgrwt>
</event>
<event>
 8    1  0.2433467E-024  0.7653013E+02  0.7818608E-02  0.1339197E+00
         -1   -1    0    0    0  501 -0.00000000000E+00  0.00000000000E+00  0.11303867676E+01  0.11303980034E+01  0.50400000000E-02 0.  1.
          2   -1    0    0  501    0  0.00000000000E+00 -0.00000000000E+00 -0.12953160300E+04  0.12953160300E+04  0.25500000000E-02 0. -1.
         24    2    1    2    0    0  0.17763568394E-14  0.00000000000E+00 -0.12941856432E+04  0.12964464280E+04  0.76530134852E+02 0.  0.
         66    2    3    3    0    0 -0.74782918621E+01  0.17326162382E+02 -0.12109340900E+04  0.12110827763E+04  0.19999974023E+01 0.  0.
        -13    1    3    3    0    0  0.74782918621E+01 -0.17326162382E+02 -0.83251553280E+02  0.85363651747E+02  0.10566000000E+00 0.  1.
         13    1    4    4    0    0 -0.35948502008E+01  0.97095994677E+01 -0.61808496477E+03  0.61817168660E+03  0.10566000000E+00 0. -1.
        -13    1    4    4    0    0 -0.22055134422E+01  0.42639339364E+01 -0.35329735770E+03  0.35332998676E+03  0.10566000000E+00 0.  1.
        -14    1    4    4    0    0 -0.16779282192E+01  0.33526289777E+01 -0.23955176749E+03  0.23958110291E+03  0.00000000000E+00 0.  1.
<mgrwt>
<rscale>  0 0.76530135E+02</rscale>
<asrwt>0</asrwt>
<pdfrwt beam="1">  1        2 0.19927820E+00 0.76530135E+02</pdfrwt>
<pdfrwt beam="2">  1       -1 0.17390756E-03 0.76530135E+02</pdfrwt>
<totfact> 0.38858397E+05</totfact>
</mgrwt>
</event>
<event>
 8    1  0.2433467E-024  0.7823510E+02  0.7818608E-02  0.1334136E+00
         -1   -1    0    0    0  501 -0.00000000000E+00  0.00000000000E+00  0.17475733976E+02  0.17475734703E+02  0.50400000000E-02 0.  1.
          2   -1    0    0  501    0  0.00000000000E+00 -0.00000000000E+00 -0.87560413119E+02  0.87560413156E+02  0.25500000000E-02 0. -1.
         24    2    1    2    0    0  0.00000000000E+00  0.00000000000E+00 -0.70084679143E+02  0.10503614786E+03  0.78235095108E+02 0.  0.
         66    2    3    3    0    0 -0.78672174169E+01  0.23054597657E+02 -0.76112945342E+02  0.79941153530E+02  0.19999989979E+01 0.  0.
        -13    1    3    3    0    0  0.78672174169E+01 -0.23054597657E+02  0.60282661995E+01  0.25094994330E+02  0.10566000000E+00 0.  1.
         13    1    4    4    0    0 -0.29720239179E+01  0.89322844100E+01 -0.30372294655E+02  0.31797894233E+02  0.10566000000E+00 0. -1.
        -13    1    4    4    0    0 -0.79200466886E+00  0.14308265297E+01 -0.39793611248E+01  0.43036048785E+01  0.10566000000E+00 0.  1.
        -14    1    4    4    0    0 -0.41031888302E+01  0.12691486717E+02 -0.41761289562E+02  0.43839654419E+02  0.00000000000E+00 0.  1.
<mgrwt>
<rscale>  0 0.78235095E+02</rscale>
<asrwt>0</asrwt>
<pdfrwt beam="1">  1        2 0.13470833E-01 0.78235095E+02</pdfrwt>
<pdfrwt beam="2">  1       -1 0.26885746E-02 0.78235095E+02</pdfrwt>
<totfact> 0.18149689E+05</totfact>
</mgrwt>
</event>
<event>
 8    1  0.2433467E-024  0.8123132E+02  0.7818608E-02  0.1325593E+00
         -1   -1    0    0    0  501 -0.00000000000E+00  0.00000000000E+00  0.37345914549E+01  0.37345948558E+01  0.50400000000E-02 0.  1.
          2   -1    0    0  501    0  0.00000000000E+00 -0.00000000000E+00 -0.44171665693E+03  0.44171665694E+03  0.25500000000E-02 0. -1.
         24    2    1    2    0    0  0.00000000000E+00 -0.71054273576E-14 -0.43798206548E+03  0.44545125179E+03  0.81231324292E+02 0.  0.
         66    2    3    3    0    0 -0.66658415574E+01  0.35771271498E+02 -0.31777122009E+03  0.31985397547E+03  0.19999991223E+01 0.  0.
        -13    1    3    3    0    0  0.66658415574E+01 -0.35771271498E+02 -0.12021084539E+03  0.12559727633E+03  0.10566000000E+00 0.  1.
         13    1    4    4    0    0 -0.33905171119E+01  0.20328787665E+02 -0.18566271266E+03  0.18680312966E+03  0.10566000000E+00 0. -1.
        -13    1    4    4    0    0 -0.33946648625E+00  0.30633402195E+01 -0.26326497052E+02  0.26506506784E+02  0.10566000000E+00 0.  1.
         14    1    4    4    0    0 -0.29358579592E+01  0.12379143614E+02 -0.10578201038E+03  0.10654433902E+03  0.00000000000E+00 0. -1.
<mgrwt>
<rscale>  0 0.81231324E+02</rscale>
<asrwt>0</asrwt>
<pdfrwt beam="1">  1        2 0.67956367E-01 0.81231324E+02</pdfrwt>
<pdfrwt beam="2">  1       -1 0.57455315E-03 0.81231324E+02</pdfrwt>
<totfact> 0.28091784E+05</totfact>
</mgrwt>
</event>
<event>
 8    1  0.2433467E-024  0.7946200E+02  0.7818608E-02  0.1330585E+00
          2   -1    0    0  501    0  0.00000000000E+00  0.00000000000E+00  0.46762238466E+03  0.46762238466E+03  0.25500000000E-02 0. -1.
         -1   -1    0    0    0  501 -0.00000000000E+00 -0.00000000000E+00 -0.33756972545E+01  0.33757010169E+01  0.50400000000E-02 0.  1.
         24    2    1    2    0    0 -0.35527136788E-14 -0.71054273576E-14  0.46424668740E+03  0.47099808568E+03  0.79462003189E+02 0.  0.
         66    2    3    3    0    0  0.17971595442E+02  0.20817313800E+02  0.40202469001E+03  0.40296921740E+03  0.19999985463E+01 0.  0.
        -13    1    3    3    0    0 -0.17971595442E+02 -0.20817313800E+02  0.62221997388E+02  0.68028868281E+02  0.10566000000E+00 0.  1.
         13    1    4    4    0    0  0.11454376854E+02  0.14330064195E+02  0.26134060607E+03  0.26198373429E+03  0.10566000000E+00 0. -1.
        -13    1    4    4    0    0  0.10351701684E+01  0.94282673267E+00  0.18942328719E+02  0.18994301273E+02  0.10566000000E+00 0. -1.
        -14    1    4    4    0    0  0.54820484194E+01  0.55444228727E+01  0.12174175523E+03  0.12199118184E+03  0.00000000000E+00 0.  1.
<mgrwt>
<rscale>  0 0.79462003E+02</rscale>
<asrwt>0</asrwt>
<pdfrwt beam="1">  1        2 0.71941861E-01 0.79462003E+02</pdfrwt>
<pdfrwt beam="2">  1       -1 0.51933865E-03 0.79462003E+02</pdfrwt>
<totfact> 0.30325849E+05</totfact>
</mgrwt>
</event>
<event>
 8    1  0.2433467E-024  0.7611067E+02  0.7818608E-02  0.1340466E+00
         -1   -1    0    0    0  501 -0.00000000000E+00  0.00000000000E+00  0.51526130919E+01  0.51526155568E+01  0.50400000000E-02 0.  1.
          2   -1    0    0  501    0  0.00000000000E+00 -0.00000000000E+00 -0.28106285893E+03  0.28106285894E+03  0.25500000000E-02 0. -1.
         24    2    1    2    0    0  0.00000000000E+00  0.35527136788E-14 -0.27591024584E+03  0.28621547450E+03  0.76110669974E+02 0.  0.
         66    2    3    3    0    0  0.82912968098E+01  0.31879333529E+02 -0.20951637788E+03  0.21209938735E+03  0.20000003074E+01 0.  0.
        -13    1    3    3    0    0 -0.82912968098E+01 -0.31879333529E+02 -0.66393867955E+02  0.74116087155E+02  0.10566000000E+00 0.  1.
         13    1    4    4    0    0  0.77719608444E+01  0.28044838524E+02 -0.18680470492E+03  0.18905799451E+03  0.10566000000E+00 0. -1.
        -13    1    4    4    0    0  0.28799725239E+00  0.17308660530E+01 -0.11128101509E+02  0.11266083922E+02  0.10566000000E+00 0. -1.
         14    1    4    4    0    0  0.23133871307E+00  0.21036289529E+01 -0.11583571456E+02  0.11775308915E+02  0.00000000000E+00 0. -1.
<mgrwt>
<rscale>  0 0.76110670E+02</rscale>
<asrwt>0</asrwt>
<pdfrwt beam="1">  1        2 0.43240428E-01 0.76110670E+02</pdfrwt>
<pdfrwt beam="2">  1       -1 0.79271012E-03 0.76110670E+02</pdfrwt>
<totfact> 0.28369083E+05</totfact>
</mgrwt>
</event>
<event>
 8    1  0.2433467E-024  0.8032615E+02  0.7818608E-02  0.1328128E+00
          2   -1    0    0  501    0  0.00000000000E+00  0.00000000000E+00  0.66032170198E+03  0.66032170199E+03  0.25500000000E-02 0. -1.
         -1   -1    0    0    0  501 -0.00000000000E+00 -0.00000000000E+00 -0.24428562001E+01  0.24428613993E+01  0.50400000000E-02 0.  1.
         24    2    1    2    0    0  0.00000000000E+00  0.00000000000E+00  0.65787884578E+03  0.66276456339E+03  0.80326152362E+02 0.  0.
         66    2    3    3    0    0 -0.10918737923E+02  0.36651215757E+02  0.42970156259E+03  0.43140463993E+03  0.20000009647E+01 0.  0.
        -13    1    3    3    0    0  0.10918737923E+02 -0.36651215757E+02  0.22817728319E+03  0.23135992346E+03  0.10566000000E+00 0.  1.
         13    1    4    4    0    0 -0.19471770173E+01  0.52443048918E+01  0.67495314799E+02  0.67726825675E+02  0.10566000000E+00 0.  1.
        -13    1    4    4    0    0 -0.53703738310E+00  0.24581630719E+01  0.30698508813E+02  0.30801632785E+02  0.10566000000E+00 0. -1.
         14    1    4    4    0    0 -0.84345235224E+01  0.28948747793E+02  0.33150773898E+03  0.33287618147E+03  0.00000000000E+00 0. -1.
<mgrwt>
<rscale>  0 0.80326152E+02</rscale>
<asrwt>0</asrwt>
<pdfrwt beam="1">  1        2 0.10158796E+00 0.80326152E+02</pdfrwt>
<pdfrwt beam="2">  1       -1 0.37582440E-03 0.80326152E+02</pdfrwt>
<totfact> 0.32640712E+05</totfact>
</mgrwt>
</event>
<event>
 8    1  0.2433467E-024  0.7820665E+02  0.7818608E-02  0.1334219E+00
          2   -1    0    0  501    0  0.00000000000E+00  0.00000000000E+00  0.12352139202E+04  0.12352139202E+04  0.25500000000E-02 0. -1.
         -1   -1    0    0    0  501 -0.00000000000E+00 -0.00000000000E+00 -0.12378938224E+01  0.12379040823E+01  0.50400000000E-02 0.  1.
         24    2    1    2    0    0  0.00000000000E+00  0.35527136788E-14  0.12339760264E+04  0.12364518243E+04  0.78206649991E+02 0.  0.
         66    2    3    3    0    0  0.56999380655E+01  0.21382273629E+02  0.11266054443E+04  0.11268245285E+04  0.20000002672E+01 0.  0.
        -13    1    3    3    0    0 -0.56999380655E+01 -0.21382273629E+02  0.10737058204E+03  0.10962729574E+03  0.10566000000E+00 0.  1.
         13    1    4    4    0    0  0.45240754777E+01  0.17413839407E+02  0.92386206371E+03  0.92403724653E+03  0.10566000000E+00 0. -1.
        -13    1    4    4    0    0  0.11404676668E+01  0.36688300778E+01  0.19525916293E+03  0.19529698629E+03  0.10566000000E+00 0.  1.
        -14    1    4    4    0    0  0.35394920946E-01  0.29960414441E+00  0.74842176942E+01  0.74902957177E+01  0.00000000000E+00 0.  1.
<mgrwt>
<rscale>  0 0.78206650E+02</rscale>
<asrwt>0</asrwt>
<pdfrwt beam="1">  1        2 0.19003397E+00 0.78206650E+02</pdfrwt>
<pdfrwt beam="2">  1       -1 0.19044494E-03 0.78206650E+02</pdfrwt>
<totfact> 0.37026301E+05</totfact>
</mgrwt>
</event>
<event>
 8    1  0.2433467E-024  0.8399380E+02  0.7818608E-02  0.1318085E+00
         -1   -1    0    0    0  501 -0.00000000000E+00  0.00000000000E+00  0.54787818203E+01  0.54787841385E+01  0.50400000000E-02 0.  1.
          2   -1    0    0  501    0  0.00000000000E+00 -0.00000000000E+00 -0.32192179868E+03  0.32192179869E+03  0.25500000000E-02 0. -1.
         24    2    1    2    0    0  0.00000000000E+00  0.00000000000E+00 -0.31644301686E+03  0.32740058282E+03  0.83993801659E+02 0.  0.
         66    2    3    3    0    0 -0.34921203319E+02  0.11683418804E+02 -0.23682678478E+03  0.23968086845E+03  0.19999987927E+01 0.  0.
        -13    1    3    3    0    0  0.34921203319E+02 -0.11683418804E+02 -0.79616232079E+02  0.87719714379E+02  0.10566000000E+00 0.  1.
         13    1    4    4    0    0 -0.26409292514E+02  0.92741372390E+01 -0.17774742174E+03  0.17993781552E+03  0.10566000000E+00 0. -1.
        -13    1    4    4    0    0 -0.84162719395E+01  0.24011689173E+01 -0.57670753300E+02  0.58331176876E+02  0.10566000000E+00 0.  1.
        -14    1    4    4    0    0 -0.95638865777E-01  0.81126476489E-02 -0.14086097331E+01  0.14118760526E+01  0.00000000000E+00 0.  1.
<mgrwt>
<rscale>  0 0.83993802E+02</rscale>
<asrwt>0</asrwt>
<pdfrwt beam="1">  1        2 0.49526416E-01 0.83993802E+02</pdfrwt>
<pdfrwt beam="2">  1       -1 0.84288994E-03 0.83993802E+02</pdfrwt>
<totfact> 0.23012559E+05</totfact>
</mgrwt>
</event>
<event>
 8    1  0.2433467E-024  0.7874981E+02  0.7818608E-02  0.1332637E+00
         -1   -1    0    0    0  501 -0.00000000000E+00  0.00000000000E+00  0.10519717679E+03  0.10519717692E+03  0.50400000000E-02 0.  1.
          2   -1    0    0  501    0  0.00000000000E+00 -0.00000000000E+00 -0.14737877445E+02  0.14737877666E+02  0.25500000000E-02 0. -1.
         24    2    1    2    0    0 -0.88817841970E-15 -0.35527136788E-14  0.90459299350E+02  0.11993505458E+03  0.78749809388E+02 0.  0.
         66    2    3    3    0    0 -0.51358956181E+01 -0.18943822353E+02 -0.66823645628E+01  0.20830262261E+02  0.20000001462E+01 0.  0.
        -13    1    3    3    0    0  0.51358956181E+01  0.18943822353E+02  0.97141663912E+02  0.99104792320E+02  0.10566000000E+00 0.  1.
         13    1    4    4    0    0 -0.65725014872E+00 -0.13066523764E+01 -0.42244196967E+00  0.15260863161E+01  0.10566000000E+00 0. -1.
        -13    1    4    4    0    0 -0.69022721777E+00 -0.42687905179E+01 -0.20418538206E+01  0.47832329191E+01  0.10566000000E+00 0.  1.
        -14    1    4    4    0    0 -0.37884182516E+01 -0.13368379458E+02 -0.42180687725E+01  0.14520943026E+02  0.00000000000E+00 0.  1.
<mgrwt>
<rscale>  0 0.78749809E+02</rscale>
<asrwt>0</asrwt>
<pdfrwt beam="1">  1        2 0.22673657E-02 0.78749809E+02</pdfrwt>
<pdfrwt beam="2">  1       -1 0.16184182E-01 0.78749809E+02</pdfrwt>
<totfact> 0.12194389E+05</totfact>
</mgrwt>
</event>
<event>
 8    1  0.2433467E-024  0.8444041E+02  0.7818608E-02  0.1316902E+00
         -1   -1    0    0    0  501 -0.00000000000E+00  0.00000000000E+00  0.15685282452E+01  0.15685363425E+01  0.50400000000E-02 0.  1.
          2   -1    0    0  501    0  0.00000000000E+00 -0.00000000000E+00 -0.11364417070E+04  0.11364417070E+04  0.25500000000E-02 0. -1.
         24    2    1    2    0    0 -0.17763568394E-14  0.35527136788E-14 -0.11348731788E+04  0.11380102434E+04  0.84440405625E+02 0.  0.
         66    2    3    3    0    0 -0.12309772875E+02  0.16946093073E+02 -0.10614348050E+04  0.10616433232E+04  0.19999992612E+01 0.  0.
        -13    1    3    3    0    0  0.12309772875E+02 -0.16946093073E+02 -0.73438373835E+02  0.76366920157E+02  0.10566000000E+00 0.  1.
         13    1    4    4    0    0 -0.25867931553E+01  0.43053963043E+01 -0.23415382191E+03  0.23420770998E+03  0.10566000000E+00 0. -1.
        -13    1    4    4    0    0 -0.70895652128E+01  0.94858055398E+01 -0.63976823934E+03  0.63987784277E+03  0.10566000000E+00 0.  1.
        -14    1    4    4    0    0 -0.26334145066E+01  0.31548912289E+01 -0.18751274371E+03  0.18755777047E+03  0.00000000000E+00 0.  1.
<mgrwt>
<rscale>  0 0.84440406E+02</rscale>
<asrwt>0</asrwt>
<pdfrwt beam="1">  1        2 0.17483653E+00 0.84440406E+02</pdfrwt>
<pdfrwt beam="2">  1       -1 0.24131357E-03 0.84440406E+02</pdfrwt>
<totfact> 0.30581601E+05</totfact>
</mgrwt>
</event>
<event>
 8    1  0.2433467E-024  0.7612198E+02  0.7818608E-02  0.1340431E+00
         -1   -1    0    0    0  501 -0.00000000000E+00  0.00000000000E+00  0.84851649654E+01  0.84851664623E+01  0.50400000000E-02 0.  1.
          2   -1    0    0  501    0  0.00000000000E+00 -0.00000000000E+00 -0.17072606743E+03  0.17072606745E+03  0.25500000000E-02 0. -1.
         24    2    1    2    0    0  0.00000000000E+00  0.35527136788E-14 -0.16224090247E+03  0.17921123392E+03  0.76121980582E+02 0.  0.
         66    2    3    3    0    0 -0.22629570233E+02  0.29374215728E+02 -0.10111012303E+03  0.10771350418E+03  0.20000012572E+01 0.  0.
        -13    1    3    3    0    0  0.22629570233E+02 -0.29374215728E+02 -0.61130779439E+02  0.71497729736E+02  0.10566000000E+00 0.  1.
         13    1    4    4    0    0 -0.11590656182E+02  0.14293728965E+02 -0.49644448553E+02  0.52945598822E+02  0.10566000000E+00 0.  1.
        -13    1    4    4    0    0 -0.74285547547E+01  0.10947016861E+02 -0.35480817389E+02  0.37867138399E+02  0.10566000000E+00 0. -1.
        -14    1    4    4    0    0 -0.36103592955E+01  0.41334699015E+01 -0.15984857089E+02  0.16900766959E+02  0.00000000000E+00 0.  1.
<mgrwt>
<rscale>  0 0.76121981E+02</rscale>
<asrwt>0</asrwt>
<pdfrwt beam="1">  1        2 0.26265546E-01 0.76121981E+02</pdfrwt>
<pdfrwt beam="2">  1       -1 0.13054102E-02 0.76121981E+02</pdfrwt>
<totfact> 0.23827928E+05</totfact>
</mgrwt>
</event>
<event>
 8    1  0.2433467E-024  0.7639553E+02  0.7818608E-02  0.1339603E+00
         -1   -1    0    0    0  501 -0.00000000000E+00  0.00000000000E+00  0.16246724840E+01  0.16246803014E+01  0.50400000000E-02 0.  1.
          2   -1    0    0  501    0  0.00000000000E+00 -0.00000000000E+00 -0.89806754565E+03  0.89806754565E+03  0.25500000000E-02 0. -1.
         24    2    1    2    0    0 -0.35527136788E-14  0.00000000000E+00 -0.89644287316E+03  0.89969222595E+03  0.76395527315E+02 0.  0.
         66    2    3    3    0    0 -0.21051770208E+02 -0.21697136074E+02 -0.72298491717E+03  0.72361946711E+03  0.19999979220E+01 0.  0.
        -13    1    3    3    0    0  0.21051770208E+02  0.21697136074E+02 -0.17345795600E+03  0.17607275884E+03  0.10566000000E+00 0.  1.
         13    1    4    4    0    0 -0.10948294133E+02 -0.11724604657E+02 -0.37137068003E+03  0.37171699537E+03  0.10566000000E+00 0. -1.
        -13    1    4    4    0    0 -0.56876057375E+00 -0.72300681515E+00 -0.29234159418E+02  0.29248819948E+02  0.10566000000E+00 0.  1.
        -14    1    4    4    0    0 -0.95347155013E+01 -0.92495246018E+01 -0.32238007772E+03  0.32265365179E+03  0.00000000000E+00 0.  1.
<mgrwt>
<rscale>  0 0.76395527E+02</rscale>
<asrwt>0</asrwt>
<pdfrwt beam="1">  1        2 0.13816384E+00 0.76395527E+02</pdfrwt>
<pdfrwt beam="2">  1       -1 0.24995093E-03 0.76395527E+02</pdfrwt>
<totfact> 0.39370297E+05</totfact>
</mgrwt>
</event>
<event>
 8    1  0.2433467E-024  0.8245820E+02  0.7818608E-02  0.1322217E+00
          2   -1    0    0  501    0  0.00000000000E+00  0.00000000000E+00  0.30935662912E+03  0.30935662914E+03  0.25500000000E-02 0. -1.
         -1   -1    0    0    0  501 -0.00000000000E+00 -0.00000000000E+00 -0.54947537486E+01  0.54947560600E+01  0.50400000000E-02 0.  1.
         24    2    1    2    0    0  0.00000000000E+00  0.00000000000E+00  0.30386187538E+03  0.31485138520E+03  0.82458204275E+02 0.  0.
         66    2    3    3    0    0  0.29856792413E+02  0.25856803131E+02  0.10719241138E+03  0.11425504537E+03  0.20000030588E+01 0.  0.
        -13    1    3    3    0    0 -0.29856792413E+02 -0.25856803131E+02  0.19666946399E+03  0.20059633983E+03  0.10566000000E+00 0.  1.
         13    1    4    4    0    0  0.22756382717E+02  0.20196751828E+02  0.81280546937E+02  0.86788825393E+02  0.10566000000E+00 0. -1.
        -13    1    4    4    0    0  0.34985650312E+00  0.29262902098E+00  0.17398247321E+01  0.18017173615E+01  0.10566000000E+00 0. -1.
        -14    1    4    4    0    0  0.67505531931E+01  0.53674222816E+01  0.24172039713E+02  0.25664502611E+02  0.00000000000E+00 0.  1.
<mgrwt>
<rscale>  0 0.82458204E+02</rscale>
<asrwt>0</asrwt>
<pdfrwt beam="1">  1        2 0.47593342E-01 0.82458204E+02</pdfrwt>
<pdfrwt beam="2">  1       -1 0.84534666E-03 0.82458204E+02</pdfrwt>
<totfact> 0.23810832E+05</totfact>
</mgrwt>
</event>
<event>
 8    1  0.2433467E-024  0.7903026E+02  0.7818608E-02  0.1331826E+00
          2   -1    0    0  501    0  0.00000000000E+00  0.00000000000E+00  0.40896966610E+03  0.40896966611E+03  0.25500000000E-02 0. -1.
         -1   -1    0    0    0  501 -0.00000000000E+00 -0.00000000000E+00 -0.38179967138E+01  0.38180000404E+01  0.50400000000E-02 0.  1.
         24    2    1    2    0    0  0.00000000000E+00  0.00000000000E+00  0.40515166939E+03  0.41278766615E+03  0.79030260773E+02 0.  0.
         66    2    3    3    0    0  0.22623961045E+02 -0.12971093197E+02  0.35759172671E+03  0.35854697862E+03  0.19999987015E+01 0.  0.
        -13    1    3    3    0    0 -0.22623961045E+02  0.12971093197E+02  0.47559942680E+02  0.54240687531E+02  0.10566000000E+00 0.  1.
         13    1    4    4    0    0  0.11701516709E+02 -0.69830170380E+01  0.17946416138E+03  0.17998078899E+03  0.10566000000E+00 0. -1.
        -13    1    4    4    0    0  0.26832225529E+01 -0.16491785175E+01  0.51942669050E+02  0.52038173537E+02  0.10566000000E+00 0.  1.
        -14    1    4    4    0    0  0.82392217830E+01 -0.43388976413E+01  0.12618489628E+03  0.12652801610E+03  0.00000000000E+00 0.  1.
<mgrwt>
<rscale>  0 0.79030261E+02</rscale>
<asrwt>0</asrwt>
<pdfrwt beam="1">  1        2 0.62918439E-01 0.79030261E+02</pdfrwt>
<pdfrwt beam="2">  1       -1 0.58738410E-03 0.79030261E+02</pdfrwt>
<totfact> 0.29393680E+05</totfact>
</mgrwt>
</event>
<event>
 8    1  0.2433467E-024  0.8007993E+02  0.7818608E-02  0.1328825E+00
         -1   -1    0    0    0  501 -0.00000000000E+00  0.00000000000E+00  0.56982715248E+01  0.56982737536E+01  0.50400000000E-02 0.  1.
          2   -1    0    0  501    0  0.00000000000E+00 -0.00000000000E+00 -0.28134823526E+03  0.28134823528E+03  0.25500000000E-02 0. -1.
         24    2    1    2    0    0  0.00000000000E+00  0.71054273576E-14 -0.27564996374E+03  0.28704650903E+03  0.80079934043E+02 0.  0.
         66    2    3    3    0    0 -0.22708663540E+02 -0.32873205542E+02 -0.14581528646E+03  0.15120326985E+03  0.20000014019E+01 0.  0.
        -13    1    3    3    0    0  0.22708663540E+02  0.32873205542E+02 -0.12983467728E+03  0.13584323918E+03  0.10566000000E+00 0.  1.
         13    1    4    4    0    0 -0.12577729416E+02 -0.19088471593E+02 -0.82205349048E+02  0.85324671702E+02  0.10566000000E+00 0. -1.
        -13    1    4    4    0    0 -0.69002536923E+01 -0.99747082395E+01 -0.43780692627E+02  0.45429819683E+02  0.10566000000E+00 0.  1.
        -14    1    4    4    0    0 -0.32306804316E+01 -0.38100257098E+01 -0.19829244780E+02  0.20448778460E+02  0.00000000000E+00 0.  1.
<mgrwt>
<rscale>  0 0.80079934E+02</rscale>
<asrwt>0</asrwt>
<pdfrwt beam="1">  1        2 0.43284333E-01 0.80079934E+02</pdfrwt>
<pdfrwt beam="2">  1       -1 0.87665755E-03 0.80079934E+02</pdfrwt>
<totfact> 0.24843295E+05</totfact>
</mgrwt>
</event>
<event>
 8    1  0.8279792E-024  0.8054511E+02  0.7818608E-02  0.1327512E+00
         -1   -1    0    0    0  501 -0.00000000000E+00  0.00000000000E+00  0.49600345970E+00  0.49602906532E+00  0.50400000000E-02 0.  1.
          2   -1    0    0  501    0  0.00000000000E+00 -0.00000000000E+00 -0.32698094408E+04  0.32698094408E+04  0.25500000000E-02 0. -1.
         24    2    1    2    0    0  0.00000000000E+00  0.00000000000E+00 -0.32693134373E+04  0.32703054698E+04  0.80545109495E+02 0.  0.
         66    2    3    3    0    0  0.11638637641E+01 -0.11216659794E+02 -0.32043485566E+04  0.32043690237E+04  0.20000008745E+01 0.  0.
        -13    1    3    3    0    0 -0.11638637641E+01  0.11216659794E+02 -0.64964880749E+02  0.65936446147E+02  0.10566000000E+00 0.  1.
         13    1    4    4    0    0  0.76595606424E+00 -0.79732173614E+01 -0.21266948525E+04  0.21267099392E+04  0.10566000000E+00 0. -1.
        -13    1    4    4    0    0  0.33622504294E+00 -0.36313744988E+00 -0.20509153062E+03  0.20509215493E+03  0.10566000000E+00 0.  1.
        -14    1    4    4    0    0  0.61682656923E-01 -0.28803049832E+01 -0.87256217346E+03  0.87256692954E+03  0.00000000000E+00 0.  1.
<mgrwt>
<rscale>  0 0.80545109E+02</rscale>
<asrwt>0</asrwt>
<pdfrwt beam="1">  1        2 0.50303035E+00 0.80545109E+02</pdfrwt>
<pdfrwt beam="2">  1       -1 0.76312813E-04 0.80545109E+02</pdfrwt>
<totfact> 0.11102687E+05</totfact>
</mgrwt>
</event>
<event>
 8    1  0.2433467E-024  0.8110328E+02  0.7818608E-02  0.1325949E+00
         -1   -1    0    0    0  501 -0.00000000000E+00  0.00000000000E+00  0.38178878151E+01  0.38178911417E+01  0.50400000000E-02 0.  1.
          2   -1    0    0  501    0  0.00000000000E+00 -0.00000000000E+00 -0.43071845161E+03  0.43071845161E+03  0.25500000000E-02 0. -1.
         24    2    1    2    0    0  0.00000000000E+00 -0.88817841970E-15 -0.42690056379E+03  0.43453634275E+03  0.81103278664E+02 0.  0.
         66    2    3    3    0    0  0.21422842650E+02 -0.68360042468E+01 -0.39422322153E+03  0.39486911443E+03  0.20000003151E+01 0.  0.
        -13    1    3    3    0    0 -0.21422842650E+02  0.68360042468E+01 -0.32677342265E+02  0.39667228323E+02  0.10566000000E+00 0.  1.
         13    1    4    4    0    0  0.25741277654E+01 -0.10249731866E+01 -0.43450160274E+02  0.43538538051E+02  0.10566000000E+00 0. -1.
        -13    1    4    4    0    0  0.68688340953E+01 -0.28881623009E+01 -0.13018172369E+03  0.13039484158E+03  0.10566000000E+00 0.  1.
        -14    1    4    4    0    0  0.11979880789E+02 -0.29228687592E+01 -0.22059133756E+03  0.22093573480E+03  0.00000000000E+00 0.  1.
<mgrwt>
<rscale>  0 0.81103279E+02</rscale>
<asrwt>0</asrwt>
<pdfrwt beam="1">  1        2 0.66264339E-01 0.81103279E+02</pdfrwt>
<pdfrwt beam="2">  1       -1 0.58736795E-03 0.81103279E+02</pdfrwt>
<totfact> 0.27966904E+05</totfact>
</mgrwt>
</event>
<event>
 8    1  0.2433467E-024  0.8030190E+02  0.7818608E-02  0.1328197E+00
         -1   -1    0    0    0  501 -0.00000000000E+00  0.00000000000E+00  0.84769748426E+00  0.84771246683E+00  0.50400000000E-02 0.  1.
          2   -1    0    0  501    0  0.00000000000E+00 -0.00000000000E+00 -0.19017217179E+04  0.19017217179E+04  0.25500000000E-02 0. -1.
         24    2    1    2    0    0  0.00000000000E+00  0.00000000000E+00 -0.19008740204E+04  0.19025694304E+04  0.80301904594E+02 0.  0.
         66    2    3    3    0    0  0.47200808108E+01  0.11557143463E+02 -0.18545366657E+04  0.18545797614E+04  0.19999996141E+01 0.  0.
        -13    1    3    3    0    0 -0.47200808108E+01 -0.11557143463E+02 -0.46337354715E+02  0.47989669034E+02  0.10566000000E+00 0.  1.
         13    1    4    4    0    0  0.22804517527E+01  0.59609030510E+01 -0.10209598222E+04  0.10209797757E+04  0.10566000000E+00 0. -1.
        -13    1    4    4    0    0  0.22028747775E+01  0.51698262100E+01 -0.71289278254E+03  0.71291493905E+03  0.10566000000E+00 0.  1.
        -14    1    4    4    0    0  0.23675428069E+00  0.42641420245E+00 -0.12068406102E+03  0.12068504657E+03  0.00000000000E+00 0.  1.
<mgrwt>
<rscale>  0 0.80301905E+02</rscale>
<asrwt>0</asrwt>
<pdfrwt beam="1">  1        2 0.29256916E+00 0.80301905E+02</pdfrwt>
<pdfrwt beam="2">  1       -1 0.13041767E-03 0.80301905E+02</pdfrwt>
<totfact> 0.28717860E+05</totfact>
</mgrwt>
</event>
<event>
 8    1  0.2433467E-024  0.8074631E+02  0.7818608E-02  0.1326947E+00
         -1   -1    0    0    0  501 -0.00000000000E+00  0.00000000000E+00  0.11077755208E+03  0.11077755220E+03  0.50400000000E-02 0.  1.
          2   -1    0    0  501    0  0.00000000000E+00 -0.00000000000E+00 -0.14714097326E+02  0.14714097546E+02  0.25500000000E-02 0. -1.
         24    2    1    2    0    0 -0.71054273576E-14  0.00000000000E+00  0.96063454758E+02  0.12549164974E+03  0.80746311467E+02 0.  0.
         66    2    3    3    0    0 -0.39774108879E+02 -0.27871262527E+01  0.38450636694E+02  0.55427423643E+02  0.20000049188E+01 0.  0.
        -13    1    3    3    0    0  0.39774108879E+02  0.27871262527E+01  0.57612818065E+02  0.70064226102E+02  0.10566000000E+00 0.  1.
         13    1    4    4    0    0 -0.71271417813E+01 -0.43954944334E+00  0.77284746357E+01  0.10522824617E+02  0.10566000000E+00 0. -1.
        -13    1    4    4    0    0 -0.13134593925E+02 -0.46663471139E+00  0.12676296936E+02  0.18260201904E+02  0.10566000000E+00 0.  1.
         14    1    4    4    0    0 -0.19512373173E+02 -0.18809420980E+01  0.18045865122E+02  0.26644397123E+02  0.00000000000E+00 0. -1.
<mgrwt>
<rscale>  0 0.80746311E+02</rscale>
<asrwt>0</asrwt>
<pdfrwt beam="1">  1        2 0.22637074E-02 0.80746311E+02</pdfrwt>
<pdfrwt beam="2">  1       -1 0.17042700E-01 0.80746311E+02</pdfrwt>
<totfact> 0.11325220E+05</totfact>
</mgrwt>
</event>
<event>
 8    1  0.2433467E-024  0.7961003E+02  0.7818608E-02  0.1330162E+00
         -1   -1    0    0    0  501 -0.00000000000E+00  0.00000000000E+00  0.11374496729E+01  0.11374608389E+01  0.50400000000E-02 0.  1.
          2   -1    0    0  501    0  0.00000000000E+00 -0.00000000000E+00 -0.13929682788E+04  0.13929682788E+04  0.25500000000E-02 0. -1.
         24    2    1    2    0    0  0.00000000000E+00  0.00000000000E+00 -0.13918308291E+04  0.13941057397E+04  0.79610026956E+02 0.  0.
         66    2    3    3    0    0  0.13044208791E+02 -0.18372710446E+02 -0.12704393028E+04  0.12706406769E+04  0.20000010523E+01 0.  0.
        -13    1    3    3    0    0 -0.13044208791E+02  0.18372710446E+02 -0.12139152638E+03  0.12346506272E+03  0.10566000000E+00 0.  1.
         13    1    4    4    0    0  0.29666011299E+01 -0.33814458755E+01 -0.25343154284E+03  0.25347148354E+03  0.10566000000E+00 0. -1.
        -13    1    4    4    0    0  0.40100784038E+00 -0.24783559630E+00 -0.30220981791E+02  0.30224842997E+02  0.10566000000E+00 0.  1.
         14    1    4    4    0    0  0.96765998209E+01 -0.14743428975E+02 -0.98678677813E+03  0.98694435040E+03  0.00000000000E+00 0. -1.
<mgrwt>
<rscale>  0 0.79610027E+02</rscale>
<asrwt>0</asrwt>
<pdfrwt beam="1">  1        2 0.21430145E+00 0.79610027E+02</pdfrwt>
<pdfrwt beam="2">  1       -1 0.17499423E-03 0.79610027E+02</pdfrwt>
<totfact> 0.34496778E+05</totfact>
</mgrwt>
</event>
<event>
 8    1  0.2433467E-024  0.8005250E+02  0.7818608E-02  0.1328903E+00
          2   -1    0    0  501    0  0.00000000000E+00  0.00000000000E+00  0.12335082350E+04  0.12335082350E+04  0.25500000000E-02 0. -1.
         -1   -1    0    0    0  501 -0.00000000000E+00 -0.00000000000E+00 -0.12988115784E+01  0.12988213572E+01  0.50400000000E-02 0.  1.
         24    2    1    2    0    0  0.88817841970E-15  0.17763568394E-14  0.12322094234E+04  0.12348070563E+04  0.80052503189E+02 0.  0.
         66    2    3    3    0    0 -0.79793980817E+01 -0.13194369452E+02  0.11858206413E+04  0.11859225757E+04  0.20000072718E+01 0.  0.
        -13    1    3    3    0    0  0.79793980817E+01  0.13194369452E+02  0.46388782082E+02  0.48884480626E+02  0.10566000000E+00 0.  1.
         13    1    4    4    0    0 -0.54436473286E+01 -0.86397073437E+01  0.83317019802E+03  0.83323278132E+03  0.10566000000E+00 0. -1.
        -13    1    4    4    0    0 -0.35473980887E+00 -0.11493984123E+01  0.69768262208E+02  0.69778711170E+02  0.10566000000E+00 0.  1.
         14    1    4    4    0    0 -0.21810109443E+01 -0.34052636961E+01  0.28288218108E+03  0.28291108321E+03  0.00000000000E+00 0. -1.
<mgrwt>
<rscale>  0 0.80052503E+02</rscale>
<asrwt>0</asrwt>
<pdfrwt beam="1">  1        2 0.18977042E+00 0.80052503E+02</pdfrwt>
<pdfrwt beam="2">  1       -1 0.19981800E-03 0.80052503E+02</pdfrwt>
<totfact> 0.34859277E+05</totfact>
</mgrwt>
</event>
<event>
 8    1  0.2433467E-024  0.8172516E+02  0.7818608E-02  0.1324226E+00
         -1   -1    0    0    0  501 -0.00000000000E+00  0.00000000000E+00  0.21943769416E+01  0.21943827295E+01  0.50400000000E-02 0.  1.
          2   -1    0    0  501    0  0.00000000000E+00 -0.00000000000E+00 -0.76092136578E+03  0.76092136579E+03  0.25500000000E-02 0. -1.
         24    2    1    2    0    0  0.00000000000E+00 -0.17763568394E-14 -0.75872698884E+03  0.76311574852E+03  0.81725161597E+02 0.  0.
         66    2    3    3    0    0  0.14053384443E+02 -0.15739959430E+02 -0.70607213433E+03  0.70639019162E+03  0.20000021305E+01 0.  0.
        -13    1    3    3    0    0 -0.14053384443E+02  0.15739959430E+02 -0.52654854515E+02  0.56725556896E+02  0.10566000000E+00 0.  1.
         13    1    4    4    0    0  0.96060741087E+00 -0.68668451542E+00 -0.37198881643E+02  0.37217768092E+02  0.10566000000E+00 0. -1.
        -13    1    4    4    0    0  0.10723476218E+02 -0.11792751030E+02 -0.54957976142E+03  0.54981086498E+03  0.10566000000E+00 0.  1.
         14    1    4    4    0    0  0.23693008136E+01 -0.32605238839E+01 -0.11929349126E+03  0.11936155855E+03  0.00000000000E+00 0. -1.
<mgrwt>
<rscale>  0 0.81725162E+02</rscale>
<asrwt>0</asrwt>
<pdfrwt beam="1">  1        2 0.11706461E+00 0.81725162E+02</pdfrwt>
<pdfrwt beam="2">  1       -1 0.33759751E-03 0.81725162E+02</pdfrwt>
<totfact> 0.32212140E+05</totfact>
</mgrwt>
</event>
<event>
 8    1  0.2433467E-024  0.8158557E+02  0.7818608E-02  0.1324611E+00
          2   -1    0    0  501    0  0.00000000000E+00  0.00000000000E+00  0.22082496799E+03  0.22082496800E+03  0.25500000000E-02 0. -1.
         -1   -1    0    0    0  501 -0.00000000000E+00 -0.00000000000E+00 -0.75356105895E+01  0.75356122749E+01  0.50400000000E-02 0.  1.
         24    2    1    2    0    0 -0.17763568394E-14  0.00000000000E+00  0.21328935740E+03  0.22836058028E+03  0.81585566403E+02 0.  0.
         66    2    3    3    0    0 -0.12181591462E+02 -0.35832194235E+02  0.14913112886E+03  0.15387147525E+03  0.19999967536E+01 0.  0.
        -13    1    3    3    0    0  0.12181591462E+02  0.35832194235E+02  0.64158228539E+02  0.74489105026E+02  0.10566000000E+00 0.  1.
         13    1    4    4    0    0 -0.23380683698E+01 -0.87454858355E+01  0.37627464965E+02  0.38701257989E+02  0.10566000000E+00 0. -1.
        -13    1    4    4    0    0 -0.25994833327E+01 -0.76064483782E+01  0.30024207866E+02  0.31081820934E+02  0.10566000000E+00 0.  1.
         14    1    4    4    0    0 -0.72440397594E+01 -0.19480260021E+02  0.81479456029E+02  0.84088396330E+02  0.00000000000E+00 0. -1.
<mgrwt>
<rscale>  0 0.81585566E+02</rscale>
<asrwt>0</asrwt>
<pdfrwt beam="1">  1        2 0.33973068E-01 0.81585566E+02</pdfrwt>
<pdfrwt beam="2">  1       -1 0.11593250E-02 0.81585566E+02</pdfrwt>
<totfact> 0.21685585E+05</totfact>
</mgrwt>
</event>
<event>
 8    1  0.2433467E-024  0.8222915E+02  0.7818608E-02  0.1322842E+00
          2   -1    0    0  501    0  0.00000000000E+00  0.00000000000E+00  0.88069928932E+01  0.88069932623E+01  0.25500000000E-02 0. -1.
         -1   -1    0    0    0  501 -0.00000000000E+00 -0.00000000000E+00 -0.19193931927E+03  0.19193931934E+03  0.50400000000E-02 0.  1.
         24    2    1    2    0    0  0.00000000000E+00  0.00000000000E+00 -0.18313232638E+03  0.20074631260E+03  0.82229149685E+02 0.  0.
         66    2    3    3    0    0 -0.70572703622E+01 -0.39949401621E+02 -0.10756238092E+03  0.11497576069E+03  0.20000004038E+01 0.  0.
        -13    1    3    3    0    0  0.70572703622E+01  0.39949401621E+02 -0.75569945464E+02  0.85770551918E+02  0.10566000000E+00 0.  1.
         13    1    4    4    0    0 -0.53780182357E+01 -0.29704567950E+02 -0.81305845054E+02  0.86729095701E+02  0.10566000000E+00 0. -1.
        -13    1    4    4    0    0 -0.26713360476E+00 -0.38381830360E+01 -0.10153896913E+02  0.10858903993E+02  0.10566000000E+00 0.  1.
         14    1    4    4    0    0 -0.14121185218E+01 -0.64066506350E+01 -0.16102638952E+02  0.17387760991E+02  0.00000000000E+00 0. -1.
<mgrwt>
<rscale>  0 0.82229150E+02</rscale>
<asrwt>0</asrwt>
<pdfrwt beam="1">  1        2 0.13549222E-02 0.82229150E+02</pdfrwt>
<pdfrwt beam="2">  1       -1 0.29529123E-01 0.82229150E+02</pdfrwt>
<totfact> 0.94025264E+04</totfact>
</mgrwt>
</event>
<event>
 8    1  0.2433467E-024  0.7982705E+02  0.7818608E-02  0.1329543E+00
         -1   -1    0    0    0  501 -0.00000000000E+00  0.00000000000E+00  0.15608554222E+02  0.15608555036E+02  0.50400000000E-02 0.  1.
          2   -1    0    0  501    0  0.00000000000E+00 -0.00000000000E+00 -0.10206514850E+03  0.10206514853E+03  0.25500000000E-02 0. -1.
         24    2    1    2    0    0 -0.55511151231E-16 -0.71054273576E-14 -0.86456594273E+02  0.11767370356E+03  0.79827049407E+02 0.  0.
         66    2    3    3    0    0  0.36778476792E+00  0.37757900810E+02 -0.62207260577E+02  0.72797922924E+02  0.19999935757E+01 0.  0.
        -13    1    3    3    0    0 -0.36778476792E+00 -0.37757900810E+02 -0.24249333696E+02  0.44875780639E+02  0.10566000000E+00 0.  1.
         13    1    4    4    0    0  0.19351461698E+00  0.19173157918E+02 -0.32554281008E+02  0.37781474408E+02  0.10566000000E+00 0. -1.
        -13    1    4    4    0    0 -0.88340456924E-01  0.40242655981E+00 -0.49213702911E+00  0.65047218495E+00  0.10566000000E+00 0.  1.
         14    1    4    4    0    0  0.26261060786E+00  0.18182316333E+02 -0.29160842540E+02  0.34365976331E+02  0.00000000000E+00 0. -1.
<mgrwt>
<rscale>  0 0.79827049E+02</rscale>
<asrwt>0</asrwt>
<pdfrwt beam="1">  1        2 0.15702330E-01 0.79827049E+02</pdfrwt>
<pdfrwt beam="2">  1       -1 0.24013162E-02 0.79827049E+02</pdfrwt>
<totfact> 0.17931541E+05</totfact>
</mgrwt>
</event>
<event>
 8    1  0.2433467E-024  0.7718967E+02  0.7818608E-02  0.1337221E+00
          2   -1    0    0  501    0  0.00000000000E+00  0.00000000000E+00  0.41645857518E+03  0.41645857519E+03  0.25500000000E-02 0. -1.
         -1   -1    0    0    0  501 -0.00000000000E+00 -0.00000000000E+00 -0.35767313324E+01  0.35767348834E+01  0.50400000000E-02 0.  1.
         24    2    1    2    0    0 -0.35527136788E-14  0.71054273576E-14  0.41288184385E+03  0.42003531007E+03  0.77189667234E+02 0.  0.
         66    2    3    3    0    0 -0.20888134192E+02  0.30275112454E+02  0.26972506561E+03  0.27222877807E+03  0.20000011788E+01 0.  0.
        -13    1    3    3    0    0  0.20888134192E+02 -0.30275112454E+02  0.14315677824E+03  0.14780653200E+03  0.10566000000E+00 0.  1.
         13    1    4    4    0    0 -0.29322573968E+01  0.50154878880E+01  0.44985423264E+02  0.45359152577E+02  0.10566000000E+00 0.  1.
        -13    1    4    4    0    0 -0.50561079783E+01  0.62195034374E+01  0.57674029804E+02  0.58228440892E+02  0.10566000000E+00 0. -1.
        -14    1    4    4    0    0 -0.12899768816E+02  0.19040121128E+02  0.16706561255E+03  0.16864118460E+03  0.00000000000E+00 0.  1.
<mgrwt>
<rscale>  0 0.77189667E+02</rscale>
<asrwt>0</asrwt>
<pdfrwt beam="1">  1        2 0.64070501E-01 0.77189667E+02</pdfrwt>
<pdfrwt beam="2">  1       -1 0.55026706E-03 0.77189667E+02</pdfrwt>
<totfact> 0.31451359E+05</totfact>
</mgrwt>
</event>
<event>
 8    1  0.2433467E-024  0.8052858E+02  0.7818608E-02  0.1327558E+00
          2   -1    0    0  501    0  0.00000000000E+00  0.00000000000E+00  0.32124160086E+03  0.32124160087E+03  0.25500000000E-02 0. -1.
         -1   -1    0    0    0  501 -0.00000000000E+00 -0.00000000000E+00 -0.50467081881E+01  0.50467107047E+01  0.50400000000E-02 0.  1.
         24    2    1    2    0    0 -0.35527136788E-14  0.00000000000E+00  0.31619489267E+03  0.32628831157E+03  0.80528579514E+02 0.  0.
         66    2    3    3    0    0  0.20759424714E+02 -0.32343064929E+02  0.20650852498E+03  0.21006379616E+03  0.20000003545E+01 0.  0.
        -13    1    3    3    0    0 -0.20759424714E+02  0.32343064929E+02  0.10968636769E+03  0.11622451542E+03  0.10566000000E+00 0.  1.
         13    1    4    4    0    0  0.64747465405E+01 -0.91913951877E+01  0.62220200226E+02  0.63227909727E+02  0.10566000000E+00 0. -1.
        -13    1    4    4    0    0  0.89886461900E+01 -0.15066350059E+02  0.95927814067E+02  0.97518958876E+02  0.10566000000E+00 0.  1.
        -14    1    4    4    0    0  0.52960319833E+01 -0.80853196822E+01  0.48360510690E+02  0.49316927553E+02  0.00000000000E+00 0.  1.
<mgrwt>
<rscale>  0 0.80528580E+02</rscale>
<asrwt>0</asrwt>
<pdfrwt beam="1">  1        2 0.49421801E-01 0.80528580E+02</pdfrwt>
<pdfrwt beam="2">  1       -1 0.77641658E-03 0.80528580E+02</pdfrwt>
<totfact> 0.25685651E+05</totfact>
</mgrwt>
</event>
<event>
 8    1  0.2433467E-024  0.8000295E+02  0.7818608E-02  0.1329043E+00
         -1   -1    0    0    0  501 -0.00000000000E+00  0.00000000000E+00  0.15670769853E+01  0.15670850900E+01  0.50400000000E-02 0.  1.
          2   -1    0    0  501    0  0.00000000000E+00 -0.00000000000E+00 -0.10210819407E+04  0.10210819407E+04  0.25500000000E-02 0. -1.
         24    2    1    2    0    0  0.00000000000E+00  0.00000000000E+00 -0.10195148637E+04  0.10226490258E+04  0.80002953825E+02 0.  0.
         66    2    3    3    0    0 -0.71195700648E+01 -0.83353314001E+01 -0.10014919652E+04  0.10015539538E+04  0.20000005359E+01 0.  0.
        -13    1    3    3    0    0  0.71195700648E+01  0.83353314001E+01 -0.18022898569E+02  0.21095072038E+02  0.10566000000E+00 0.  1.
         13    1    4    4    0    0 -0.80117332081E+00 -0.63383693261E+00 -0.97883275792E+02  0.97888663653E+02  0.10566000000E+00 0. -1.
        -13    1    4    4    0    0 -0.55182240855E+01 -0.62818788129E+01 -0.80120156343E+03  0.80124519918E+03  0.10566000000E+00 0.  1.
        -14    1    4    4    0    0 -0.80017265852E+00 -0.14196156546E+01 -0.10240712594E+03  0.10242009094E+03  0.00000000000E+00 0.  1.
<mgrwt>
<rscale>  0 0.80002954E+02</rscale>
<asrwt>0</asrwt>
<pdfrwt beam="1">  1        2 0.15708900E+00 0.80002954E+02</pdfrwt>
<pdfrwt beam="2">  1       -1 0.24109021E-03 0.80002954E+02</pdfrwt>
<totfact> 0.35253095E+05</totfact>
</mgrwt>
</event>
<event>
 8    1  0.2433467E-024  0.7648565E+02  0.7818608E-02  0.1339331E+00
         -1   -1    0    0    0  501 -0.00000000000E+00  0.00000000000E+00  0.40760556203E+01  0.40760587362E+01  0.50400000000E-02 0.  1.
          2   -1    0    0  501    0  0.00000000000E+00 -0.00000000000E+00 -0.35880599515E+03  0.35880599516E+03  0.25500000000E-02 0. -1.
         24    2    1    2    0    0  0.35527136788E-14  0.00000000000E+00 -0.35472993953E+03  0.36288205390E+03  0.76485652515E+02 0.  0.
         66    2    3    3    0    0  0.28843744556E+02 -0.19937733219E+02 -0.24960055782E+03  0.25205934472E+03  0.19999978857E+01 0.  0.
        -13    1    3    3    0    0 -0.28843744556E+02  0.19937733219E+02 -0.10512938172E+03  0.11082270918E+03  0.10566000000E+00 0.  1.
         13    1    4    4    0    0  0.26848581193E+02 -0.19057975464E+02 -0.23540253609E+03  0.23769395849E+03  0.10566000000E+00 0. -1.
        -13    1    4    4    0    0  0.91718476143E+00 -0.39259244785E+00 -0.64114275969E+01  0.64894471708E+01  0.10566000000E+00 0.  1.
         14    1    4    4    0    0  0.10779786017E+01 -0.48716530798E+00 -0.77865941320E+01  0.78759390602E+01  0.00000000000E+00 0. -1.
<mgrwt>
<rscale>  0 0.76485653E+02</rscale>
<asrwt>0</asrwt>
<pdfrwt beam="1">  1        2 0.55200897E-01 0.76485653E+02</pdfrwt>
<pdfrwt beam="2">  1       -1 0.62708601E-03 0.76485653E+02</pdfrwt>
<totfact> 0.30571389E+05</totfact>
</mgrwt>
</event>
<event>
 8    1  0.2433467E-024  0.8272664E+02  0.7818608E-02  0.1321487E+00
         -1   -1    0    0    0  501 -0.00000000000E+00  0.00000000000E+00  0.43326945927E+01  0.43326975241E+01  0.50400000000E-02 0.  1.
          2   -1    0    0  501    0  0.00000000000E+00 -0.00000000000E+00 -0.39488677786E+03  0.39488677786E+03  0.25500000000E-02 0. -1.
         24    2    1    2    0    0  0.35527136788E-14  0.00000000000E+00 -0.39055408326E+03  0.39921947539E+03  0.82726643687E+02 0.  0.
         66    2    3    3    0    0 -0.29840693694E+02 -0.10822484402E+02 -0.32318953292E+03  0.32475077743E+03  0.20000207638E+01 0.  0.
        -13    1    3    3    0    0  0.29840693694E+02  0.10822484402E+02 -0.67364550345E+02  0.74468697961E+02  0.10566000000E+00 0.  1.
         13    1    4    4    0    0 -0.20586985515E+02 -0.81488665267E+01 -0.22576357174E+03  0.22684670923E+03  0.10566000000E+00 0. -1.
        -13    1    4    4    0    0 -0.45801941055E+00 -0.28159454104E+00 -0.52599671182E+01  0.52884303329E+01  0.10566000000E+00 0.  1.
         14    1    4    4    0    0 -0.87956887681E+01 -0.23920233348E+01 -0.92165994057E+02  0.92615637864E+02  0.00000000000E+00 0. -1.
<mgrwt>
<rscale>  0 0.82726644E+02</rscale>
<asrwt>0</asrwt>
<pdfrwt beam="1">  1        2 0.60751784E-01 0.82726644E+02</pdfrwt>
<pdfrwt beam="2">  1       -1 0.66656894E-03 0.82726644E+02</pdfrwt>
<totfact> 0.25764835E+05</totfact>
</mgrwt>
</event>
<event>
 8    1  0.2433467E-024  0.8115065E+02  0.7818608E-02  0.1325817E+00
         -1   -1    0    0    0  501 -0.00000000000E+00  0.00000000000E+00  0.82520613810E+01  0.82520629201E+01  0.50400000000E-02 0.  1.
          2   -1    0    0  501    0  0.00000000000E+00 -0.00000000000E+00 -0.19950855706E+03  0.19950855707E+03  0.25500000000E-02 0. -1.
         24    2    1    2    0    0  0.17763568394E-14 -0.17763568394E-14 -0.19125649567E+03  0.20776061999E+03  0.81150650532E+02 0.  0.
         66    2    3    3    0    0  0.13749159598E+02 -0.10015583582E+02 -0.18992741071E+03  0.19069811915E+03  0.20000007868E+01 0.  0.
        -13    1    3    3    0    0 -0.13749159598E+02  0.10015583582E+02 -0.13290849624E+01  0.17062500843E+02  0.10566000000E+00 0.  1.
         13    1    4    4    0    0  0.10108231698E+02 -0.83009226615E+01 -0.14687016772E+03  0.14745148014E+03  0.10566000000E+00 0. -1.
        -13    1    4    4    0    0  0.36243978117E+01 -0.17259898318E+01 -0.42964046828E+02  0.43151312660E+02  0.10566000000E+00 0.  1.
         14    1    4    4    0    0  0.16530088345E-01  0.11328911463E-01 -0.93196164810E-01  0.95326350978E-01  0.00000000000E+00 0. -1.
<mgrwt>
<rscale>  0 0.81150651E+02</rscale>
<asrwt>0</asrwt>
<pdfrwt beam="1">  1        2 0.30693621E-01 0.81150651E+02</pdfrwt>
<pdfrwt beam="2">  1       -1 0.12695482E-02 0.81150651E+02</pdfrwt>
<totfact> 0.21224051E+05</totfact>
</mgrwt>
</event>
<event>
 8    1  0.2600593E-024  0.7772891E+02  0.7818608E-02  0.1335623E+00
         -1   -1    0    0    0  501 -0.00000000000E+00  0.00000000000E+00  0.12226955512E+01  0.12227059387E+01  0.50400000000E-02 0.  1.
          2   -1    0    0  501    0  0.00000000000E+00 -0.00000000000E+00 -0.12353355763E+04  0.12353355763E+04  0.25500000000E-02 0. -1.
         24    2    1    2    0    0  0.00000000000E+00  0.17763568394E-14 -0.12341128808E+04  0.12365582823E+04  0.77728906784E+02 0.  0.
         66    2    3    3    0    0  0.16541453202E+02  0.10673458895E+02 -0.11500809914E+04  0.11502512026E+04  0.19999963305E+01 0.  0.
        -13    1    3    3    0    0 -0.16541453202E+02 -0.10673458895E+02 -0.84031889399E+02  0.86307079656E+02  0.10566000000E+00 0.  1.
         13    1    4    4    0    0  0.96279826429E+01  0.60232255014E+01 -0.64798111484E+03  0.64808063823E+03  0.10566000000E+00 0. -1.
        -13    1    4    4    0    0  0.47336808418E+01  0.34140595805E+01 -0.38149524901E+03  0.38153990580E+03  0.10566000000E+00 0.  1.
        -14    1    4    4    0    0  0.21797897171E+01  0.12361738131E+01 -0.12060462753E+03  0.12063065859E+03  0.00000000000E+00 0.  1.
<mgrwt>
<rscale>  0 0.77728907E+02</rscale>
<asrwt>0</asrwt>
<pdfrwt beam="1">  1        2 0.19005063E+00 0.77728907E+02</pdfrwt>
<pdfrwt beam="2">  1       -1 0.18810880E-03 0.77728907E+02</pdfrwt>
<totfact> 0.37618027E+05</totfact>
</mgrwt>
</event>
<event>
 8    1  0.2433467E-024  0.7958196E+02  0.7818608E-02  0.1330242E+00
         -1   -1    0    0    0  501 -0.00000000000E+00  0.00000000000E+00  0.47462969502E+01  0.47462996262E+01  0.50400000000E-02 0.  1.
          2   -1    0    0  501    0  0.00000000000E+00 -0.00000000000E+00 -0.33359092567E+03  0.33359092568E+03  0.25500000000E-02 0. -1.
         24    2    1    2    0    0  0.44408920985E-15  0.00000000000E+00 -0.32884462872E+03  0.33833722531E+03  0.79581958947E+02 0.  0.
         66    2    3    3    0    0  0.22595174853E+01  0.39490518737E+02 -0.14714661454E+03  0.15238350523E+03  0.20000015034E+01 0.  0.
        -13    1    3    3    0    0 -0.22595174853E+01 -0.39490518737E+02 -0.18169801418E+03  0.18595372007E+03  0.10566000000E+00 0.  1.
         13    1    4    4    0    0 -0.25868200115E+00  0.26058083514E+01 -0.91782031572E+01  0.95450369707E+01  0.10566000000E+00 0. -1.
        -13    1    4    4    0    0  0.89949189568E+00  0.12015447196E+02 -0.43507083537E+02  0.45144850636E+02  0.10566000000E+00 0.  1.
         14    1    4    4    0    0  0.16187075908E+01  0.24869263190E+02 -0.94461327847E+02  0.97693617624E+02  0.00000000000E+00 0. -1.
<mgrwt>
<rscale>  0 0.79581959E+02</rscale>
<asrwt>0</asrwt>
<pdfrwt beam="1">  1        2 0.51321663E-01 0.79581959E+02</pdfrwt>
<pdfrwt beam="2">  1       -1 0.73020000E-03 0.79581959E+02</pdfrwt>
<totfact> 0.26855752E+05</totfact>
</mgrwt>
</event>
<event>
 8    1  0.2433467E-024  0.8135327E+02  0.7818608E-02  0.1325254E+00
          2   -1    0    0  501    0  0.00000000000E+00  0.00000000000E+00  0.22073847541E+03  0.22073847542E+03  0.25500000000E-02 0. -1.
         -1   -1    0    0    0  501 -0.00000000000E+00 -0.00000000000E+00 -0.74956959880E+01  0.74956976824E+01  0.50400000000E-02 0.  1.
         24    2    1    2    0    0  0.00000000000E+00 -0.17763568394E-14  0.21324277942E+03  0.22823417311E+03  0.81353271589E+02 0.  0.
         66    2    3    3    0    0 -0.39619347829E+02  0.83308518594E+01  0.11698898631E+03  0.12381243367E+03  0.19999994213E+01 0.  0.
        -13    1    3    3    0    0  0.39619347829E+02 -0.83308518594E+01  0.96253793111E+02  0.10442173944E+03  0.10566000000E+00 0.  1.
         13    1    4    4    0    0 -0.16021135933E+02  0.31301594697E+01  0.48606985130E+02  0.51274992563E+02  0.10566000000E+00 0. -1.
        -13    1    4    4    0    0 -0.16779958746E+02  0.39668229984E+01  0.50297274669E+02  0.53170759853E+02  0.10566000000E+00 0.  1.
        -14    1    4    4    0    0 -0.68182531506E+01  0.12338693913E+01  0.18084726512E+02  0.19366681252E+02  0.00000000000E+00 0.  1.
<mgrwt>
<rscale>  0 0.81353272E+02</rscale>
<asrwt>0</asrwt>
<pdfrwt beam="1">  1        2 0.33959769E-01 0.81353272E+02</pdfrwt>
<pdfrwt beam="2">  1       -1 0.11531840E-02 0.81353272E+02</pdfrwt>
<totfact> 0.21846358E+05</totfact>
</mgrwt>
</event>
<event>
 8    1  0.2433467E-024  0.8080871E+02  0.7818608E-02  0.1326772E+00
          2   -1    0    0  501    0  0.00000000000E+00  0.00000000000E+00  0.34304894230E+03  0.34304894231E+03  0.25500000000E-02 0. -1.
         -1   -1    0    0    0  501 -0.00000000000E+00 -0.00000000000E+00 -0.47588296709E+01  0.47588323398E+01  0.50400000000E-02 0.  1.
         24    2    1    2    0    0  0.00000000000E+00  0.00000000000E+00  0.33829011263E+03  0.34780777465E+03  0.80808711189E+02 0.  0.
         66    2    3    3    0    0  0.39763816315E+02 -0.66176732712E+01  0.15910652317E+03  0.16414579006E+03  0.19999980160E+01 0.  0.
        -13    1    3    3    0    0 -0.39763816315E+02  0.66176732712E+01  0.17918358946E+03  0.18366198459E+03  0.10566000000E+00 0.  1.
         13    1    4    4    0    0  0.18058763960E+02 -0.24123499991E+01  0.72464688518E+02  0.74720014951E+02  0.10566000000E+00 0. -1.
        -13    1    4    4    0    0  0.14342216327E+02 -0.23815443315E+01  0.55341869469E+02  0.57219792056E+02  0.10566000000E+00 0.  1.
        -14    1    4    4    0    0  0.73628360281E+01 -0.18237789406E+01  0.31299965183E+02  0.32205983053E+02  0.00000000000E+00 0.  1.
<mgrwt>
<rscale>  0 0.80808711E+02</rscale>
<asrwt>0</asrwt>
<pdfrwt beam="1">  1        2 0.52776761E-01 0.80808711E+02</pdfrwt>
<pdfrwt beam="2">  1       -1 0.73212784E-03 0.80808711E+02</pdfrwt>
<totfact> 0.26061479E+05</totfact>
</mgrwt>
</event>
<event>
 8    1  0.2433467E-024  0.7625408E+02  0.7818608E-02  0.1340031E+00
         -1   -1    0    0    0  501 -0.00000000000E+00  0.00000000000E+00  0.12125626526E+03  0.12125626536E+03  0.50400000000E-02 0.  1.
          2   -1    0    0  501    0  0.00000000000E+00 -0.00000000000E+00 -0.11988421562E+02  0.11988421834E+02  0.25500000000E-02 0. -1.
         24    2    1    2    0    0 -0.35527136788E-14  0.35527136788E-14  0.10926784370E+03  0.13324468720E+03  0.76254081859E+02 0.  0.
         66    2    3    3    0    0  0.31402575044E+02 -0.20991820860E+02  0.45954088442E+02  0.59519379256E+02  0.20000000326E+01 0.  0.
        -13    1    3    3    0    0 -0.31402575044E+02  0.20991820860E+02  0.63313755254E+02  0.73725307940E+02  0.10566000000E+00 0.  1.
         13    1    4    4    0    0  0.67757152905E+01 -0.41182540600E+01  0.87242527703E+01  0.11789575253E+02  0.10566000000E+00 0.  1.
        -13    1    4    4    0    0  0.12204919194E+02 -0.85580811145E+01  0.19279860688E+02  0.24370576462E+02  0.10566000000E+00 0. -1.
         14    1    4    4    0    0  0.12421940560E+02 -0.83154856859E+01  0.17949974983E+02  0.23359227542E+02  0.00000000000E+00 0. -1.
<mgrwt>
<rscale>  0 0.76254082E+02</rscale>
<asrwt>0</asrwt>
<pdfrwt beam="1">  1        2 0.18443726E-02 0.76254082E+02</pdfrwt>
<pdfrwt beam="2">  1       -1 0.18654809E-01 0.76254082E+02</pdfrwt>
<totfact> 0.12809968E+05</totfact>
</mgrwt>
</event>
<event>
 8    1  0.2433467E-024  0.8010946E+02  0.7818608E-02  0.1328741E+00
          2   -1    0    0  501    0  0.00000000000E+00  0.00000000000E+00  0.69092077599E+02  0.69092077646E+02  0.25500000000E-02 0. -1.
         -1   -1    0    0    0  501 -0.00000000000E+00 -0.00000000000E+00 -0.23220913860E+02  0.23220914407E+02  0.50400000000E-02 0.  1.
         24    2    1    2    0    0  0.88817841970E-15  0.35527136788E-14  0.45871163739E+02  0.92312992053E+02  0.80109455366E+02 0.  0.
         66    2    3    3    0    0 -0.64618225502E+01 -0.26734502703E+02  0.56464538023E+02  0.62838943667E+02  0.20000003836E+01 0.  0.
        -13    1    3    3    0    0  0.64618225502E+01  0.26734502703E+02 -0.10593374285E+02  0.29474048386E+02  0.10566000000E+00 0.  1.
         13    1    4    4    0    0 -0.25603772905E+01 -0.12009794534E+02  0.25077270098E+02  0.27922595442E+02  0.10566000000E+00 0. -1.
        -13    1    4    4    0    0 -0.26248822130E+01 -0.81492055653E+01  0.16408007582E+02  0.18507658815E+02  0.10566000000E+00 0.  1.
        -14    1    4    4    0    0 -0.12765630467E+01 -0.65755026042E+01  0.14979260344E+02  0.16408689410E+02  0.00000000000E+00 0.  1.
<mgrwt>
<rscale>  0 0.80109455E+02</rscale>
<asrwt>0</asrwt>
<pdfrwt beam="1">  1        2 0.10629550E-01 0.80109455E+02</pdfrwt>
<pdfrwt beam="2">  1       -1 0.35724484E-02 0.80109455E+02</pdfrwt>
<totfact> 0.16035745E+05</totfact>
</mgrwt>
</event>
<event>
 8    1  0.2433467E-024  0.7997202E+02  0.7818608E-02  0.1329131E+00
          2   -1    0    0  501    0  0.00000000000E+00  0.00000000000E+00  0.51023134113E+03  0.51023134113E+03  0.25500000000E-02 0. -1.
         -1   -1    0    0    0  501 -0.00000000000E+00 -0.00000000000E+00 -0.31336371537E+01  0.31336412067E+01  0.50400000000E-02 0.  1.
         24    2    1    2    0    0 -0.17763568394E-14  0.35527136788E-14  0.50709770397E+03  0.51336498234E+03  0.79972018344E+02 0.  0.
         66    2    3    3    0    0 -0.10668664323E+02  0.14930813923E+02  0.48158122858E+03  0.48193488079E+03  0.19999999143E+01 0.  0.
        -13    1    3    3    0    0  0.10668664323E+02 -0.14930813923E+02  0.25516475392E+02  0.31430101548E+02  0.10566000000E+00 0.  1.
         13    1    4    4    0    0 -0.14626801458E+01  0.17066424644E+01  0.63126538192E+02  0.63166629242E+02  0.10566000000E+00 0.  1.
        -13    1    4    4    0    0 -0.15628775905E+01  0.34198701477E+01  0.91289247642E+02  0.91366711647E+02  0.10566000000E+00 0.  1.
         14    1    4    4    0    0 -0.76431065862E+01  0.98043013110E+01  0.32716544275E+03  0.32740153990E+03  0.00000000000E+00 0. -1.
<mgrwt>
<rscale>  0 0.79972018E+02</rscale>
<asrwt>0</asrwt>
<pdfrwt beam="1">  1        2 0.78497135E-01 0.79972018E+02</pdfrwt>
<pdfrwt beam="2">  1       -1 0.48209830E-03 0.79972018E+02</pdfrwt>
<totfact> 0.30675312E+05</totfact>
</mgrwt>
</event>
<event>
 8    1  0.2433467E-024  0.7986452E+02  0.7818608E-02  0.1329436E+00
         -1   -1    0    0    0  501 -0.00000000000E+00  0.00000000000E+00  0.83004330301E+02  0.83004330454E+02  0.50400000000E-02 0.  1.
          2   -1    0    0  501    0  0.00000000000E+00 -0.00000000000E+00 -0.19210870927E+02  0.19210871096E+02  0.25500000000E-02 0. -1.
         24    2    1    2    0    0  0.35527136788E-14  0.00000000000E+00  0.63793459374E+02  0.10221520155E+03  0.79864522593E+02 0.  0.
         66    2    3    3    0    0  0.15382926561E+02 -0.36726557082E+02  0.28504923159E+02  0.49010254628E+02  0.19999974376E+01 0.  0.
        -13    1    3    3    0    0 -0.15382926561E+02  0.36726557082E+02  0.35288536215E+02  0.53204946922E+02  0.10566000000E+00 0.  1.
         13    1    4    4    0    0  0.10345755216E+02 -0.24002933615E+02  0.18785010713E+02  0.32187936632E+02  0.10566000000E+00 0. -1.
        -13    1    4    4    0    0  0.86703593110E+00 -0.31352213010E+01  0.26954202212E+01  0.42258511707E+01  0.10566000000E+00 0.  1.
        -14    1    4    4    0    0  0.41701354147E+01 -0.95884021663E+01  0.70244922243E+01  0.12596466826E+02  0.00000000000E+00 0.  1.
<mgrwt>
<rscale>  0 0.79864523E+02</rscale>
<asrwt>0</asrwt>
<pdfrwt beam="1">  1        2 0.29555186E-02 0.79864523E+02</pdfrwt>
<pdfrwt beam="2">  1       -1 0.12769897E-01 0.79864523E+02</pdfrwt>
<totfact> 0.12374885E+05</totfact>
</mgrwt>
</event>
<event>
 8    1  0.2433467E-024  0.8041997E+02  0.7818608E-02  0.1327864E+00
         -1   -1    0    0    0  501 -0.00000000000E+00  0.00000000000E+00  0.22701136850E+01  0.22701192798E+01  0.50400000000E-02 0.  1.
          2   -1    0    0  501    0  0.00000000000E+00 -0.00000000000E+00 -0.71222904113E+03  0.71222904113E+03  0.25500000000E-02 0. -1.
         24    2    1    2    0    0 -0.17763568394E-14  0.00000000000E+00 -0.70995892744E+03  0.71449916041E+03  0.80419969995E+02 0.  0.
         66    2    3    3    0    0 -0.12932438337E+02  0.75566247592E+01 -0.68649833110E+03  0.68666462640E+03  0.20000002307E+01 0.  0.
        -13    1    3    3    0    0  0.12932438337E+02 -0.75566247592E+01 -0.23460596338E+02  0.27834534012E+02  0.10566000000E+00 0.  1.
         13    1    4    4    0    0 -0.16830291391E+01  0.54369272897E+00 -0.86735313616E+02  0.86753409045E+02  0.10566000000E+00 0. -1.
        -13    1    4    4    0    0 -0.93977541918E+01  0.64402912086E+01 -0.51651346054E+03  0.51663910151E+03  0.10566000000E+00 0.  1.
        -14    1    4    4    0    0 -0.18516550059E+01  0.57264082157E+00 -0.83249556952E+02  0.83272115840E+02  0.00000000000E+00 0.  1.
<mgrwt>
<rscale>  0 0.80419970E+02</rscale>
<asrwt>0</asrwt>
<pdfrwt beam="1">  1        2 0.10957352E+00 0.80419970E+02</pdfrwt>
<pdfrwt beam="2">  1       -1 0.34924926E-03 0.80419970E+02</pdfrwt>
<totfact> 0.33128584E+05</totfact>
</mgrwt>
</event>
<event>
 8    1  0.2433467E-024  0.7967637E+02  0.7818608E-02  0.1329972E+00
          2   -1    0    0  501    0  0.00000000000E+00  0.00000000000E+00  0.32298016670E+03  0.32298016671E+03  0.25500000000E-02 0. -1.
         -1   -1    0    0    0  501 -0.00000000000E+00 -0.00000000000E+00 -0.49138633523E+01  0.49138659370E+01  0.50400000000E-02 0.  1.
         24    2    1    2    0    0  0.00000000000E+00 -0.71054273576E-14  0.31806630334E+03  0.32789403264E+03  0.79676366134E+02 0.  0.
         66    2    3    3    0    0 -0.26917500446E+02  0.29334687709E+02  0.15908394750E+03  0.16400237218E+03  0.19999994330E+01 0.  0.
        -13    1    3    3    0    0  0.26917500446E+02 -0.29334687709E+02  0.15898235585E+03  0.16389166046E+03  0.10566000000E+00 0.  1.
         13    1    4    4    0    0 -0.46041113529E+01  0.52620982923E+01  0.27649324624E+02  0.28519884922E+02  0.10566000000E+00 0. -1.
        -13    1    4    4    0    0 -0.60432584306E+01  0.60054956485E+01  0.36970738945E+02  0.37939868906E+02  0.10566000000E+00 0.  1.
        -14    1    4    4    0    0 -0.16270130663E+02  0.18067093768E+02  0.94463883927E+02  0.97542618355E+02  0.00000000000E+00 0.  1.
<mgrwt>
<rscale>  0 0.79676366E+02</rscale>
<asrwt>0</asrwt>
<pdfrwt beam="1">  1        2 0.49689243E-01 0.79676366E+02</pdfrwt>
<pdfrwt beam="2">  1       -1 0.75597938E-03 0.79676366E+02</pdfrwt>
<totfact> 0.26463036E+05</totfact>
</mgrwt>
</event>
<event>
 8    1  0.2433467E-024  0.8027992E+02  0.7818608E-02  0.1328259E+00
         -1   -1    0    0    0  501 -0.00000000000E+00  0.00000000000E+00  0.12334832604E+02  0.12334833634E+02  0.50400000000E-02 0.  1.
          2   -1    0    0  501    0  0.00000000000E+00 -0.00000000000E+00 -0.13062327049E+03  0.13062327052E+03  0.25500000000E-02 0. -1.
         24    2    1    2    0    0  0.00000000000E+00  0.00000000000E+00 -0.11828843789E+03  0.14295810415E+03  0.80279916570E+02 0.  0.
         66    2    3    3    0    0 -0.38573844624E+02  0.43796291908E+01 -0.77173285888E+02  0.86410871426E+02  0.20000011953E+01 0.  0.
        -13    1    3    3    0    0  0.38573844624E+02 -0.43796291908E+01 -0.41115152000E+02  0.56547232726E+02  0.10566000000E+00 0.  1.
         13    1    4    4    0    0 -0.14629591131E+02  0.20318826421E+01 -0.28491967588E+02  0.32092941043E+02  0.10566000000E+00 0. -1.
        -13    1    4    4    0    0 -0.17528418958E+02  0.12162837845E+01 -0.34837322287E+02  0.39017624294E+02  0.10566000000E+00 0.  1.
        -14    1    4    4    0    0 -0.64158345358E+01  0.11314627642E+01 -0.13843996013E+02  0.15300306088E+02  0.00000000000E+00 0.  1.
<mgrwt>
<rscale>  0 0.80279917E+02</rscale>
<asrwt>0</asrwt>
<pdfrwt beam="1">  1        2 0.20095887E-01 0.80279917E+02</pdfrwt>
<pdfrwt beam="2">  1       -1 0.18976667E-02 0.80279917E+02</pdfrwt>
<totfact> 0.18997340E+05</totfact>
</mgrwt>
</event>
<event>
 8    1  0.2433467E-024  0.7954765E+02  0.7818608E-02  0.1330340E+00
          2   -1    0    0  501    0  0.00000000000E+00  0.00000000000E+00  0.34899296299E+03  0.34899296300E+03  0.25500000000E-02 0. -1.
         -1   -1    0    0    0  501 -0.00000000000E+00 -0.00000000000E+00 -0.45329186864E+01  0.45329214883E+01  0.50400000000E-02 0.  1.
         24    2    1    2    0    0 -0.35527136788E-14  0.00000000000E+00  0.34446004430E+03  0.35352588449E+03  0.79547651638E+02 0.  0.
         66    2    3    3    0    0  0.17543865166E+02  0.85643930795E+01  0.32621433236E+03  0.32680411056E+03  0.20000007851E+01 0.  0.
        -13    1    3    3    0    0 -0.17543865166E+02 -0.85643930795E+01  0.18245711939E+02  0.26721773930E+02  0.10566000000E+00 0.  1.
         13    1    4    4    0    0  0.93222151052E+01  0.42532529263E+01  0.16140409336E+03  0.16172905234E+03  0.10566000000E+00 0. -1.
        -13    1    4    4    0    0  0.62507123961E+01  0.35535527531E+01  0.12025104664E+03  0.12046586456E+03  0.10566000000E+00 0.  1.
         14    1    4    4    0    0  0.19709376649E+01  0.75758740018E+00  0.44559192364E+02  0.44609193649E+02  0.00000000000E+00 0. -1.
<mgrwt>
<rscale>  0 0.79547652E+02</rscale>
<asrwt>0</asrwt>
<pdfrwt beam="1">  1        2 0.53691227E-01 0.79547652E+02</pdfrwt>
<pdfrwt beam="2">  1       -1 0.69737230E-03 0.79547652E+02</pdfrwt>
<totfact> 0.27324177E+05</totfact>
</mgrwt>
</event>
<event>
 8    1  0.2433467E-024  0.7300372E+02  0.7818608E-02  0.1350167E+00
          2   -1    0    0  501    0  0.00000000000E+00  0.00000000000E+00  0.11277433316E+04  0.11277433316E+04  0.25500000000E-02 0. -1.
         -1   -1    0    0    0  501 -0.00000000000E+00 -0.00000000000E+00 -0.11814566696E+01  0.11814674197E+01  0.50400000000E-02 0.  1.
         24    2    1    2    0    0  0.00000000000E+00  0.00000000000E+00  0.11265618749E+04  0.11289247990E+04  0.73003724573E+02 0.  0.
         66    2    3    3    0    0 -0.91240943389E+01  0.10166761077E+02  0.10866874231E+04  0.10867751229E+04  0.20000005715E+01 0.  0.
        -13    1    3    3    0    0  0.91240943389E+01 -0.10166761077E+02  0.39874451827E+02  0.42149676165E+02  0.10566000000E+00 0.  1.
         13    1    4    4    0    0 -0.15594287916E+01  0.24664820304E+01  0.20930712781E+03  0.20932749525E+03  0.10566000000E+00 0. -1.
        -13    1    4    4    0    0 -0.66930725097E+01  0.65635306041E+01  0.72526381662E+03  0.72532440468E+03  0.10566000000E+00 0.  1.
        -14    1    4    4    0    0 -0.87159303768E+00  0.11367484420E+01  0.15211647868E+03  0.15212322294E+03  0.00000000000E+00 0.  1.
<mgrwt>
<rscale>  0 0.73003725E+02</rscale>
<asrwt>0</asrwt>
<pdfrwt beam="1">  1        2 0.17349948E+00 0.73003725E+02</pdfrwt>
<pdfrwt beam="2">  1       -1 0.18176286E-03 0.73003725E+02</pdfrwt>
<totfact> 0.44609573E+05</totfact>
</mgrwt>
</event>
<event>
 8    1  0.2433467E-024  0.7918053E+02  0.7818608E-02  0.1331393E+00
          2   -1    0    0  501    0  0.00000000000E+00  0.00000000000E+00  0.53134983440E+03  0.53134983441E+03  0.25500000000E-02 0. -1.
         -1   -1    0    0    0  501 -0.00000000000E+00 -0.00000000000E+00 -0.29498226109E+01  0.29498269165E+01  0.50400000000E-02 0.  1.
         24    2    1    2    0    0 -0.88817841970E-15  0.00000000000E+00  0.52840001179E+03  0.53429966132E+03  0.79180525578E+02 0.  0.
         66    2    3    3    0    0 -0.55178803917E+01  0.24973219484E+02  0.46806822782E+03  0.46877070577E+03  0.19999985068E+01 0.  0.
        -13    1    3    3    0    0  0.55178803917E+01 -0.24973219484E+02  0.60331783965E+02  0.65528955553E+02  0.10566000000E+00 0.  1.
         13    1    4    4    0    0 -0.35142078950E+01  0.15676982286E+02  0.28781413767E+03  0.28826221819E+03  0.10566000000E+00 0. -1.
        -13    1    4    4    0    0 -0.14367474168E+01  0.61285020982E+01  0.12892576699E+03  0.12907938387E+03  0.10566000000E+00 0.  1.
         14    1    4    4    0    0 -0.56692507987E+00  0.31677351000E+01  0.51328323159E+02  0.51429103707E+02  0.00000000000E+00 0. -1.
<mgrwt>
<rscale>  0 0.79180526E+02</rscale>
<asrwt>0</asrwt>
<pdfrwt beam="1">  1        2 0.81746138E-01 0.79180526E+02</pdfrwt>
<pdfrwt beam="2">  1       -1 0.45381914E-03 0.79180526E+02</pdfrwt>
<totfact> 0.31879434E+05</totfact>
</mgrwt>
</event>
<event>
 8    1  0.2433467E-024  0.7806943E+02  0.7818608E-02  0.1334621E+00
          2   -1    0    0  501    0  0.00000000000E+00  0.00000000000E+00  0.79080082891E+03  0.79080082891E+03  0.25500000000E-02 0. -1.
         -1   -1    0    0    0  501 -0.00000000000E+00 -0.00000000000E+00 -0.19267888125E+01  0.19267954042E+01  0.50400000000E-02 0.  1.
         24    2    1    2    0    0  0.00000000000E+00  0.00000000000E+00  0.78887404009E+03  0.79272762432E+03  0.78069425626E+02 0.  0.
         66    2    3    3    0    0  0.14344269661E+02  0.27416555640E+02  0.63590203442E+03  0.63665753981E+03  0.20000035998E+01 0.  0.
        -13    1    3    3    0    0 -0.14344269661E+02 -0.27416555640E+02  0.15297200567E+03  0.15607008451E+03  0.10566000000E+00 0.  1.
         13    1    4    4    0    0  0.10052525595E+02  0.20360902903E+02  0.45202399026E+03  0.45259398866E+03  0.10566000000E+00 0. -1.
        -13    1    4    4    0    0  0.19971796233E+01  0.31906507186E+01  0.82234237024E+02  0.82320409872E+02  0.10566000000E+00 0.  1.
         14    1    4    4    0    0  0.22945644419E+01  0.38650020181E+01  0.10164380714E+03  0.10174314128E+03  0.00000000000E+00 0. -1.
<mgrwt>
<rscale>  0 0.78069426E+02</rscale>
<asrwt>0</asrwt>
<pdfrwt beam="1">  1        2 0.12166200E+00 0.78069426E+02</pdfrwt>
<pdfrwt beam="2">  1       -1 0.29642875E-03 0.78069426E+02</pdfrwt>
<totfact> 0.36540183E+05</totfact>
</mgrwt>
</event>
<event>
 8    1  0.2433467E-024  0.8094739E+02  0.7818608E-02  0.1326384E+00
          2   -1    0    0  501    0  0.00000000000E+00  0.00000000000E+00  0.29816551755E+02  0.29816551864E+02  0.25500000000E-02 0. -1.
         -1   -1    0    0    0  501 -0.00000000000E+00 -0.00000000000E+00 -0.54939952214E+02  0.54939952446E+02  0.50400000000E-02 0.  1.
         24    2    1    2    0    0  0.00000000000E+00  0.00000000000E+00 -0.25123400460E+02  0.84756504309E+02  0.80947388914E+02 0.  0.
         66    2    3    3    0    0  0.26480752028E+02 -0.28608938939E+02 -0.23866567277E+02  0.45752755658E+02  0.20000003926E+01 0.  0.
        -13    1    3    3    0    0 -0.26480752028E+02  0.28608938939E+02 -0.12568331831E+01  0.39003748651E+02  0.10566000000E+00 0.  1.
         13    1    4    4    0    0  0.13604543239E+02 -0.14610256996E+02 -0.13258134862E+02  0.23965235453E+02  0.10566000000E+00 0. -1.
        -13    1    4    4    0    0  0.11738156401E+02 -0.12705535564E+02 -0.94438303272E+01  0.19708172035E+02  0.10566000000E+00 0.  1.
        -14    1    4    4    0    0  0.11380523875E+01 -0.12931463791E+01 -0.11646020871E+01  0.20793481709E+01  0.00000000000E+00 0.  1.
<mgrwt>
<rscale>  0 0.80947389E+02</rscale>
<asrwt>0</asrwt>
<pdfrwt beam="1">  1        2 0.45871618E-02 0.80947389E+02</pdfrwt>
<pdfrwt beam="2">  1       -1 0.84523004E-02 0.80947389E+02</pdfrwt>
<totfact> 0.13002161E+05</totfact>
</mgrwt>
</event>
<event>
 8    1  0.2433467E-024  0.7987695E+02  0.7818608E-02  0.1329401E+00
         -1   -1    0    0    0  501 -0.00000000000E+00  0.00000000000E+00  0.49472150844E+01  0.49472176517E+01  0.50400000000E-02 0.  1.
          2   -1    0    0  501    0  0.00000000000E+00 -0.00000000000E+00 -0.32242004734E+03  0.32242004735E+03  0.25500000000E-02 0. -1.
         24    2    1    2    0    0  0.00000000000E+00  0.00000000000E+00 -0.31747283226E+03  0.32736726500E+03  0.79876948955E+02 0.  0.
         66    2    3    3    0    0  0.44876331575E+01 -0.23393746832E+02 -0.29009121900E+03  0.29107442617E+03  0.19999961822E+01 0.  0.
        -13    1    3    3    0    0 -0.44876331575E+01  0.23393746832E+02 -0.27381613252E+02  0.36292838832E+02  0.10566000000E+00 0.  1.
         13    1    4    4    0    0  0.16600879556E+01 -0.61521208047E+01 -0.70226266590E+02  0.70514850674E+02  0.10566000000E+00 0.  1.
        -13    1    4    4    0    0  0.23933804429E+01 -0.14185294239E+02 -0.17709826412E+03  0.17768161740E+03  0.10566000000E+00 0. -1.
        -14    1    4    4    0    0  0.43416475902E+00 -0.30563317878E+01 -0.42766688292E+02  0.42877958096E+02  0.00000000000E+00 0.  1.
<mgrwt>
<rscale>  0 0.79876949E+02</rscale>
<asrwt>0</asrwt>
<pdfrwt beam="1">  1        2 0.49603068E-01 0.79876949E+02</pdfrwt>
<pdfrwt beam="2">  1       -1 0.76111047E-03 0.79876949E+02</pdfrwt>
<totfact> 0.26272944E+05</totfact>
</mgrwt>
</event>
<event>
 8    1  0.2433467E-024  0.7584636E+02  0.7818608E-02  0.1341270E+00
         -1   -1    0    0    0  501 -0.00000000000E+00  0.00000000000E+00  0.74819432883E+02  0.74819433053E+02  0.50400000000E-02 0.  1.
          2   -1    0    0  501    0  0.00000000000E+00 -0.00000000000E+00 -0.19221844886E+02  0.19221845056E+02  0.25500000000E-02 0. -1.
         24    2    1    2    0    0  0.00000000000E+00  0.00000000000E+00  0.55597587996E+02  0.94041278108E+02  0.75846359156E+02 0.  0.
         66    2    3    3    0    0 -0.14212570507E+02 -0.33309968242E+02  0.13977215888E+02  0.38870473481E+02  0.19999999816E+01 0.  0.
        -13    1    3    3    0    0  0.14212570507E+02  0.33309968242E+02  0.41620372108E+02  0.55170804627E+02  0.10566000000E+00 0.  1.
         13    1    4    4    0    0 -0.29141404856E+01 -0.75886214724E+01  0.30883969054E+01  0.86964791785E+01  0.10566000000E+00 0. -1.
        -13    1    4    4    0    0 -0.20978895806E+01 -0.62882219278E+01  0.29083315904E+01  0.72396431114E+01  0.10566000000E+00 0.  1.
        -14    1    4    4    0    0 -0.92005404407E+01 -0.19433124842E+02  0.79804873923E+01  0.22934351191E+02  0.00000000000E+00 0.  1.
<mgrwt>
<rscale>  0 0.75846359E+02</rscale>
<asrwt>0</asrwt>
<pdfrwt beam="1">  1        2 0.29572069E-02 0.75846359E+02</pdfrwt>
<pdfrwt beam="2">  1       -1 0.11510682E-01 0.75846359E+02</pdfrwt>
<totfact> 0.14348293E+05</totfact>
</mgrwt>
</event>
<event>
 8    1  0.2433467E-024  0.7880603E+02  0.7818608E-02  0.1332474E+00
         -1   -1    0    0    0  501 -0.00000000000E+00  0.00000000000E+00  0.59051024335E+01  0.59051045843E+01  0.50400000000E-02 0.  1.
          2   -1    0    0  501    0  0.00000000000E+00 -0.00000000000E+00 -0.26292471847E+03  0.26292471848E+03  0.25500000000E-02 0. -1.
         24    2    1    2    0    0  0.71054273576E-14 -0.17763568394E-14 -0.25701961603E+03  0.26882982306E+03  0.78806032399E+02 0.  0.
         66    2    3    3    0    0 -0.38392125604E+02  0.84865423417E+01 -0.13592147528E+03  0.14150838902E+03  0.20000027491E+01 0.  0.
        -13    1    3    3    0    0  0.38392125604E+02 -0.84865423417E+01 -0.12109814075E+03  0.12732143404E+03  0.10566000000E+00 0.  1.
         13    1    4    4    0    0 -0.12176253889E+02  0.30674029512E+01 -0.42261956342E+02  0.44088028279E+02  0.10566000000E+00 0.  1.
        -13    1    4    4    0    0 -0.20187310811E+02  0.35677830160E+01 -0.71802734724E+02  0.74671952374E+02  0.10566000000E+00 0. -1.
         14    1    4    4    0    0 -0.60285609044E+01  0.18513563744E+01 -0.21856784216E+02  0.22748408368E+02  0.00000000000E+00 0. -1.
<mgrwt>
<rscale>  0 0.78806032E+02</rscale>
<asrwt>0</asrwt>
<pdfrwt beam="1">  1        2 0.40449948E-01 0.78806032E+02</pdfrwt>
<pdfrwt beam="2">  1       -1 0.90847767E-03 0.78806032E+02</pdfrwt>
<totfact> 0.25283776E+05</totfact>
</mgrwt>
</event>
<event>
 8    1  0.2433467E-024  0.7816165E+02  0.7818608E-02  0.1334351E+00
          2   -1    0    0  501    0  0.00000000000E+00  0.00000000000E+00  0.14013667982E+02  0.14013668214E+02  0.25500000000E-02 0. -1.
         -1   -1    0    0    0  501 -0.00000000000E+00 -0.00000000000E+00 -0.10898722065E+03  0.10898722077E+03  0.50400000000E-02 0.  1.
         24    2    1    2    0    0 -0.71054273576E-14  0.17763568394E-14 -0.94973552672E+02  0.12300088899E+03  0.78161646503E+02 0.  0.
         66    2    3    3    0    0  0.35701023902E+02 -0.15791665718E+02 -0.45678534929E+02  0.60120448846E+02  0.20000005949E+01 0.  0.
        -13    1    3    3    0    0 -0.35701023902E+02  0.15791665718E+02 -0.49295017743E+02  0.62880440140E+02  0.10566000000E+00 0.  1.
         13    1    4    4    0    0  0.13207684658E+02 -0.58112954226E+01 -0.18169516040E+02  0.23202512055E+02  0.10566000000E+00 0.  1.
        -13    1    4    4    0    0  0.16289346002E+02 -0.73697627039E+01 -0.19493409303E+02  0.26451093848E+02  0.10566000000E+00 0. -1.
         14    1    4    4    0    0  0.62039932414E+01 -0.26106075919E+01 -0.80156095862E+01  0.10466842942E+02  0.00000000000E+00 0. -1.
<mgrwt>
<rscale>  0 0.78161647E+02</rscale>
<asrwt>0</asrwt>
<pdfrwt beam="1">  1        2 0.21559490E-02 0.78161647E+02</pdfrwt>
<pdfrwt beam="2">  1       -1 0.16767264E-01 0.78161647E+02</pdfrwt>
<totfact> 0.12329816E+05</totfact>
</mgrwt>
</event>
<event>
 8    1  0.2433467E-024  0.7963795E+02  0.7818608E-02  0.1330082E+00
          2   -1    0    0  501    0  0.00000000000E+00  0.00000000000E+00  0.36168684715E+03  0.36168684716E+03  0.25500000000E-02 0. -1.
         -1   -1    0    0    0  501 -0.00000000000E+00 -0.00000000000E+00 -0.43837651332E+01  0.43837680304E+01  0.50400000000E-02 0.  1.
         24    2    1    2    0    0  0.00000000000E+00  0.71054273576E-14  0.35730308202E+03  0.36607061519E+03  0.79637948783E+02 0.  0.
         66    2    3    3    0    0  0.77228565211E+01 -0.38398396979E+02  0.21109346155E+03  0.21470567973E+03  0.19999997052E+01 0.  0.
        -13    1    3    3    0    0 -0.77228565211E+01  0.38398396979E+02  0.14620962047E+03  0.15136493546E+03  0.10566000000E+00 0.  1.
         13    1    4    4    0    0  0.27052035950E+01 -0.15255656880E+02  0.85185990130E+02  0.86583585464E+02  0.10566000000E+00 0. -1.
        -13    1    4    4    0    0  0.13814130124E+01 -0.85684992007E+01  0.48538107962E+02  0.49308078131E+02  0.10566000000E+00 0.  1.
         14    1    4    4    0    0  0.36362399137E+01 -0.14574240898E+02  0.77369363454E+02  0.78814016137E+02  0.00000000000E+00 0. -1.
<mgrwt>
<rscale>  0 0.79637949E+02</rscale>
<asrwt>0</asrwt>
<pdfrwt beam="1">  1        2 0.55644143E-01 0.79637949E+02</pdfrwt>
<pdfrwt beam="2">  1       -1 0.67442547E-03 0.79637949E+02</pdfrwt>
<totfact> 0.27592019E+05</totfact>
</mgrwt>
</event>
<event>
 8    1  0.2433467E-024  0.8012724E+02  0.7818608E-02  0.1328691E+00
         -1   -1    0    0    0  501 -0.00000000000E+00  0.00000000000E+00  0.15143571416E+02  0.15143572255E+02  0.50400000000E-02 0.  1.
          2   -1    0    0  501    0  0.00000000000E+00 -0.00000000000E+00 -0.10599174418E+03  0.10599174421E+03  0.25500000000E-02 0. -1.
         24    2    1    2    0    0  0.00000000000E+00  0.35527136788E-14 -0.90848172764E+02  0.12113531647E+03  0.80127238819E+02 0.  0.
         66    2    3    3    0    0  0.17783681310E+01  0.21993189279E+02 -0.95961055412E+02  0.98485466558E+02  0.19999998351E+01 0.  0.
        -13    1    3    3    0    0 -0.17783681310E+01 -0.21993189279E+02  0.51128826479E+01  0.22649849909E+02  0.10566000000E+00 0.  1.
         13    1    4    4    0    0  0.11328306395E+01  0.14213836241E+02 -0.64991476671E+02  0.66537355297E+02  0.10566000000E+00 0. -1.
        -13    1    4    4    0    0  0.11144863035E+00  0.23531761373E+00 -0.12704586479E+01  0.13011627063E+01  0.10566000000E+00 0.  1.
        -14    1    4    4    0    0  0.53408886112E+00  0.75440354244E+01 -0.29699120093E+02  0.30646948554E+02  0.00000000000E+00 0.  1.
<mgrwt>
<rscale>  0 0.80127239E+02</rscale>
<asrwt>0</asrwt>
<pdfrwt beam="1">  1        2 0.16306422E-01 0.80127239E+02</pdfrwt>
<pdfrwt beam="2">  1       -1 0.23297804E-02 0.80127239E+02</pdfrwt>
<totfact> 0.17943678E+05</totfact>
</mgrwt>
</event>
<event>
 8    1  0.2433467E-024  0.8041044E+02  0.7818608E-02  0.1327891E+00
         -1   -1    0    0    0  501 -0.00000000000E+00  0.00000000000E+00  0.17652664416E+02  0.17652665136E+02  0.50400000000E-02 0.  1.
          2   -1    0    0  501    0  0.00000000000E+00 -0.00000000000E+00 -0.91570291388E+02  0.91570291424E+02  0.25500000000E-02 0. -1.
         24    2    1    2    0    0  0.44408920985E-15  0.00000000000E+00 -0.73917626972E+02  0.10922295656E+03  0.80410438766E+02 0.  0.
         66    2    3    3    0    0  0.10469368695E+01  0.17580600223E+02 -0.86037045166E+02  0.87843877009E+02  0.20000015365E+01 0.  0.
        -13    1    3    3    0    0 -0.10469368695E+01 -0.17580600223E+02  0.12119418194E+02  0.21379079550E+02  0.10566000000E+00 0.  1.
         13    1    4    4    0    0  0.39851548839E+00  0.67761791943E+01 -0.34716701847E+02  0.35374227486E+02  0.10566000000E+00 0. -1.
        -13    1    4    4    0    0 -0.30354710947E+00  0.65600863584E+01 -0.30166236250E+02  0.30872963048E+02  0.10566000000E+00 0.  1.
        -14    1    4    4    0    0  0.95196849056E+00  0.42443346706E+01 -0.21154107070E+02  0.21596686475E+02  0.00000000000E+00 0.  1.
<mgrwt>
<rscale>  0 0.80410439E+02</rscale>
<asrwt>0</asrwt>
<pdfrwt beam="1">  1        2 0.14087737E-01 0.80410439E+02</pdfrwt>
<pdfrwt beam="2">  1       -1 0.27157946E-02 0.80410439E+02</pdfrwt>
<totfact> 0.17065096E+05</totfact>
</mgrwt>
</event>
<event>
 8    1  0.3270794E-024  0.8096720E+02  0.7818608E-02  0.1326329E+00
          2   -1    0    0  501    0  0.00000000000E+00  0.00000000000E+00  0.37223937435E+03  0.37223937436E+03  0.25500000000E-02 0. -1.
         -1   -1    0    0    0  501 -0.00000000000E+00 -0.00000000000E+00 -0.44028688741E+01  0.44028717588E+01  0.50400000000E-02 0.  1.
         24    2    1    2    0    0  0.00000000000E+00  0.88817841970E-15  0.36783650547E+03  0.37664224611E+03  0.80967195825E+02 0.  0.
         66    2    3    3    0    0  0.10031257262E+02 -0.58430764079E+01  0.36432215507E+03  0.36451255168E+03  0.19999995014E+01 0.  0.
        -13    1    3    3    0    0 -0.10031257262E+02  0.58430764079E+01  0.35143504050E+01  0.12129694430E+02  0.10566000000E+00 0.  1.
         13    1    4    4    0    0  0.21178511861E+01 -0.10876811656E+01  0.79334442826E+02  0.79370229473E+02  0.10566000000E+00 0. -1.
        -13    1    4    4    0    0  0.61570905096E+01 -0.41908624138E+01  0.24292558911E+03  0.24303976239E+03  0.10566000000E+00 0.  1.
        -14    1    4    4    0    0  0.17563155662E+01 -0.56453282842E+00  0.42062123129E+02  0.42102559825E+02  0.00000000000E+00 0.  1.
<mgrwt>
<rscale>  0 0.80967196E+02</rscale>
<asrwt>0</asrwt>
<pdfrwt beam="1">  1        2 0.57267606E-01 0.80967196E+02</pdfrwt>
<pdfrwt beam="2">  1       -1 0.67736454E-03 0.80967196E+02</pdfrwt>
<totfact> 0.26693417E+05</totfact>
</mgrwt>
</event>
<event>
 8    1  0.2433467E-024  0.8117186E+02  0.7818608E-02  0.1325758E+00
          2   -1    0    0  501    0  0.00000000000E+00  0.00000000000E+00  0.17515842362E+03  0.17515842364E+03  0.25500000000E-02 0. -1.
         -1   -1    0    0    0  501 -0.00000000000E+00 -0.00000000000E+00 -0.94041583155E+01  0.94041596660E+01  0.50400000000E-02 0.  1.
         24    2    1    2    0    0  0.35527136788E-14  0.00000000000E+00  0.16575426530E+03  0.18456258330E+03  0.81171858974E+02 0.  0.
         66    2    3    3    0    0 -0.16995255625E+02  0.20059566518E+02  0.15315518784E+03  0.15540828963E+03  0.19999998572E+01 0.  0.
        -13    1    3    3    0    0  0.16995255625E+02 -0.20059566518E+02  0.12599077457E+02  0.29154293671E+02  0.10566000000E+00 0.  1.
         13    1    4    4    0    0 -0.72093428774E+00  0.89653647503E+00  0.58982949081E+01  0.60103719317E+01  0.10566000000E+00 0. -1.
        -13    1    4    4    0    0 -0.61304871836E+00  0.11345338472E+01  0.92498461966E+01  0.93399044148E+01  0.10566000000E+00 0.  1.
         14    1    4    4    0    0 -0.15661272619E+02  0.18028496196E+02  0.13800704674E+03  0.14005801328E+03  0.00000000000E+00 0. -1.
<mgrwt>
<rscale>  0 0.81171859E+02</rscale>
<asrwt>0</asrwt>
<pdfrwt beam="1">  1        2 0.26947450E-01 0.81171859E+02</pdfrwt>
<pdfrwt beam="2">  1       -1 0.14467937E-02 0.81171859E+02</pdfrwt>
<totfact> 0.20283152E+05</totfact>
</mgrwt>
</event>
<event>
 8    1  0.2433467E-024  0.8393987E+02  0.7818608E-02  0.1318228E+00
         -1   -1    0    0    0  501 -0.00000000000E+00  0.00000000000E+00  0.17369225265E+02  0.17369225996E+02  0.50400000000E-02 0.  1.
          2   -1    0    0  501    0  0.00000000000E+00 -0.00000000000E+00 -0.10141357761E+03  0.10141357764E+03  0.25500000000E-02 0. -1.
         24    2    1    2    0    0  0.00000000000E+00  0.17763568394E-14 -0.84044352347E+02  0.11878280364E+03  0.83939867042E+02 0.  0.
         66    2    3    3    0    0  0.36316144304E+02 -0.99641553794E+01 -0.68189749210E+02  0.77922965972E+02  0.19999997643E+01 0.  0.
        -13    1    3    3    0    0 -0.36316144304E+02  0.99641553794E+01 -0.15854603136E+02  0.40859837667E+02  0.10566000000E+00 0.  1.
         13    1    4    4    0    0  0.25120372028E+01 -0.81656408022E+00 -0.46892994477E+01  0.53831033012E+01  0.10566000000E+00 0. -1.
        -13    1    4    4    0    0  0.18527033797E+02 -0.59385603724E+01 -0.35522864243E+02  0.40501883026E+02  0.10566000000E+00 0.  1.
         14    1    4    4    0    0  0.15277073304E+02 -0.32090309267E+01 -0.27977585520E+02  0.32037979645E+02  0.00000000000E+00 0. -1.
<mgrwt>
<rscale>  0 0.83939867E+02</rscale>
<asrwt>0</asrwt>
<pdfrwt beam="1">  1        2 0.15602088E-01 0.83939867E+02</pdfrwt>
<pdfrwt beam="2">  1       -1 0.26721886E-02 0.83939867E+02</pdfrwt>
<totfact> 0.15640428E+05</totfact>
</mgrwt>
</event>
<event>
 8    1  0.2433467E-024  0.7907829E+02  0.7818608E-02  0.1331688E+00
          2   -1    0    0  501    0  0.00000000000E+00  0.00000000000E+00  0.71094462434E+01  0.71094467007E+01  0.25500000000E-02 0. -1.
         -1   -1    0    0    0  501 -0.00000000000E+00 -0.00000000000E+00 -0.21989671970E+03  0.21989671976E+03  0.50400000000E-02 0.  1.
         24    2    1    2    0    0  0.00000000000E+00 -0.17763568394E-14 -0.21278727345E+03  0.22700616646E+03  0.79078289467E+02 0.  0.
         66    2    3    3    0    0  0.32008046956E+02 -0.83667844489E+01 -0.44438109170E+02  0.55437024618E+02  0.19999999830E+01 0.  0.
        -13    1    3    3    0    0 -0.32008046956E+02  0.83667844489E+01 -0.16834916428E+03  0.17156914184E+03  0.10566000000E+00 0.  1.
         13    1    4    4    0    0  0.91542592539E+01 -0.17716096170E+01 -0.11584261768E+02  0.14870956522E+02  0.10566000000E+00 0. -1.
        -13    1    4    4    0    0  0.76659868233E+01 -0.23327262346E+01 -0.11544633502E+02  0.14053422800E+02  0.10566000000E+00 0.  1.
         14    1    4    4    0    0  0.15187800878E+02 -0.42624485973E+01 -0.21309213900E+02  0.26512645296E+02  0.00000000000E+00 0. -1.
<mgrwt>
<rscale>  0 0.79078289E+02</rscale>
<asrwt>0</asrwt>
<pdfrwt beam="1">  1        2 0.10937612E-02 0.79078289E+02</pdfrwt>
<pdfrwt beam="2">  1       -1 0.33830259E-01 0.79078289E+02</pdfrwt>
<totfact> 0.99597954E+04</totfact>
</mgrwt>
</event>
<event>
 8    1  0.2433467E-024  0.7792002E+02  0.7818608E-02  0.1335060E+00
         -1   -1    0    0    0  501 -0.00000000000E+00  0.00000000000E+00  0.24413626995E+03  0.24413627000E+03  0.50400000000E-02 0.  1.
          2   -1    0    0  501    0  0.00000000000E+00 -0.00000000000E+00 -0.62173566113E+01  0.62173571343E+01  0.25500000000E-02 0. -1.
         24    2    1    2    0    0 -0.88817841970E-15  0.00000000000E+00  0.23791891334E+03  0.25035362713E+03  0.77920018583E+02 0.  0.
         66    2    3    3    0    0 -0.61701532368E+01 -0.36792593785E+02  0.83243537261E+02  0.91242820221E+02  0.19999994572E+01 0.  0.
        -13    1    3    3    0    0  0.61701532368E+01  0.36792593785E+02  0.15467537608E+03  0.15911080691E+03  0.10566000000E+00 0.  1.
         13    1    4    4    0    0 -0.17877454626E+01 -0.12749844005E+02  0.27386766639E+02  0.30262199309E+02  0.10566000000E+00 0. -1.
        -13    1    4    4    0    0 -0.43702592191E+01 -0.24055647019E+02  0.55821287340E+02  0.60940959981E+02  0.10566000000E+00 0.  1.
        -14    1    4    4    0    0 -0.12148555047E-01  0.12897239571E-01  0.35483281870E-01  0.39660931287E-01  0.00000000000E+00 0.  1.
<mgrwt>
<rscale>  0 0.77920019E+02</rscale>
<asrwt>0</asrwt>
<pdfrwt beam="1">  1        2 0.95651642E-03 0.77920019E+02</pdfrwt>
<pdfrwt beam="2">  1       -1 0.37559427E-01 0.77920019E+02</pdfrwt>
<totfact> 0.99877315E+04</totfact>
</mgrwt>
</event>
<event>
 8    1  0.2433467E-024  0.7810795E+02  0.7818608E-02  0.1334508E+00
          2   -1    0    0  501    0  0.00000000000E+00  0.00000000000E+00  0.84231556040E+03  0.84231556040E+03  0.25500000000E-02 0. -1.
         -1   -1    0    0    0  501 -0.00000000000E+00 -0.00000000000E+00 -0.18107346305E+01  0.18107416447E+01  0.50400000000E-02 0.  1.
         24    2    1    2    0    0  0.35527136788E-14  0.00000000000E+00  0.84050482577E+03  0.84412630205E+03  0.78107948817E+02 0.  0.
         66    2    3    3    0    0 -0.13566969699E+02  0.30502722323E+02  0.63901642248E+03  0.63989098052E+03  0.20000037430E+01 0.  0.
        -13    1    3    3    0    0  0.13566969699E+02 -0.30502722323E+02  0.20148840329E+03  0.20423532153E+03  0.10566000000E+00 0.  1.
         13    1    4    4    0    0 -0.30205028755E+01  0.80119289975E+01  0.16946155615E+03  0.16967776702E+03  0.10566000000E+00 0.  1.
        -13    1    4    4    0    0 -0.19305179292E+01  0.40525063294E+01  0.94351047547E+02  0.94457826802E+02  0.10566000000E+00 0. -1.
         14    1    4    4    0    0 -0.86159488941E+01  0.18438286997E+02  0.37520381879E+03  0.37575538670E+03  0.00000000000E+00 0. -1.
<mgrwt>
<rscale>  0 0.78107949E+02</rscale>
<asrwt>0</asrwt>
<pdfrwt beam="1">  1        2 0.12958749E+00 0.78107949E+02</pdfrwt>
<pdfrwt beam="2">  1       -1 0.27857406E-03 0.78107949E+02</pdfrwt>
<totfact> 0.36869338E+05</totfact>
</mgrwt>
</event>
<event>
 8    1  0.2433467E-024  0.7889455E+02  0.7818608E-02  0.1332218E+00
         -1   -1    0    0    0  501 -0.00000000000E+00  0.00000000000E+00  0.20090537521E+01  0.20090600739E+01  0.50400000000E-02 0.  1.
          2   -1    0    0  501    0  0.00000000000E+00 -0.00000000000E+00 -0.77453634420E+03  0.77453634420E+03  0.25500000000E-02 0. -1.
         24    2    1    2    0    0 -0.35527136788E-14 -0.88817841970E-15 -0.77252729045E+03  0.77654540428E+03  0.78894552528E+02 0.  0.
         66    2    3    3    0    0  0.30352832270E+02  0.48636458604E+01 -0.62943828033E+03  0.63019163611E+03  0.19999985741E+01 0.  0.
        -13    1    3    3    0    0 -0.30352832270E+02 -0.48636458604E+01 -0.14308901012E+03  0.14635376817E+03  0.10566000000E+00 0.  1.
         13    1    4    4    0    0  0.13525119282E+02  0.20614326094E+01 -0.28370926604E+03  0.28403897119E+03  0.10566000000E+00 0. -1.
        -13    1    4    4    0    0  0.10998354610E+02  0.23083028890E+01 -0.21714051452E+03  0.21743115296E+03  0.10566000000E+00 0.  1.
        -14    1    4    4    0    0  0.58293583775E+01  0.49391036208E+00 -0.12858849977E+03  0.12872151196E+03  0.00000000000E+00 0.  1.
<mgrwt>
<rscale>  0 0.78894553E+02</rscale>
<asrwt>0</asrwt>
<pdfrwt beam="1">  1        2 0.11915920E+00 0.78894553E+02</pdfrwt>
<pdfrwt beam="2">  1       -1 0.30908630E-03 0.78894553E+02</pdfrwt>
<totfact> 0.35422955E+05</totfact>
</mgrwt>
</event>
<event>
 8    1  0.2433467E-024  0.8097020E+02  0.7818608E-02  0.1326320E+00
          2   -1    0    0  501    0  0.00000000000E+00  0.00000000000E+00  0.70532049451E+03  0.70532049451E+03  0.25500000000E-02 0. -1.
         -1   -1    0    0    0  501 -0.00000000000E+00 -0.00000000000E+00 -0.23238247696E+01  0.23238302351E+01  0.50400000000E-02 0.  1.
         24    2    1    2    0    0  0.00000000000E+00  0.35527136788E-14  0.70299666974E+03  0.70764432475E+03  0.80970196272E+02 0.  0.
         66    2    3    3    0    0 -0.24767942627E+01 -0.23465540864E+02  0.63895979151E+03  0.63939845268E+03  0.19999993003E+01 0.  0.
        -13    1    3    3    0    0  0.24767942627E+01  0.23465540864E+02  0.64036878227E+02  0.68245872072E+02  0.10566000000E+00 0.  1.
         13    1    4    4    0    0 -0.65428766492E+00 -0.11927667350E+02  0.33601125937E+03  0.33622354904E+03  0.10566000000E+00 0. -1.
        -13    1    4    4    0    0 -0.16021658600E+01 -0.10869960978E+02  0.27972963206E+03  0.27994535396E+03  0.10566000000E+00 0.  1.
        -14    1    4    4    0    0 -0.22034073779E+00 -0.66791253614E+00  0.23218900077E+02  0.23229549673E+02  0.00000000000E+00 0.  1.
<mgrwt>
<rscale>  0 0.80970196E+02</rscale>
<asrwt>0</asrwt>
<pdfrwt beam="1">  1        2 0.10851081E+00 0.80970196E+02</pdfrwt>
<pdfrwt beam="2">  1       -1 0.35751204E-03 0.80970196E+02</pdfrwt>
<totfact> 0.32475028E+05</totfact>
</mgrwt>
</event>
<event>
 8    1  0.2433467E-024  0.8186738E+02  0.7818608E-02  0.1323834E+00
          2   -1    0    0  501    0  0.00000000000E+00  0.00000000000E+00  0.29403525022E+03  0.29403525023E+03  0.25500000000E-02 0. -1.
         -1   -1    0    0    0  501 -0.00000000000E+00 -0.00000000000E+00 -0.56985231042E+01  0.56985253330E+01  0.50400000000E-02 0.  1.
         24    2    1    2    0    0 -0.35527136788E-14  0.00000000000E+00  0.28833672712E+03  0.29973377556E+03  0.81867380623E+02 0.  0.
         66    2    3    3    0    0  0.27835448609E+02 -0.30265257600E+01  0.25345343237E+03  0.25500316553E+03  0.19999986519E+01 0.  0.
        -13    1    3    3    0    0 -0.27835448609E+02  0.30265257600E+01  0.34883294750E+02  0.44730610035E+02  0.10566000000E+00 0.  1.
         13    1    4    4    0    0  0.11560143241E+02 -0.18815509651E+01  0.10472194193E+03  0.10537491842E+03  0.10566000000E+00 0. -1.
        -13    1    4    4    0    0  0.77837612652E+01 -0.91766246486E+00  0.75449548091E+02  0.75855616239E+02  0.10566000000E+00 0.  1.
         14    1    4    4    0    0  0.84915441023E+01 -0.22731233002E+00  0.73281942342E+02  0.73772630871E+02  0.00000000000E+00 0. -1.
<mgrwt>
<rscale>  0 0.81867381E+02</rscale>
<asrwt>0</asrwt>
<pdfrwt beam="1">  1        2 0.45236203E-01 0.81867381E+02</pdfrwt>
<pdfrwt beam="2">  1       -1 0.87669584E-03 0.81867381E+02</pdfrwt>
<totfact> 0.23821960E+05</totfact>
</mgrwt>
</event>
<event>
 8    1  0.2433467E-024  0.8064037E+02  0.7818608E-02  0.1327244E+00
         -1   -1    0    0    0  501 -0.00000000000E+00  0.00000000000E+00  0.14452837329E+02  0.14452838208E+02  0.50400000000E-02 0.  1.
          2   -1    0    0  501    0  0.00000000000E+00 -0.00000000000E+00 -0.11248429237E+03  0.11248429240E+03  0.25500000000E-02 0. -1.
         24    2    1    2    0    0  0.00000000000E+00  0.00000000000E+00 -0.98031455038E+02  0.12693713060E+03  0.80640367988E+02 0.  0.
         66    2    3    3    0    0 -0.84595604528E+01 -0.20830729589E+02 -0.10168405223E+03  0.10415915685E+03  0.20000049840E+01 0.  0.
        -13    1    3    3    0    0  0.84595604528E+01  0.20830729589E+02  0.36525971868E+01  0.22777973757E+02  0.10566000000E+00 0.  1.
         13    1    4    4    0    0 -0.29738481567E+01 -0.70793968769E+01 -0.33512428250E+02  0.34381036113E+02  0.10566000000E+00 0. -1.
        -13    1    4    4    0    0 -0.15718746669E+01 -0.29588025979E+01 -0.18039518207E+02  0.18348315562E+02  0.10566000000E+00 0.  1.
        -14    1    4    4    0    0 -0.39138376293E+01 -0.10792530114E+02 -0.50132105768E+02  0.51429805172E+02  0.00000000000E+00 0.  1.
<mgrwt>
<rscale>  0 0.80640368E+02</rscale>
<asrwt>0</asrwt>
<pdfrwt beam="1">  1        2 0.17305275E-01 0.80640368E+02</pdfrwt>
<pdfrwt beam="2">  1       -1 0.22235136E-02 0.80640368E+02</pdfrwt>
<totfact> 0.17946133E+05</totfact>
</mgrwt>
</event>
<event>
 8    1  0.2433467E-024  0.8119864E+02  0.7818608E-02  0.1325684E+00
          2   -1    0    0  501    0  0.00000000000E+00  0.00000000000E+00  0.10229257057E+03  0.10229257060E+03  0.25500000000E-02 0. -1.
         -1   -1    0    0    0  501 -0.00000000000E+00 -0.00000000000E+00 -0.16113629833E+02  0.16113630621E+02  0.50400000000E-02 0.  1.
         24    2    1    2    0    0  0.00000000000E+00  0.00000000000E+00  0.86178940739E+02  0.11840620123E+03  0.81198637068E+02 0.  0.
         66    2    3    3    0    0  0.26133250911E+02  0.29406792402E+02  0.57594911403E+02  0.69777360609E+02  0.19999978641E+01 0.  0.
        -13    1    3    3    0    0 -0.26133250911E+02 -0.29406792402E+02  0.28584029336E+02  0.48628840616E+02  0.10566000000E+00 0.  1.
         13    1    4    4    0    0  0.13634041723E+02  0.15710122812E+02  0.30733529917E+02  0.37111400912E+02  0.10566000000E+00 0. -1.
        -13    1    4    4    0    0  0.36303481918E+01  0.48766992191E+01  0.87926980576E+01  0.10690384765E+02  0.10566000000E+00 0.  1.
         14    1    4    4    0    0  0.88688609964E+01  0.88199703708E+01  0.18068683429E+02  0.21975574931E+02  0.00000000000E+00 0. -1.
<mgrwt>
<rscale>  0 0.81198637E+02</rscale>
<asrwt>0</asrwt>
<pdfrwt beam="1">  1        2 0.15737318E-01 0.81198637E+02</pdfrwt>
<pdfrwt beam="2">  1       -1 0.24790201E-02 0.81198637E+02</pdfrwt>
<totfact> 0.17142213E+05</totfact>
</mgrwt>
</event>
<event>
 8    1  0.2433467E-024  0.7971994E+02  0.7818608E-02  0.1329848E+00
          2   -1    0    0  501    0  0.00000000000E+00  0.00000000000E+00  0.52020997374E+02  0.52020997437E+02  0.25500000000E-02 0. -1.
         -1   -1    0    0    0  501 -0.00000000000E+00 -0.00000000000E+00 -0.30541847027E+02  0.30541847443E+02  0.50400000000E-02 0.  1.
         24    2    1    2    0    0  0.00000000000E+00  0.00000000000E+00  0.21479150347E+02  0.82562844880E+02  0.79719943898E+02 0.  0.
         66    2    3    3    0    0 -0.14497805599E+02 -0.29661674146E+02  0.33830435719E+02  0.47312785380E+02  0.19999997873E+01 0.  0.
        -13    1    3    3    0    0  0.14497805599E+02  0.29661674146E+02 -0.12351285372E+02  0.35250059500E+02  0.10566000000E+00 0.  1.
         13    1    4    4    0    0 -0.65476627937E+01 -0.11992451981E+02  0.13607742215E+02  0.19283998673E+02  0.10566000000E+00 0. -1.
        -13    1    4    4    0    0 -0.24427283911E+01 -0.59624804968E+01  0.60524485862E+01  0.88408932575E+01  0.10566000000E+00 0.  1.
         14    1    4    4    0    0 -0.55074144139E+01 -0.11706741668E+02  0.14170244918E+02  0.19187893450E+02  0.00000000000E+00 0. -1.
<mgrwt>
<rscale>  0 0.79719944E+02</rscale>
<asrwt>0</asrwt>
<pdfrwt beam="1">  1        2 0.80032303E-02 0.79719944E+02</pdfrwt>
<pdfrwt beam="2">  1       -1 0.46987458E-02 0.79719944E+02</pdfrwt>
<totfact> 0.15218467E+05</totfact>
</mgrwt>
</event>
<event>
 8    1  0.2433467E-024  0.7594940E+02  0.7818608E-02  0.1340956E+00
          2   -1    0    0  501    0  0.00000000000E+00  0.00000000000E+00  0.18580203539E+02  0.18580203714E+02  0.25500000000E-02 0. -1.
         -1   -1    0    0    0  501 -0.00000000000E+00 -0.00000000000E+00 -0.77613673627E+02  0.77613673791E+02  0.50400000000E-02 0.  1.
         24    2    1    2    0    0  0.00000000000E+00 -0.35527136788E-14 -0.59033470088E+02  0.96193877505E+02  0.75949400780E+02 0.  0.
         66    2    3    3    0    0 -0.82988035566E+00  0.16421173487E+02  0.13780591877E+02  0.21546423269E+02  0.20000007779E+01 0.  0.
        -13    1    3    3    0    0  0.82988035566E+00 -0.16421173487E+02 -0.72814061965E+02  0.74647454236E+02  0.10566000000E+00 0.  1.
         13    1    4    4    0    0 -0.86581006698E+00  0.59021542367E+01  0.44033203383E+01  0.74152171744E+01  0.10566000000E+00 0. -1.
        -13    1    4    4    0    0  0.46317933337E-01  0.10478523701E+02  0.94052580655E+01  0.14080896549E+02  0.10566000000E+00 0.  1.
        -14    1    4    4    0    0 -0.10388222018E-01  0.40495549032E-01 -0.27986527234E-01  0.50309545364E-01  0.00000000000E+00 0.  1.
<mgrwt>
<rscale>  0 0.75949401E+02</rscale>
<asrwt>0</asrwt>
<pdfrwt beam="1">  1        2 0.28584929E-02 0.75949401E+02</pdfrwt>
<pdfrwt beam="2">  1       -1 0.11940565E-01 0.75949401E+02</pdfrwt>
<totfact> 0.14198860E+05</totfact>
</mgrwt>
</event>
<event>
 8    1  0.2433467E-024  0.8676705E+02  0.7818608E-02  0.1310875E+00
         -1   -1    0    0    0  501 -0.00000000000E+00  0.00000000000E+00  0.18583430202E+02  0.18583430886E+02  0.50400000000E-02 0.  1.
          2   -1    0    0  501    0  0.00000000000E+00 -0.00000000000E+00 -0.10128003222E+03  0.10128003225E+03  0.25500000000E-02 0. -1.
         24    2    1    2    0    0  0.00000000000E+00  0.00000000000E+00 -0.82696602020E+02  0.11986346314E+03  0.86767054867E+02 0.  0.
         66    2    3    3    0    0  0.39981403920E+02  0.16420903207E+02 -0.46149010225E+02  0.63260491914E+02  0.19999927395E+01 0.  0.
        -13    1    3    3    0    0 -0.39981403920E+02 -0.16420903207E+02 -0.36547591795E+02  0.56602971225E+02  0.10566000000E+00 0.  1.
         13    1    4    4    0    0  0.16415113014E+02  0.64706066209E+01 -0.18557960456E+02  0.25607298679E+02  0.10566000000E+00 0. -1.
        -13    1    4    4    0    0  0.25768472079E+00  0.20164346775E+00 -0.24385174884E+00  0.42153198505E+00  0.10566000000E+00 0. -1.
         14    1    4    4    0    0  0.23308606184E+02  0.97486531184E+01 -0.27347198020E+02  0.37231661250E+02  0.00000000000E+00 0. -1.
<mgrwt>
<rscale>  0 0.86767055E+02</rscale>
<asrwt>0</asrwt>
<pdfrwt beam="1">  1        2 0.15581543E-01 0.86767055E+02</pdfrwt>
<pdfrwt beam="2">  1       -1 0.28589894E-02 0.86767055E+02</pdfrwt>
<totfact> 0.14297539E+05</totfact>
</mgrwt>
</event>
<event>
 8    1  0.2433467E-024  0.7653152E+02  0.7818608E-02  0.1339193E+00
          2   -1    0    0  501    0  0.00000000000E+00  0.00000000000E+00  0.15358751337E+04  0.15358751337E+04  0.25500000000E-02 0. -1.
         -1   -1    0    0    0  501 -0.00000000000E+00 -0.00000000000E+00 -0.95337054060E+00  0.95338386251E+00  0.50400000000E-02 0.  1.
         24    2    1    2    0    0  0.00000000000E+00  0.00000000000E+00  0.15349217631E+04  0.15368285175E+04  0.76531518862E+02 0.  0.
         66    2    3    3    0    0 -0.20558190951E+02 -0.10277537712E+01  0.14151299394E+04  0.14152810466E+04  0.20000001030E+01 0.  0.
        -13    1    3    3    0    0  0.20558190951E+02  0.10277537712E+01  0.11979182375E+03  0.12154747095E+03  0.10566000000E+00 0.  1.
         13    1    4    4    0    0 -0.31267315370E+01 -0.29173231950E+00  0.24621055956E+03  0.24623060809E+03  0.10566000000E+00 0. -1.
        -13    1    4    4    0    0 -0.59883688743E+01  0.30001614916E+00  0.42633179457E+03  0.42637396825E+03  0.10566000000E+00 0.  1.
         14    1    4    4    0    0 -0.11443090540E+02 -0.10360376009E+01  0.74258758523E+03  0.74267647023E+03  0.00000000000E+00 0. -1.
<mgrwt>
<rscale>  0 0.76531519E+02</rscale>
<asrwt>0</asrwt>
<pdfrwt beam="1">  1        2 0.23628775E+00 0.76531519E+02</pdfrwt>
<pdfrwt beam="2">  1       -1 0.14667387E-03 0.76531519E+02</pdfrwt>
<totfact> 0.36957153E+05</totfact>
</mgrwt>
</event>
<event>
 8    1  0.2433467E-024  0.7951064E+02  0.7818608E-02  0.1330446E+00
         -1   -1    0    0    0  501 -0.00000000000E+00  0.00000000000E+00  0.18631798621E+01  0.18631866789E+01  0.50400000000E-02 0.  1.
          2   -1    0    0  501    0  0.00000000000E+00 -0.00000000000E+00 -0.84827154788E+03  0.84827154788E+03  0.25500000000E-02 0. -1.
         24    2    1    2    0    0 -0.17763568394E-14  0.00000000000E+00 -0.84640836801E+03  0.85013473456E+03  0.79510637397E+02 0.  0.
         66    2    3    3    0    0 -0.13806898480E+02 -0.99799146847E+01 -0.80723395318E+03  0.80741617788E+03  0.19999998776E+01 0.  0.
        -13    1    3    3    0    0  0.13806898480E+02  0.99799146847E+01 -0.39174414835E+02  0.42718556676E+02  0.10566000000E+00 0.  1.
         13    1    4    4    0    0 -0.66895308216E+00 -0.14584147879E+00 -0.39996876390E+02  0.40002875558E+02  0.10566000000E+00 0. -1.
        -13    1    4    4    0    0 -0.10751350593E+02 -0.78892570129E+01 -0.64077488008E+03  0.64091363695E+03  0.10566000000E+00 0.  1.
        -14    1    4    4    0    0 -0.23865948053E+01 -0.19448161931E+01 -0.12646219671E+03  0.12649966538E+03  0.00000000000E+00 0.  1.
<mgrwt>
<rscale>  0 0.79510637E+02</rscale>
<asrwt>0</asrwt>
<pdfrwt beam="1">  1        2 0.13050301E+00 0.79510637E+02</pdfrwt>
<pdfrwt beam="2">  1       -1 0.28664426E-03 0.79510637E+02</pdfrwt>
<totfact> 0.35242190E+05</totfact>
</mgrwt>
</event>
<event>
 8    1  0.2433467E-024  0.8049959E+02  0.7818608E-02  0.1327640E+00
         -1   -1    0    0    0  501 -0.00000000000E+00  0.00000000000E+00  0.43076347155E+01  0.43076376639E+01  0.50400000000E-02 0.  1.
          2   -1    0    0  501    0  0.00000000000E+00 -0.00000000000E+00 -0.37608701672E+03  0.37608701673E+03  0.25500000000E-02 0. -1.
         24    2    1    2    0    0  0.71054273576E-14  0.00000000000E+00 -0.37177938201E+03  0.38039465439E+03  0.80499591346E+02 0.  0.
         66    2    3    3    0    0  0.35769480649E+02 -0.11480688078E+02 -0.25395484038E+03  0.25672616319E+03  0.19999915538E+01 0.  0.
        -13    1    3    3    0    0 -0.35769480649E+02  0.11480688078E+02 -0.11782454162E+03  0.12366849120E+03  0.10566000000E+00 0.  1.
         13    1    4    4    0    0  0.17495788684E+02 -0.64371231370E+01 -0.12692942150E+03  0.12829118591E+03  0.10566000000E+00 0. -1.
        -13    1    4    4    0    0  0.57725675458E+01 -0.13871509854E+01 -0.37585003331E+02  0.38051154561E+02  0.10566000000E+00 0.  1.
        -14    1    4    4    0    0  0.12501124420E+02 -0.36564139555E+01 -0.89440415555E+02  0.90383822719E+02  0.00000000000E+00 0.  1.
<mgrwt>
<rscale>  0 0.80499591E+02</rscale>
<asrwt>0</asrwt>
<pdfrwt beam="1">  1        2 0.57859515E-01 0.80499591E+02</pdfrwt>
<pdfrwt beam="2">  1       -1 0.66271356E-03 0.80499591E+02</pdfrwt>
<totfact> 0.27200299E+05</totfact>
</mgrwt>
</event>
<event>
 8    1  0.2433467E-024  0.7936339E+02  0.7818608E-02  0.1330868E+00
         -1   -1    0    0    0  501 -0.00000000000E+00  0.00000000000E+00  0.30595084661E+01  0.30595126173E+01  0.50400000000E-02 0.  1.
          2   -1    0    0  501    0  0.00000000000E+00 -0.00000000000E+00 -0.51466960899E+03  0.51466960900E+03  0.25500000000E-02 0. -1.
         24    2    1    2    0    0  0.11102230246E-15  0.00000000000E+00 -0.51161010052E+03  0.51772912161E+03  0.79363394640E+02 0.  0.
         66    2    3    3    0    0  0.69217754395E+00 -0.21081976896E+02 -0.47503547363E+03  0.47550776024E+03  0.19999960573E+01 0.  0.
        -13    1    3    3    0    0 -0.69217754395E+00  0.21081976896E+02 -0.36574626894E+02  0.42221361371E+02  0.10566000000E+00 0.  1.
         13    1    4    4    0    0  0.46524766866E+00 -0.12759673464E+02 -0.27923688387E+03  0.27952866436E+03  0.10566000000E+00 0. -1.
        -13    1    4    4    0    0  0.17139234865E+00 -0.57743699247E+01 -0.12244282944E+03  0.12257907802E+03  0.10566000000E+00 0.  1.
        -14    1    4    4    0    0  0.55537526647E-01 -0.25479335072E+01 -0.73355760326E+02  0.73400017865E+02  0.00000000000E+00 0.  1.
<mgrwt>
<rscale>  0 0.79363395E+02</rscale>
<asrwt>0</asrwt>
<pdfrwt beam="1">  1        2 0.79179871E-01 0.79363395E+02</pdfrwt>
<pdfrwt beam="2">  1       -1 0.47069434E-03 0.79363395E+02</pdfrwt>
<totfact> 0.31376982E+05</totfact>
</mgrwt>
</event>
<event>
 8    1  0.2433467E-024  0.7934026E+02  0.7818608E-02  0.1330934E+00
         -1   -1    0    0    0  501 -0.00000000000E+00  0.00000000000E+00  0.62942362123E+01  0.62942382301E+01  0.50400000000E-02 0.  1.
          2   -1    0    0  501    0  0.00000000000E+00 -0.00000000000E+00 -0.25002540012E+03  0.25002540013E+03  0.25500000000E-02 0. -1.
         24    2    1    2    0    0  0.00000000000E+00  0.00000000000E+00 -0.24373116391E+03  0.25631963836E+03  0.79340259331E+02 0.  0.
         66    2    3    3    0    0 -0.13325281673E+02 -0.30803095763E+02 -0.19011771158E+03  0.19306770342E+03  0.20000012096E+01 0.  0.
        -13    1    3    3    0    0  0.13325281673E+02  0.30803095763E+02 -0.53613452324E+02  0.63251934946E+02  0.10566000000E+00 0.  1.
         13    1    4    4    0    0 -0.16562611974E+01 -0.26487895483E+01 -0.19104239619E+02  0.19358264971E+02  0.10566000000E+00 0. -1.
        -13    1    4    4    0    0 -0.29017386811E+01 -0.75384389788E+01 -0.46644343711E+02  0.47338716859E+02  0.10566000000E+00 0. -1.
         14    1    4    4    0    0 -0.87672817944E+01 -0.20615867236E+02 -0.12436912825E+03  0.12637072159E+03  0.00000000000E+00 0. -1.
<mgrwt>
<rscale>  0 0.79340259E+02</rscale>
<asrwt>0</asrwt>
<pdfrwt beam="1">  1        2 0.38465438E-01 0.79340259E+02</pdfrwt>
<pdfrwt beam="2">  1       -1 0.96834439E-03 0.79340259E+02</pdfrwt>
<totfact> 0.24394354E+05</totfact>
</mgrwt>
</event>
<event>
 8    1  0.2784208E-024  0.7964785E+02  0.7818608E-02  0.1330054E+00
         -1   -1    0    0    0  501 -0.00000000000E+00  0.00000000000E+00  0.61392957752E+01  0.61392978439E+01  0.50400000000E-02 0.  1.
          2   -1    0    0  501    0  0.00000000000E+00 -0.00000000000E+00 -0.25832682794E+03  0.25832682795E+03  0.25500000000E-02 0. -1.
         24    2    1    2    0    0  0.71054273576E-14  0.00000000000E+00 -0.25218753216E+03  0.26446612579E+03  0.79647851913E+02 0.  0.
         66    2    3    3    0    0  0.27457951398E+02 -0.91794640658E+01 -0.21684840500E+03  0.21878170035E+03  0.20000004462E+01 0.  0.
        -13    1    3    3    0    0 -0.27457951398E+02  0.91794640658E+01 -0.35339127166E+02  0.45684425447E+02  0.10566000000E+00 0.  1.
         13    1    4    4    0    0  0.79062391266E+01 -0.23281480923E+01 -0.63630140900E+02  0.64161786802E+02  0.10566000000E+00 0. -1.
        -13    1    4    4    0    0  0.87640621190E+00 -0.51724710616E+00 -0.95202839410E+01  0.95751032772E+01  0.10566000000E+00 0. -1.
        -14    1    4    4    0    0  0.18675306060E+02 -0.63340688673E+01 -0.14369798016E+03  0.14504481027E+03  0.00000000000E+00 0.  1.
<mgrwt>
<rscale>  0 0.79647852E+02</rscale>
<asrwt>0</asrwt>
<pdfrwt beam="1">  1        2 0.39742581E-01 0.79647852E+02</pdfrwt>
<pdfrwt beam="2">  1       -1 0.94450740E-03 0.79647852E+02</pdfrwt>
<totfact> 0.24432386E+05</totfact>
</mgrwt>
</event>
<event>
 8    1  0.2433467E-024  0.7755895E+02  0.7818608E-02  0.1336125E+00
         -1   -1    0    0    0  501 -0.00000000000E+00  0.00000000000E+00  0.33781037180E+01  0.33781074777E+01  0.50400000000E-02 0.  1.
          2   -1    0    0  501    0  0.00000000000E+00 -0.00000000000E+00 -0.44517483218E+03  0.44517483219E+03  0.25500000000E-02 0. -1.
         24    2    1    2    0    0  0.71054273576E-14  0.00000000000E+00 -0.44179672846E+03  0.44855293966E+03  0.77558947920E+02 0.  0.
         66    2    3    3    0    0 -0.33662496704E+02 -0.15469039711E+02 -0.28683008579E+03  0.28921955842E+03  0.19999960627E+01 0.  0.
        -13    1    3    3    0    0  0.33662496704E+02  0.15469039711E+02 -0.15496664267E+03  0.15933338124E+03  0.10566000000E+00 0.  1.
         13    1    4    4    0    0 -0.11485165076E+02 -0.52429202452E+01 -0.10181102934E+03  0.10259090646E+03  0.10566000000E+00 0. -1.
        -13    1    4    4    0    0 -0.55281706234E+01 -0.30968752639E+01 -0.45720014819E+02  0.46157147073E+02  0.10566000000E+00 0.  1.
        -14    1    4    4    0    0 -0.16649161005E+02 -0.71292442020E+01 -0.13929904163E+03  0.14047150488E+03  0.00000000000E+00 0.  1.
<mgrwt>
<rscale>  0 0.77558948E+02</rscale>
<asrwt>0</asrwt>
<pdfrwt beam="1">  1        2 0.68488389E-01 0.77558948E+02</pdfrwt>
<pdfrwt beam="2">  1       -1 0.51970891E-03 0.77558948E+02</pdfrwt>
<totfact> 0.31776542E+05</totfact>
</mgrwt>
</event>
<event>
 8    1  0.2433467E-024  0.7913270E+02  0.7818608E-02  0.1331531E+00
          2   -1    0    0  501    0  0.00000000000E+00  0.00000000000E+00  0.29839399909E+03  0.29839399910E+03  0.25500000000E-02 0. -1.
         -1   -1    0    0    0  501 -0.00000000000E+00 -0.00000000000E+00 -0.52464043807E+01  0.52464068016E+01  0.50400000000E-02 0.  1.
         24    2    1    2    0    0  0.00000000000E+00  0.00000000000E+00  0.29314759471E+03  0.30364040590E+03  0.79132697495E+02 0.  0.
         66    2    3    3    0    0  0.22956211497E+02  0.18331115832E+02  0.24822173204E+03  0.24996208855E+03  0.19999994085E+01 0.  0.
        -13    1    3    3    0    0 -0.22956211497E+02 -0.18331115832E+02  0.44925862664E+02  0.53678317355E+02  0.10566000000E+00 0.  1.
         13    1    4    4    0    0  0.11146474755E+02  0.96972369665E+01  0.12958710061E+03  0.13042663882E+03  0.10566000000E+00 0. -1.
        -13    1    4    4    0    0  0.14323332314E+01  0.10616450780E+01  0.12795322087E+02  0.12919369184E+02  0.10566000000E+00 0.  1.
         14    1    4    4    0    0  0.10377403510E+02  0.75722337870E+01  0.10583930935E+03  0.10661608055E+03  0.00000000000E+00 0. -1.
<mgrwt>
<rscale>  0 0.79132697E+02</rscale>
<asrwt>0</asrwt>
<pdfrwt beam="1">  1        2 0.45906761E-01 0.79132697E+02</pdfrwt>
<pdfrwt beam="2">  1       -1 0.80713946E-03 0.79132697E+02</pdfrwt>
<totfact> 0.26182313E+05</totfact>
</mgrwt>
</event>
<event>
 8    1  0.2433467E-024  0.7965820E+02  0.7818608E-02  0.1330024E+00
         -1   -1    0    0    0  501 -0.00000000000E+00  0.00000000000E+00  0.38466754421E+02  0.38466754751E+02  0.50400000000E-02 0.  1.
          2   -1    0    0  501    0  0.00000000000E+00 -0.00000000000E+00 -0.41239690646E+02  0.41239690725E+02  0.25500000000E-02 0. -1.
         24    2    1    2    0    0 -0.35527136788E-14 -0.35527136788E-14 -0.27729362253E+01  0.79706445477E+02  0.79658196535E+02 0.  0.
         66    2    3    3    0    0 -0.21331200086E+02 -0.20256483228E+02  0.25443205819E+02  0.38944857605E+02  0.20000004130E+01 0.  0.
        -13    1    3    3    0    0  0.21331200086E+02  0.20256483228E+02 -0.28216142044E+02  0.40761587871E+02  0.10566000000E+00 0.  1.
         13    1    4    4    0    0 -0.10883281770E+02 -0.96393713598E+01  0.12678304608E+02  0.19290253344E+02  0.10566000000E+00 0. -1.
        -13    1    4    4    0    0 -0.69499001496E+01 -0.67190046566E+01  0.89590254866E+01  0.13180342840E+02  0.10566000000E+00 0.  1.
        -14    1    4    4    0    0 -0.34980181661E+01 -0.38981072119E+01  0.38058757242E+01  0.64742614215E+01  0.00000000000E+00 0.  1.
<mgrwt>
<rscale>  0 0.79658197E+02</rscale>
<asrwt>0</asrwt>
<pdfrwt beam="1">  1        2 0.63445678E-02 0.79658197E+02</pdfrwt>
<pdfrwt beam="2">  1       -1 0.59179623E-02 0.79658197E+02</pdfrwt>
<totfact> 0.14515738E+05</totfact>
</mgrwt>
</event>
<event>
 8    1  0.2433467E-024  0.8076486E+02  0.7818608E-02  0.1326895E+00
         -1   -1    0    0    0  501 -0.00000000000E+00  0.00000000000E+00  0.38877657749E+01  0.38877690417E+01  0.50400000000E-02 0.  1.
          2   -1    0    0  501    0  0.00000000000E+00 -0.00000000000E+00 -0.41945426353E+03  0.41945426354E+03  0.25500000000E-02 0. -1.
         24    2    1    2    0    0 -0.55511151231E-16  0.00000000000E+00 -0.41556649776E+03  0.42334203258E+03  0.80764859265E+02 0.  0.
         66    2    3    3    0    0  0.22172896885E+00  0.39746283477E+02 -0.24457176414E+03  0.24778854699E+03  0.19999978896E+01 0.  0.
        -13    1    3    3    0    0 -0.22172896885E+00 -0.39746283477E+02 -0.17099473362E+03  0.17555348559E+03  0.10566000000E+00 0.  1.
         13    1    4    4    0    0 -0.20795830216E+00  0.54345186433E+01 -0.32852148255E+02  0.33299430153E+02  0.10566000000E+00 0. -1.
        -13    1    4    4    0    0 -0.34157344799E+00  0.27297974310E+02 -0.16862931369E+03  0.17082491819E+03  0.10566000000E+00 0.  1.
        -14    1    4    4    0    0  0.77126071900E+00  0.70137905236E+01 -0.43090302197E+02  0.43664198653E+02  0.00000000000E+00 0.  1.
<mgrwt>
<rscale>  0 0.80764859E+02</rscale>
<asrwt>0</asrwt>
<pdfrwt beam="1">  1        2 0.64531389E-01 0.80764859E+02</pdfrwt>
<pdfrwt beam="2">  1       -1 0.59811840E-03 0.80764859E+02</pdfrwt>
<totfact> 0.28018114E+05</totfact>
</mgrwt>
</event>
<event>
 8    1  0.2433467E-024  0.8275639E+02  0.7818608E-02  0.1321406E+00
          2   -1    0    0  501    0  0.00000000000E+00  0.00000000000E+00  0.18022955265E+02  0.18022955445E+02  0.25500000000E-02 0. -1.
         -1   -1    0    0    0  501 -0.00000000000E+00 -0.00000000000E+00 -0.94998567426E+02  0.94998567559E+02  0.50400000000E-02 0.  1.
         24    2    1    2    0    0 -0.71054273576E-14  0.17763568394E-14 -0.76975612161E+02  0.11302152300E+03  0.82756388241E+02 0.  0.
         66    2    3    3    0    0 -0.38238182224E+02  0.12707097752E+02 -0.51213636858E+02  0.65195594381E+02  0.20000033635E+01 0.  0.
        -13    1    3    3    0    0  0.38238182224E+02 -0.12707097752E+02 -0.25761975304E+02  0.47825928623E+02  0.10566000000E+00 0.  1.
         13    1    4    4    0    0 -0.19244044343E+02  0.69323312298E+01 -0.26289605586E+02  0.33309833156E+02  0.10566000000E+00 0. -1.
        -13    1    4    4    0    0 -0.49008633925E+01  0.19586945781E+01 -0.70074957365E+01  0.87733179000E+01  0.10566000000E+00 0.  1.
        -14    1    4    4    0    0 -0.14093274489E+02  0.38160719440E+01 -0.17916535535E+02  0.23112443325E+02  0.00000000000E+00 0.  1.
<mgrwt>
<rscale>  0 0.82756388E+02</rscale>
<asrwt>0</asrwt>
<pdfrwt beam="1">  1        2 0.27727624E-02 0.82756388E+02</pdfrwt>
<pdfrwt beam="2">  1       -1 0.14615164E-01 0.82756388E+02</pdfrwt>
<totfact> 0.11014982E+05</totfact>
</mgrwt>
</event>
<event>
 8    1  0.2433467E-024  0.8001156E+02  0.7818608E-02  0.1329019E+00
         -1   -1    0    0    0  501 -0.00000000000E+00  0.00000000000E+00  0.10657816387E+02  0.10657817578E+02  0.50400000000E-02 0.  1.
          2   -1    0    0  501    0  0.00000000000E+00 -0.00000000000E+00 -0.15016794845E+03  0.15016794847E+03  0.25500000000E-02 0. -1.
         24    2    1    2    0    0  0.00000000000E+00  0.00000000000E+00 -0.13951013206E+03  0.16082576605E+03  0.80011562146E+02 0.  0.
         66    2    3    3    0    0 -0.36414420418E+02  0.53451494262E+01 -0.38408751866E+02  0.53233568941E+02  0.20000013927E+01 0.  0.
        -13    1    3    3    0    0  0.36414420418E+02 -0.53451494262E+01 -0.10110138019E+03  0.10759219711E+03  0.10566000000E+00 0.  1.
         13    1    4    4    0    0 -0.30708996280E+01  0.26693192623E+00 -0.32589693244E+01  0.44870616523E+01  0.10566000000E+00 0. -1.
        -13    1    4    4    0    0 -0.10709115723E+02  0.13740074128E+01 -0.12394276531E+02  0.16437831692E+02  0.10566000000E+00 0.  1.
         14    1    4    4    0    0 -0.22634405067E+02  0.37042100871E+01 -0.22755506010E+02  0.32308675597E+02  0.00000000000E+00 0. -1.
<mgrwt>
<rscale>  0 0.80011562E+02</rscale>
<asrwt>0</asrwt>
<pdfrwt beam="1">  1        2 0.23102760E-01 0.80011562E+02</pdfrwt>
<pdfrwt beam="2">  1       -1 0.16396643E-02 0.80011562E+02</pdfrwt>
<totfact> 0.20029554E+05</totfact>
</mgrwt>
</event>
<event>
 8    1  0.2433467E-024  0.8003518E+02  0.7818608E-02  0.1328952E+00
         -1   -1    0    0    0  501 -0.00000000000E+00  0.00000000000E+00  0.75307795047E+02  0.75307795215E+02  0.50400000000E-02 0.  1.
          2   -1    0    0  501    0  0.00000000000E+00 -0.00000000000E+00 -0.21264832497E+02  0.21264832650E+02  0.25500000000E-02 0. -1.
         24    2    1    2    0    0 -0.35527136788E-14  0.00000000000E+00  0.54042962550E+02  0.96572627865E+02  0.80035183835E+02 0.  0.
         66    2    3    3    0    0 -0.31426512179E+02  0.13116790281E+02  0.17357400360E+01  0.34156824208E+02  0.19999978609E+01 0.  0.
        -13    1    3    3    0    0  0.31426512179E+02 -0.13116790281E+02  0.52307222514E+02  0.62415803657E+02  0.10566000000E+00 0.  1.
         13    1    4    4    0    0 -0.21781814770E+02  0.94033683746E+01  0.10478162724E+01  0.23748260450E+02  0.10566000000E+00 0. -1.
        -13    1    4    4    0    0 -0.44939644215E+00  0.24985701677E+00 -0.15271628302E+00  0.54669185996E+00  0.10566000000E+00 0.  1.
         14    1    4    4    0    0 -0.91953009677E+01  0.34635648896E+01  0.84064004661E+00  0.98618718973E+01  0.00000000000E+00 0. -1.
<mgrwt>
<rscale>  0 0.80035184E+02</rscale>
<asrwt>0</asrwt>
<pdfrwt beam="1">  1        2 0.32715127E-02 0.80035184E+02</pdfrwt>
<pdfrwt beam="2">  1       -1 0.11585815E-01 0.80035184E+02</pdfrwt>
<totfact> 0.12554124E+05</totfact>
</mgrwt>
</event>
<event>
 8    1  0.2433467E-024  0.8032955E+02  0.7818608E-02  0.1328119E+00
         -1   -1    0    0    0  501 -0.00000000000E+00  0.00000000000E+00  0.75330303932E+02  0.75330304100E+02  0.50400000000E-02 0.  1.
          2   -1    0    0  501    0  0.00000000000E+00 -0.00000000000E+00 -0.21415139353E+02  0.21415139505E+02  0.25500000000E-02 0. -1.
         24    2    1    2    0    0  0.00000000000E+00  0.00000000000E+00  0.53915164578E+02  0.96745443605E+02  0.80329545541E+02 0.  0.
         66    2    3    3    0    0  0.10128434190E+02 -0.35011412128E+02  0.67202765949E+01  0.37115310500E+02  0.19999994177E+01 0.  0.
        -13    1    3    3    0    0 -0.10128434190E+02  0.35011412128E+02  0.47194887984E+02  0.59630133105E+02  0.10566000000E+00 0.  1.
         13    1    4    4    0    0  0.54010453869E+01 -0.15888627944E+02  0.36577619581E+01  0.17175860263E+02  0.10566000000E+00 0. -1.
        -13    1    4    4    0    0  0.83994276593E+00 -0.36550520669E+01  0.46409241227E+00  0.37804041139E+01  0.10566000000E+00 0.  1.
         14    1    4    4    0    0  0.38874460375E+01 -0.15467732117E+02  0.25984222245E+01  0.16159046123E+02  0.00000000000E+00 0. -1.
<mgrwt>
<rscale>  0 0.80329546E+02</rscale>
<asrwt>0</asrwt>
<pdfrwt beam="1">  1        2 0.32946368E-02 0.80329546E+02</pdfrwt>
<pdfrwt beam="2">  1       -1 0.11589278E-01 0.80329546E+02</pdfrwt>
<totfact> 0.12440525E+05</totfact>
</mgrwt>
</event>
<event>
 8    1  0.2433467E-024  0.7973351E+02  0.7818608E-02  0.1329809E+00
          2   -1    0    0  501    0  0.00000000000E+00  0.00000000000E+00  0.11010474918E+03  0.11010474921E+03  0.25500000000E-02 0. -1.
         -1   -1    0    0    0  501 -0.00000000000E+00 -0.00000000000E+00 -0.14434963394E+02  0.14434964274E+02  0.50400000000E-02 0.  1.
         24    2    1    2    0    0  0.00000000000E+00 -0.35527136788E-14  0.95669785782E+02  0.12453971348E+03  0.79733508150E+02 0.  0.
         66    2    3    3    0    0 -0.22505520462E+02 -0.26201755968E+02  0.78881410627E+02  0.86135401593E+02  0.19999995252E+01 0.  0.
        -13    1    3    3    0    0  0.22505520462E+02  0.26201755968E+02  0.16788375156E+02  0.38404311886E+02  0.10566000000E+00 0.  1.
         13    1    4    4    0    0 -0.63975433959E+01 -0.69269023776E+01  0.20786781556E+02  0.22825687055E+02  0.10566000000E+00 0. -1.
        -13    1    4    4    0    0 -0.18773981780E+01 -0.18195016269E+01  0.52370610365E+01  0.58543302285E+01  0.10566000000E+00 0.  1.
         14    1    4    4    0    0 -0.14230578888E+02 -0.17455351963E+02  0.52857568035E+02  0.57455384310E+02  0.00000000000E+00 0. -1.
<mgrwt>
<rscale>  0 0.79733508E+02</rscale>
<asrwt>0</asrwt>
<pdfrwt beam="1">  1        2 0.16939192E-01 0.79733508E+02</pdfrwt>
<pdfrwt beam="2">  1       -1 0.22207638E-02 0.79733508E+02</pdfrwt>
<totfact> 0.18381957E+05</totfact>
</mgrwt>
</event>
<event>
 8    1  0.2433467E-024  0.7511288E+02  0.7818608E-02  0.1343522E+00
          2   -1    0    0  501    0  0.00000000000E+00  0.00000000000E+00  0.85963557783E+01  0.85963561565E+01  0.25500000000E-02 0. -1.
         -1   -1    0    0    0  501 -0.00000000000E+00 -0.00000000000E+00 -0.16407952498E+03  0.16407952506E+03  0.50400000000E-02 0.  1.
         24    2    1    2    0    0  0.00000000000E+00  0.00000000000E+00 -0.15548316921E+03  0.17267588122E+03  0.75112875382E+02 0.  0.
         66    2    3    3    0    0  0.34801714813E+02 -0.12990375301E+02 -0.65508380554E+02  0.75334302428E+02  0.19999987693E+01 0.  0.
        -13    1    3    3    0    0 -0.34801714813E+02  0.12990375301E+02 -0.89974788652E+02  0.97341578791E+02  0.10566000000E+00 0.  1.
         13    1    4    4    0    0  0.10915106814E+02 -0.45780031959E+01 -0.19476008498E+02  0.22790869686E+02  0.10566000000E+00 0. -1.
        -13    1    4    4    0    0  0.88193274012E+01 -0.31645433150E+01 -0.17709309958E+02  0.20035610633E+02  0.10566000000E+00 0.  1.
        -14    1    4    4    0    0  0.15067280598E+02 -0.52478287904E+01 -0.28323062099E+02  0.32507822109E+02  0.00000000000E+00 0.  1.
<mgrwt>
<rscale>  0 0.75112875E+02</rscale>
<asrwt>0</asrwt>
<pdfrwt beam="1">  1        2 0.13225164E-02 0.75112875E+02</pdfrwt>
<pdfrwt beam="2">  1       -1 0.25243002E-01 0.75112875E+02</pdfrwt>
<totfact> 0.12360032E+05</totfact>
</mgrwt>
</event>
<event>
 8    1  0.2433467E-024  0.8215385E+02  0.7818608E-02  0.1323048E+00
          2   -1    0    0  501    0  0.00000000000E+00  0.00000000000E+00  0.38719122900E+02  0.38719122984E+02  0.25500000000E-02 0. -1.
         -1   -1    0    0    0  501 -0.00000000000E+00 -0.00000000000E+00 -0.43578305575E+02  0.43578305866E+02  0.50400000000E-02 0.  1.
         24    2    1    2    0    0  0.00000000000E+00  0.00000000000E+00 -0.48591826751E+01  0.82297428850E+02  0.82153850421E+02 0.  0.
         66    2    3    3    0    0 -0.38815340286E+02 -0.37505514581E+01 -0.15283552098E+02  0.41931899996E+02  0.19999986996E+01 0.  0.
        -13    1    3    3    0    0  0.38815340286E+02  0.37505514581E+01  0.10424369422E+02  0.40365528854E+02  0.10566000000E+00 0.  1.
         13    1    4    4    0    0 -0.16206917615E+02 -0.18743525307E+01 -0.62863857313E+01  0.17484484139E+02  0.10566000000E+00 0. -1.
        -13    1    4    4    0    0 -0.26600908798E+01  0.18743664508E+00 -0.84935507453E+00  0.28006756440E+01  0.10566000000E+00 0.  1.
        -14    1    4    4    0    0 -0.19948331791E+02 -0.20636355725E+01 -0.81478112918E+01  0.21646740213E+02  0.00000000000E+00 0.  1.
<mgrwt>
<rscale>  0 0.82153850E+02</rscale>
<asrwt>0</asrwt>
<pdfrwt beam="1">  1        2 0.59567882E-02 0.82153850E+02</pdfrwt>
<pdfrwt beam="2">  1       -1 0.67043547E-02 0.82153850E+02</pdfrwt>
<totfact> 0.13154288E+05</totfact>
</mgrwt>
</event>
<event>
 8    1  0.2433467E-024  0.7981159E+02  0.7818608E-02  0.1329587E+00
         -1   -1    0    0    0  501 -0.00000000000E+00  0.00000000000E+00  0.12267154374E+03  0.12267154385E+03  0.50400000000E-02 0.  1.
          2   -1    0    0  501    0  0.00000000000E+00 -0.00000000000E+00 -0.12981596744E+02  0.12981596995E+02  0.25500000000E-02 0. -1.
         24    2    1    2    0    0  0.00000000000E+00  0.35527136788E-14  0.10968994700E+03  0.13565314084E+03  0.79811591560E+02 0.  0.
         66    2    3    3    0    0 -0.46246675783E+01 -0.28245719979E+02  0.76769156623E+01  0.29700897005E+02  0.20000003794E+01 0.  0.
        -13    1    3    3    0    0  0.46246675783E+01  0.28245719979E+02  0.10201303134E+03  0.10595224384E+03  0.10566000000E+00 0.  1.
         13    1    4    4    0    0 -0.91850615117E+00 -0.58978200101E+01  0.14431745579E+01  0.61418117247E+01  0.10566000000E+00 0. -1.
        -13    1    4    4    0    0 -0.35162653285E+01 -0.16616515757E+02  0.46380072983E+01  0.17606674686E+02  0.10566000000E+00 0.  1.
        -14    1    4    4    0    0 -0.18989609862E+00 -0.57313842112E+01  0.15957338060E+01  0.59524105944E+01  0.00000000000E+00 0.  1.
<mgrwt>
<rscale>  0 0.79811592E+02</rscale>
<asrwt>0</asrwt>
<pdfrwt beam="1">  1        2 0.19971687E-02 0.79811592E+02</pdfrwt>
<pdfrwt beam="2">  1       -1 0.18872545E-01 0.79811592E+02</pdfrwt>
<totfact> 0.11394184E+05</totfact>
</mgrwt>
</event>
<event>
 8    1  0.2433467E-024  0.8133500E+02  0.7818608E-02  0.1325305E+00
         -1   -1    0    0    0  501 -0.00000000000E+00  0.00000000000E+00  0.42296800952E+01  0.42296830980E+01  0.50400000000E-02 0.  1.
          2   -1    0    0  501    0  0.00000000000E+00 -0.00000000000E+00 -0.39100950393E+03  0.39100950394E+03  0.25500000000E-02 0. -1.
         24    2    1    2    0    0  0.00000000000E+00  0.00000000000E+00 -0.38677982383E+03  0.39523918704E+03  0.81335003802E+02 0.  0.
         66    2    3    3    0    0  0.33111892843E+01  0.21774602938E+02 -0.35949203267E+03  0.36017165193E+03  0.19999987403E+01 0.  0.
        -13    1    3    3    0    0 -0.33111892843E+01 -0.21774602938E+02 -0.27287791166E+02  0.35067535105E+02  0.10566000000E+00 0.  1.
         13    1    4    4    0    0  0.14138781485E-01  0.12012215102E+01 -0.23709365933E+02  0.23740015375E+02  0.10566000000E+00 0. -1.
        -13    1    4    4    0    0  0.41411664246E+00  0.50001219307E+01 -0.73298553695E+02  0.73470142574E+02  0.10566000000E+00 0.  1.
         14    1    4    4    0    0  0.28829338604E+01  0.15573259497E+02 -0.26248411304E+03  0.26296149398E+03  0.00000000000E+00 0. -1.
<mgrwt>
<rscale>  0 0.81335004E+02</rscale>
<asrwt>0</asrwt>
<pdfrwt beam="1">  1        2 0.60155280E-01 0.81335004E+02</pdfrwt>
<pdfrwt beam="2">  1       -1 0.65072056E-03 0.81335004E+02</pdfrwt>
<totfact> 0.26842153E+05</totfact>
</mgrwt>
</event>
<event>
 8    1  0.2433467E-024  0.8424186E+02  0.7818608E-02  0.1317427E+00
         -1   -1    0    0    0  501 -0.00000000000E+00  0.00000000000E+00  0.13200926466E+01  0.13201022677E+01  0.50400000000E-02 0.  1.
          2   -1    0    0  501    0  0.00000000000E+00 -0.00000000000E+00 -0.13439708849E+04  0.13439708849E+04  0.25500000000E-02 0. -1.
         24    2    1    2    0    0  0.88817841970E-15  0.35527136788E-14 -0.13426507922E+04  0.13452909871E+04  0.84241855525E+02 0.  0.
         66    2    3    3    0    0  0.50182009746E+01  0.23550879493E+02 -0.12231304508E+04  0.12233690882E+04  0.19999991470E+01 0.  0.
        -13    1    3    3    0    0 -0.50182009746E+01 -0.23550879493E+02 -0.11952034145E+03  0.12192189897E+03  0.10566000000E+00 0.  1.
         13    1    4    4    0    0  0.15173277569E+01  0.57302327163E+01 -0.28636184629E+03  0.28642321139E+03  0.10566000000E+00 0. -1.
        -13    1    4    4    0    0  0.41346675085E-01  0.95428988166E-01 -0.12266917625E+02  0.12267813509E+02  0.10566000000E+00 0. -1.
        -14    1    4    4    0    0  0.34595265426E+01  0.17725217789E+02 -0.92450168685E+03  0.92467806325E+03  0.00000000000E+00 0.  1.
<mgrwt>
<rscale>  0 0.84241856E+02</rscale>
<asrwt>0</asrwt>
<pdfrwt beam="1">  1        2 0.20676366E+00 0.84241856E+02</pdfrwt>
<pdfrwt beam="2">  1       -1 0.20309299E-03 0.84241856E+02</pdfrwt>
<totfact> 0.30045367E+05</totfact>
</mgrwt>
</event>
<event>
 8    1  0.2433467E-024  0.7826023E+02  0.7818608E-02  0.1334062E+00
         -1   -1    0    0    0  501 -0.00000000000E+00  0.00000000000E+00  0.21897238785E+02  0.21897239365E+02  0.50400000000E-02 0.  1.
          2   -1    0    0  501    0  0.00000000000E+00 -0.00000000000E+00 -0.69925069760E+02  0.69925069807E+02  0.25500000000E-02 0. -1.
         24    2    1    2    0    0  0.00000000000E+00  0.00000000000E+00 -0.48027830975E+02  0.91822309172E+02  0.78260232005E+02 0.  0.
         66    2    3    3    0    0 -0.15654625897E+02 -0.32266675431E+02 -0.42317729326E+02  0.55506719128E+02  0.19999994452E+01 0.  0.
        -13    1    3    3    0    0  0.15654625897E+02  0.32266675431E+02 -0.57101016491E+01  0.36315590043E+02  0.10566000000E+00 0.  1.
         13    1    4    4    0    0 -0.80599480429E+00 -0.27460404043E+01 -0.36182764034E+01  0.46144830365E+01  0.10566000000E+00 0. -1.
        -13    1    4    4    0    0 -0.43186528786E+01 -0.92145743455E+01 -0.11992796415E+02  0.15728873861E+02  0.10566000000E+00 0.  1.
        -14    1    4    4    0    0 -0.10529978214E+02 -0.20306060681E+02 -0.26706656507E+02  0.35163362230E+02  0.00000000000E+00 0.  1.
<mgrwt>
<rscale>  0 0.78260232E+02</rscale>
<asrwt>0</asrwt>
<pdfrwt beam="1">  1        2 0.10757703E-01 0.78260232E+02</pdfrwt>
<pdfrwt beam="2">  1       -1 0.33688061E-02 0.78260232E+02</pdfrwt>
<totfact> 0.17130762E+05</totfact>
</mgrwt>
</event>
<event>
 8    1  0.2433467E-024  0.7820550E+02  0.7818608E-02  0.1334222E+00
         -1   -1    0    0    0  501 -0.00000000000E+00  0.00000000000E+00  0.48977825471E+01  0.48977851403E+01  0.50400000000E-02 0.  1.
          2   -1    0    0  501    0  0.00000000000E+00 -0.00000000000E+00 -0.31218715012E+03  0.31218715013E+03  0.25500000000E-02 0. -1.
         24    2    1    2    0    0 -0.44408920985E-15  0.00000000000E+00 -0.30728936758E+03  0.31708493527E+03  0.78205503338E+02 0.  0.
         66    2    3    3    0    0 -0.15394332573E+01 -0.17577085512E+02 -0.29511280959E+03  0.29564656971E+03  0.20000008594E+01 0.  0.
        -13    1    3    3    0    0  0.15394332573E+01  0.17577085512E+02 -0.12176557983E+02  0.21438365567E+02  0.10566000000E+00 0.  1.
         13    1    4    4    0    0  0.26710714966E+00 -0.33849467522E+01 -0.61560533317E+02  0.61654193994E+02  0.10566000000E+00 0. -1.
        -13    1    4    4    0    0 -0.85491748172E+00 -0.46105280699E+01 -0.70099424568E+02  0.70256162305E+02  0.10566000000E+00 0.  1.
         14    1    4    4    0    0 -0.95162292528E+00 -0.95816106899E+01 -0.16345285171E+03  0.16373621341E+03  0.00000000000E+00 0. -1.
<mgrwt>
<rscale>  0 0.78205503E+02</rscale>
<asrwt>0</asrwt>
<pdfrwt beam="1">  1        2 0.48028777E-01 0.78205503E+02</pdfrwt>
<pdfrwt beam="2">  1       -1 0.75350545E-03 0.78205503E+02</pdfrwt>
<totfact> 0.27446734E+05</totfact>
</mgrwt>
</event>
<event>
 8    1  0.2433467E-024  0.8592211E+02  0.7818608E-02  0.1313039E+00
         -1   -1    0    0    0  501 -0.00000000000E+00  0.00000000000E+00  0.35453985960E+03  0.35453985963E+03  0.50400000000E-02 0.  1.
          2   -1    0    0  501    0  0.00000000000E+00 -0.00000000000E+00 -0.52057678692E+01  0.52057684937E+01  0.25500000000E-02 0. -1.
         24    2    1    2    0    0  0.00000000000E+00  0.00000000000E+00  0.34933409173E+03  0.35974562813E+03  0.85922111897E+02 0.  0.
         66    2    3    3    0    0  0.19691345513E+02 -0.34767742391E+02  0.10894580070E+03  0.11605917667E+03  0.19999996698E+01 0.  0.
        -13    1    3    3    0    0 -0.19691345513E+02  0.34767742391E+02  0.24038829103E+03  0.24368645146E+03  0.10566000000E+00 0.  1.
         13    1    4    4    0    0  0.68607370469E+01 -0.13295902168E+02  0.42083613335E+02  0.44664218371E+02  0.10566000000E+00 0. -1.
        -13    1    4    4    0    0  0.96975807773E+00 -0.19293635599E+01  0.51915136840E+01  0.56236867660E+01  0.10566000000E+00 0.  1.
         14    1    4    4    0    0  0.11860850388E+02 -0.19542476663E+02  0.61670673682E+02  0.65771271528E+02  0.00000000000E+00 0. -1.
<mgrwt>
<rscale>  0 0.85922112E+02</rscale>
<asrwt>0</asrwt>
<pdfrwt beam="1">  1        2 0.80088721E-03 0.85922112E+02</pdfrwt>
<pdfrwt beam="2">  1       -1 0.54544608E-01 0.85922112E+02</pdfrwt>
<totfact> 0.66892979E+04</totfact>
</mgrwt>
</event>
<event>
 8    1  0.2433467E-024  0.7956516E+02  0.7818608E-02  0.1330290E+00
         -1   -1    0    0    0  501 -0.00000000000E+00  0.00000000000E+00  0.36720492403E+02  0.36720492749E+02  0.50400000000E-02 0.  1.
          2   -1    0    0  501    0  0.00000000000E+00 -0.00000000000E+00 -0.43100008924E+02  0.43100008999E+02  0.25500000000E-02 0. -1.
         24    2    1    2    0    0  0.00000000000E+00  0.00000000000E+00 -0.63795165207E+01  0.79820501748E+02  0.79565157376E+02 0.  0.
         66    2    3    3    0    0 -0.35177082916E+02 -0.16086816799E+02 -0.12410151559E+02  0.40672161295E+02  0.20000013767E+01 0.  0.
        -13    1    3    3    0    0  0.35177082916E+02  0.16086816799E+02  0.60306350382E+01  0.39148340453E+02  0.10566000000E+00 0.  1.
         13    1    4    4    0    0 -0.10632019580E+02 -0.55097965233E+01 -0.35239659038E+01  0.12483076456E+02  0.10566000000E+00 0. -1.
        -13    1    4    4    0    0 -0.20675847244E+02 -0.84470166189E+01 -0.74031869293E+01  0.23530004033E+02  0.10566000000E+00 0.  1.
        -14    1    4    4    0    0 -0.38692160917E+01 -0.21300036572E+01 -0.14829987257E+01  0.46590808068E+01  0.00000000000E+00 0.  1.
<mgrwt>
<rscale>  0 0.79565157E+02</rscale>
<asrwt>0</asrwt>
<pdfrwt beam="1">  1        2 0.66307706E-02 0.79565157E+02</pdfrwt>
<pdfrwt beam="2">  1       -1 0.56493066E-02 0.79565157E+02</pdfrwt>
<totfact> 0.14696388E+05</totfact>
</mgrwt>
</event>
<event>
 8    1  0.2433467E-024  0.7959976E+02  0.7818608E-02  0.1330191E+00
          2   -1    0    0  501    0  0.00000000000E+00  0.00000000000E+00  0.10020105716E+04  0.10020105716E+04  0.25500000000E-02 0. -1.
         -1   -1    0    0    0  501 -0.00000000000E+00 -0.00000000000E+00 -0.15808479686E+01  0.15808560028E+01  0.50400000000E-02 0.  1.
         24    2    1    2    0    0  0.35527136788E-14  0.00000000000E+00  0.10004297236E+04  0.10035914276E+04  0.79599759039E+02 0.  0.
         66    2    3    3    0    0  0.17744952206E+02 -0.11847599555E+02  0.92374771969E+03  0.92399626546E+03  0.20000032569E+01 0.  0.
        -13    1    3    3    0    0 -0.17744952206E+02  0.11847599555E+02  0.76682003927E+02  0.79595162129E+02  0.10566000000E+00 0.  1.
         13    1    4    4    0    0  0.10079997495E+02 -0.65097691456E+01  0.51902482887E+03  0.51916352683E+03  0.10566000000E+00 0. -1.
        -13    1    4    4    0    0  0.32190567022E+01 -0.21699037418E+01  0.19599052763E+03  0.19602900013E+03  0.10566000000E+00 0.  1.
        -14    1    4    4    0    0  0.44458980086E+01 -0.31679266677E+01  0.20873236319E+03  0.20880373850E+03  0.00000000000E+00 0.  1.
<mgrwt>
<rscale>  0 0.79599759E+02</rscale>
<asrwt>0</asrwt>
<pdfrwt beam="1">  1        2 0.15415536E+00 0.79599759E+02</pdfrwt>
<pdfrwt beam="2">  1       -1 0.24320818E-03 0.79599759E+02</pdfrwt>
<totfact> 0.35695764E+05</totfact>
</mgrwt>
</event>
<event>
 8    1  0.2433467E-024  0.7797234E+02  0.7818608E-02  0.1334906E+00
          2   -1    0    0  501    0  0.00000000000E+00  0.00000000000E+00  0.67495320871E+03  0.67495320871E+03  0.25500000000E-02 0. -1.
         -1   -1    0    0    0  501 -0.00000000000E+00 -0.00000000000E+00 -0.22518887327E+01  0.22518943727E+01  0.50400000000E-02 0.  1.
         24    2    1    2    0    0  0.00000000000E+00  0.00000000000E+00  0.67270131998E+03  0.67720510309E+03  0.77972339638E+02 0.  0.
         66    2    3    3    0    0  0.16910104374E+02 -0.59017262204E+00  0.64137306095E+03  0.64159933232E+03  0.19999994734E+01 0.  0.
        -13    1    3    3    0    0 -0.16910104374E+02  0.59017262204E+00  0.31328259029E+02  0.35605770762E+02  0.10566000000E+00 0.  1.
         13    1    4    4    0    0  0.36829805363E+01 -0.47445325493E+00  0.12883394537E+03  0.12888749394E+03  0.10566000000E+00 0. -1.
        -13    1    4    4    0    0  0.19805312029E+01 -0.99052572482E-01  0.98431989351E+02  0.98452018806E+02  0.10566000000E+00 0.  1.
         14    1    4    4    0    0  0.11246592635E+02 -0.16666794631E-01  0.41410712623E+03  0.41425981957E+03  0.00000000000E+00 0. -1.
<mgrwt>
<rscale>  0 0.77972340E+02</rscale>
<asrwt>0</asrwt>
<pdfrwt beam="1">  1        2 0.10383924E+00 0.77972340E+02</pdfrwt>
<pdfrwt beam="2">  1       -1 0.34644391E-03 0.77972340E+02</pdfrwt>
<totfact> 0.35452379E+05</totfact>
</mgrwt>
</event>
<event>
 8    1  0.2433467E-024  0.7951230E+02  0.7818608E-02  0.1330441E+00
          2   -1    0    0  501    0  0.00000000000E+00  0.00000000000E+00  0.32556759236E+02  0.32556759336E+02  0.25500000000E-02 0. -1.
         -1   -1    0    0    0  501 -0.00000000000E+00 -0.00000000000E+00 -0.48547563286E+02  0.48547563548E+02  0.50400000000E-02 0.  1.
         24    2    1    2    0    0  0.00000000000E+00  0.00000000000E+00 -0.15990804050E+02  0.81104322884E+02  0.79512297013E+02 0.  0.
         66    2    3    3    0    0  0.31236848859E+02  0.88965357849E+01  0.15341296837E+02  0.35975609345E+02  0.20000008699E+01 0.  0.
        -13    1    3    3    0    0 -0.31236848859E+02 -0.88965357849E+01 -0.31332100888E+02  0.45128713539E+02  0.10566000000E+00 0.  1.
         13    1    4    4    0    0  0.28590415197E+02  0.81738828805E+01  0.14342506887E+02  0.33014282823E+02  0.10566000000E+00 0. -1.
        -13    1    4    4    0    0  0.24315198929E+01  0.61233510417E+00  0.10393558051E+01  0.27163703346E+01  0.10566000000E+00 0.  1.
         14    1    4    4    0    0  0.21491376969E+00  0.11031780018E+00 -0.40565854623E-01  0.24495618792E+00  0.00000000000E+00 0. -1.
<mgrwt>
<rscale>  0 0.79512297E+02</rscale>
<asrwt>0</asrwt>
<pdfrwt beam="1">  1        2 0.50087322E-02 0.79512297E+02</pdfrwt>
<pdfrwt beam="2">  1       -1 0.74688560E-02 0.79512297E+02</pdfrwt>
<totfact> 0.13910232E+05</totfact>
</mgrwt>
</event>
<event>
 8    1  0.2433467E-024  0.7949460E+02  0.7818608E-02  0.1330492E+00
          2   -1    0    0  501    0  0.00000000000E+00  0.00000000000E+00  0.10440321997E+04  0.10440321997E+04  0.25500000000E-02 0. -1.
         -1   -1    0    0    0  501 -0.00000000000E+00 -0.00000000000E+00 -0.15132133423E+01  0.15132217355E+01  0.50400000000E-02 0.  1.
         24    2    1    2    0    0  0.00000000000E+00  0.00000000000E+00  0.10425189864E+04  0.10455454215E+04  0.79494599661E+02 0.  0.
         66    2    3    3    0    0  0.22816015723E+02 -0.11526255844E+02  0.92147747523E+03  0.92183412961E+03  0.20000002531E+01 0.  0.
        -13    1    3    3    0    0 -0.22816015723E+02  0.11526255844E+02  0.12104151117E+03  0.12371129187E+03  0.10566000000E+00 0.  1.
         13    1    4    4    0    0  0.74181271692E+01 -0.38592416175E+01  0.29116933896E+03  0.29128940501E+03  0.10566000000E+00 0. -1.
        -13    1    4    4    0    0  0.14615725837E+02 -0.70508896213E+01  0.58127516067E+03  0.58150164063E+03  0.10566000000E+00 0.  1.
        -14    1    4    4    0    0  0.78216271682E+00 -0.61612460546E+00  0.49032975604E+02  0.49043083963E+02  0.00000000000E+00 0.  1.
<mgrwt>
<rscale>  0 0.79494600E+02</rscale>
<asrwt>0</asrwt>
<pdfrwt beam="1">  1        2 0.16062091E+00 0.79494600E+02</pdfrwt>
<pdfrwt beam="2">  1       -1 0.23280187E-03 0.79494600E+02</pdfrwt>
<totfact> 0.35855966E+05</totfact>
</mgrwt>
</event>
<event>
 8    1  0.2433467E-024  0.7925883E+02  0.7818608E-02  0.1331168E+00
         -1   -1    0    0    0  501 -0.00000000000E+00  0.00000000000E+00  0.32363531915E+01  0.32363571159E+01  0.50400000000E-02 0.  1.
          2   -1    0    0  501    0  0.00000000000E+00 -0.00000000000E+00 -0.48526520236E+03  0.48526520236E+03  0.25500000000E-02 0. -1.
         24    2    1    2    0    0  0.17763568394E-14  0.00000000000E+00 -0.48202884916E+03  0.48850155948E+03  0.79258830336E+02 0.  0.
         66    2    3    3    0    0  0.14438969614E+02 -0.35573809957E+02 -0.30108411001E+03  0.30352861662E+03  0.20000019531E+01 0.  0.
        -13    1    3    3    0    0 -0.14438969614E+02  0.35573809957E+02 -0.18094473915E+03  0.18497294286E+03  0.10566000000E+00 0.  1.
         13    1    4    4    0    0  0.65806918093E+01 -0.16914418807E+02 -0.14626992365E+03  0.14739167140E+03  0.10566000000E+00 0. -1.
        -13    1    4    4    0    0  0.41148216208E+01 -0.10326953380E+02 -0.80802125181E+02  0.81563302538E+02  0.10566000000E+00 0.  1.
         14    1    4    4    0    0  0.37434561835E+01 -0.83324377708E+01 -0.74012061179E+02  0.74573642685E+02  0.00000000000E+00 0. -1.
<mgrwt>
<rscale>  0 0.79258830E+02</rscale>
<asrwt>0</asrwt>
<pdfrwt beam="1">  1        2 0.74656127E-01 0.79258830E+02</pdfrwt>
<pdfrwt beam="2">  1       -1 0.49790118E-03 0.79258830E+02</pdfrwt>
<totfact> 0.30900502E+05</totfact>
</mgrwt>
</event>
<event>
 8    1  0.2433467E-024  0.7723805E+02  0.7818608E-02  0.1337077E+00
          2   -1    0    0  501    0  0.00000000000E+00  0.00000000000E+00  0.71628516900E+03  0.71628516901E+03  0.25500000000E-02 0. -1.
         -1   -1    0    0    0  501 -0.00000000000E+00 -0.00000000000E+00 -0.20821693561E+01  0.20821754559E+01  0.50400000000E-02 0.  1.
         24    2    1    2    0    0  0.00000000000E+00 -0.17763568394E-14  0.71420299965E+03  0.71836734446E+03  0.77238053360E+02 0.  0.
         66    2    3    3    0    0  0.26778862299E+02 -0.10887436843E+02  0.59515089707E+03  0.59585588362E+03  0.20000022493E+01 0.  0.
        -13    1    3    3    0    0 -0.26778862299E+02  0.10887436843E+02  0.11905210257E+03  0.12251146084E+03  0.10566000000E+00 0.  1.
         13    1    4    4    0    0  0.14707709119E+02 -0.61820525871E+01  0.31247706697E+03  0.31288410479E+03  0.10566000000E+00 0. -1.
        -13    1    4    4    0    0  0.15599297441E+01 -0.89452008318E+00  0.39359387337E+02  0.39400584800E+02  0.10566000000E+00 0.  1.
         14    1    4    4    0    0  0.10511223436E+02 -0.38108641725E+01  0.24331444277E+03  0.24357119403E+03  0.00000000000E+00 0. -1.
<mgrwt>
<rscale>  0 0.77238053E+02</rscale>
<asrwt>0</asrwt>
<pdfrwt beam="1">  1        2 0.11019774E+00 0.77238053E+02</pdfrwt>
<pdfrwt beam="2">  1       -1 0.32033414E-03 0.77238053E+02</pdfrwt>
<totfact> 0.36834143E+05</totfact>
</mgrwt>
</event>
<event>
 8    1  0.2433467E-024  0.8190178E+02  0.7818608E-02  0.1323739E+00
         -1   -1    0    0    0  501 -0.00000000000E+00  0.00000000000E+00  0.18765815823E+03  0.18765815830E+03  0.50400000000E-02 0.  1.
          2   -1    0    0  501    0  0.00000000000E+00 -0.00000000000E+00 -0.89363296555E+01  0.89363300193E+01  0.25500000000E-02 0. -1.
         24    2    1    2    0    0  0.17763568394E-14  0.71054273576E-14  0.17872182857E+03  0.19659448832E+03  0.81901775485E+02 0.  0.
         66    2    3    3    0    0 -0.12499486189E+02 -0.34712426100E+02  0.46894271312E+02  0.59701443575E+02  0.20000005955E+01 0.  0.
        -13    1    3    3    0    0  0.12499486189E+02  0.34712426100E+02  0.13182755726E+03  0.13689304474E+03  0.10566000000E+00 0.  1.
         13    1    4    4    0    0 -0.45913670822E+01 -0.10630584800E+02  0.15008098537E+02  0.18956375461E+02  0.10566000000E+00 0. -1.
        -13    1    4    4    0    0 -0.19745691573E+00 -0.88634145800E+00  0.96498339483E+00  0.13292657378E+01  0.10566000000E+00 0. -1.
        -14    1    4    4    0    0 -0.77106621907E+01 -0.23195499842E+02  0.30921189380E+02  0.39415802377E+02  0.00000000000E+00 0.  1.
<mgrwt>
<rscale>  0 0.81901775E+02</rscale>
<asrwt>0</asrwt>
<pdfrwt beam="1">  1        2 0.13748201E-02 0.81901775E+02</pdfrwt>
<pdfrwt beam="2">  1       -1 0.28870483E-01 0.81901775E+02</pdfrwt>
<totfact> 0.95617015E+04</totfact>
</mgrwt>
</event>
<event>
 8    1  0.2433467E-024  0.7981572E+02  0.7818608E-02  0.1329575E+00
         -1   -1    0    0    0  501 -0.00000000000E+00  0.00000000000E+00  0.59044185747E+02  0.59044185962E+02  0.50400000000E-02 0.  1.
          2   -1    0    0  501    0  0.00000000000E+00 -0.00000000000E+00 -0.26973650612E+02  0.26973650733E+02  0.25500000000E-02 0. -1.
         24    2    1    2    0    0  0.35527136788E-14  0.00000000000E+00  0.32070535134E+02  0.86017836695E+02  0.79815719040E+02 0.  0.
         66    2    3    3    0    0  0.20681521269E+02 -0.45439208471E+01 -0.20378263259E+02  0.29455833940E+02  0.20000002571E+01 0.  0.
        -13    1    3    3    0    0 -0.20681521269E+02  0.45439208471E+01  0.52448798393E+02  0.56562002754E+02  0.10566000000E+00 0.  1.
         13    1    4    4    0    0  0.12965701702E+02 -0.30239306837E+01 -0.11939371811E+02  0.17883325772E+02  0.10566000000E+00 0. -1.
        -13    1    4    4    0    0  0.34824323878E+01 -0.39969969710E+00 -0.42798611743E+01  0.55331248757E+01  0.10566000000E+00 0.  1.
        -14    1    4    4    0    0  0.42333871791E+01 -0.11202904662E+01 -0.41590302737E+01  0.60393832925E+01  0.00000000000E+00 0.  1.
<mgrwt>
<rscale>  0 0.79815719E+02</rscale>
<asrwt>0</asrwt>
<pdfrwt beam="1">  1        2 0.41497925E-02 0.79815719E+02</pdfrwt>
<pdfrwt beam="2">  1       -1 0.90837209E-02 0.79815719E+02</pdfrwt>
<totfact> 0.13262211E+05</totfact>
</mgrwt>
</event>
<event>
 8    1  0.2433467E-024  0.7965727E+02  0.7818608E-02  0.1330027E+00
          2   -1    0    0  501    0  0.00000000000E+00  0.00000000000E+00  0.19900738882E+03  0.19900738883E+03  0.25500000000E-02 0. -1.
         -1   -1    0    0    0  501 -0.00000000000E+00 -0.00000000000E+00 -0.79711616194E+01  0.79711632128E+01  0.50400000000E-02 0.  1.
         24    2    1    2    0    0  0.00000000000E+00  0.35527136788E-14  0.19103622720E+03  0.20697855205E+03  0.79657271515E+02 0.  0.
         66    2    3    3    0    0  0.58127412832E+01  0.30263138781E+02  0.16103782960E+03  0.16397203449E+03  0.20000002755E+01 0.  0.
        -13    1    3    3    0    0 -0.58127412832E+01 -0.30263138781E+02  0.29998397596E+02  0.43006517558E+02  0.10566000000E+00 0.  1.
         13    1    4    4    0    0  0.82943079326E+00  0.43631254523E+01  0.21915181376E+02  0.22360929272E+02  0.10566000000E+00 0. -1.
        -13    1    4    4    0    0  0.48525005825E+01  0.22047510838E+02  0.11845034497E+03  0.12058248166E+03  0.10566000000E+00 0.  1.
        -14    1    4    4    0    0  0.13080990753E+00  0.38525024914E+01  0.20672303256E+02  0.21028623555E+02  0.00000000000E+00 0.  1.
<mgrwt>
<rscale>  0 0.79657272E+02</rscale>
<asrwt>0</asrwt>
<pdfrwt beam="1">  1        2 0.30616521E-01 0.79657272E+02</pdfrwt>
<pdfrwt beam="2">  1       -1 0.12263327E-02 0.79657272E+02</pdfrwt>
<totfact> 0.22271344E+05</totfact>
</mgrwt>
</event>
<event>
 8    1  0.2433467E-024  0.8106789E+02  0.7818608E-02  0.1326048E+00
          2   -1    0    0  501    0  0.00000000000E+00  0.00000000000E+00  0.27606611900E+03  0.27606611901E+03  0.25500000000E-02 0. -1.
         -1   -1    0    0    0  501 -0.00000000000E+00 -0.00000000000E+00 -0.59514737366E+01  0.59514758707E+01  0.50400000000E-02 0.  1.
         24    2    1    2    0    0 -0.71054273576E-14  0.44408920985E-15  0.27011464527E+03  0.28201759488E+03  0.81067886598E+02 0.  0.
         66    2    3    3    0    0  0.33010273616E+02 -0.33142997444E+01  0.21600381846E+03  0.21854590443E+03  0.20000022415E+01 0.  0.
        -13    1    3    3    0    0 -0.33010273616E+02  0.33142997444E+01  0.54110826809E+02  0.63471690453E+02  0.10566000000E+00 0.  1.
         13    1    4    4    0    0  0.96509668502E+01 -0.10231389022E+01  0.59773175920E+02  0.60556021154E+02  0.10566000000E+00 0. -1.
        -13    1    4    4    0    0  0.20170888518E+01 -0.29050824676E-01  0.11372850590E+02  0.11550860832E+02  0.10566000000E+00 0.  1.
        -14    1    4    4    0    0  0.21342217914E+02 -0.22621100176E+01  0.14485779195E+03  0.14643902245E+03  0.00000000000E+00 0.  1.
<mgrwt>
<rscale>  0 0.81067887E+02</rscale>
<asrwt>0</asrwt>
<pdfrwt beam="1">  1        2 0.42471704E-01 0.81067887E+02</pdfrwt>
<pdfrwt beam="2">  1       -1 0.91561165E-03 0.81067887E+02</pdfrwt>
<totfact> 0.23891279E+05</totfact>
</mgrwt>
</event>
<event>
 8    1  0.2433467E-024  0.8470205E+02  0.7818608E-02  0.1316214E+00
         -1   -1    0    0    0  501 -0.00000000000E+00  0.00000000000E+00  0.56546658706E+01  0.56546681166E+01  0.50400000000E-02 0.  1.
          2   -1    0    0  501    0  0.00000000000E+00 -0.00000000000E+00 -0.31719093990E+03  0.31719093991E+03  0.25500000000E-02 0. -1.
         24    2    1    2    0    0 -0.22204460493E-15  0.00000000000E+00 -0.31153627403E+03  0.32284560803E+03  0.84702045938E+02 0.  0.
         66    2    3    3    0    0  0.18198257853E+01  0.34936381823E+02 -0.24667366067E+03  0.24915007005E+03  0.20000001649E+01 0.  0.
        -13    1    3    3    0    0 -0.18198257853E+01 -0.34936381823E+02 -0.64862613364E+02  0.73695537974E+02  0.10566000000E+00 0.  1.
         13    1    4    4    0    0 -0.11273210238E+00  0.80820514915E+01 -0.59820451451E+02  0.60364143667E+02  0.10566000000E+00 0. -1.
        -13    1    4    4    0    0  0.34577361151E+00  0.22114148472E+01 -0.17003958969E+02  0.17150967893E+02  0.10566000000E+00 0.  1.
         14    1    4    4    0    0  0.15867842762E+01  0.24642915485E+02 -0.16984925025E+03  0.17163495849E+03  0.00000000000E+00 0. -1.
<mgrwt>
<rscale>  0 0.84702046E+02</rscale>
<asrwt>0</asrwt>
<pdfrwt beam="1">  1        2 0.48798592E-01 0.84702046E+02</pdfrwt>
<pdfrwt beam="2">  1       -1 0.86994902E-03 0.84702046E+02</pdfrwt>
<totfact> 0.22388800E+05</totfact>
</mgrwt>
</event>
<event>
 8    1  0.2433467E-024  0.7816849E+02  0.7818608E-02  0.1334331E+00
         -1   -1    0    0    0  501 -0.00000000000E+00  0.00000000000E+00  0.10420572309E+02  0.10420573528E+02  0.50400000000E-02 0.  1.
          2   -1    0    0  501    0  0.00000000000E+00 -0.00000000000E+00 -0.14659254622E+03  0.14659254624E+03  0.25500000000E-02 0. -1.
         24    2    1    2    0    0  0.17763568394E-14  0.35527136788E-14 -0.13617197391E+03  0.15701311977E+03  0.78168493020E+02 0.  0.
         66    2    3    3    0    0 -0.14690866514E+02 -0.27502361104E+02 -0.11538162715E+03  0.11953711268E+03  0.19999994078E+01 0.  0.
        -13    1    3    3    0    0  0.14690866514E+02  0.27502361104E+02 -0.20790346759E+02  0.37476007093E+02  0.10566000000E+00 0.  1.
         13    1    4    4    0    0 -0.48982059631E+01 -0.98354354220E+01 -0.42418473261E+02  0.43818560559E+02  0.10566000000E+00 0. -1.
        -13    1    4    4    0    0 -0.76294064694E+01 -0.14277236703E+02 -0.60054822692E+02  0.62198394059E+02  0.10566000000E+00 0.  1.
        -14    1    4    4    0    0 -0.21632540819E+01 -0.33896889787E+01 -0.12908331201E+02  0.13520158061E+02  0.00000000000E+00 0.  1.
<mgrwt>
<rscale>  0 0.78168493E+02</rscale>
<asrwt>0</asrwt>
<pdfrwt beam="1">  1        2 0.22552698E-01 0.78168493E+02</pdfrwt>
<pdfrwt beam="2">  1       -1 0.16031652E-02 0.78168493E+02</pdfrwt>
<totfact> 0.21141949E+05</totfact>
</mgrwt>
</event>
<event>
 8    1  0.2433467E-024  0.8413542E+02  0.7818608E-02  0.1317709E+00
         -1   -1    0    0    0  501 -0.00000000000E+00  0.00000000000E+00  0.61335752573E+01  0.61335773280E+01  0.50400000000E-02 0.  1.
          2   -1    0    0  501    0  0.00000000000E+00 -0.00000000000E+00 -0.28852534547E+03  0.28852534548E+03  0.25500000000E-02 0. -1.
         24    2    1    2    0    0 -0.35527136788E-14  0.35527136788E-14 -0.28239177021E+03  0.29465892281E+03  0.84135420052E+02 0.  0.
         66    2    3    3    0    0  0.31750339722E+02 -0.21195933936E+02 -0.20297137185E+03  0.20653989803E+03  0.19999999497E+01 0.  0.
        -13    1    3    3    0    0 -0.31750339722E+02  0.21195933936E+02 -0.79420398360E+02  0.88119024776E+02  0.10566000000E+00 0.  1.
         13    1    4    4    0    0  0.11189466955E+02 -0.73903197044E+01 -0.74819763240E+02  0.76012032807E+02  0.10566000000E+00 0. -1.
        -13    1    4    4    0    0  0.68285194346E+01 -0.40052944135E+01 -0.42151623733E+02  0.42888711899E+02  0.10566000000E+00 0.  1.
         14    1    4    4    0    0  0.13732353333E+02 -0.98003198179E+01 -0.85999984881E+02  0.87639153329E+02  0.00000000000E+00 0. -1.
<mgrwt>
<rscale>  0 0.84135420E+02</rscale>
<asrwt>0</asrwt>
<pdfrwt beam="1">  1        2 0.44388504E-01 0.84135420E+02</pdfrwt>
<pdfrwt beam="2">  1       -1 0.94362735E-03 0.84135420E+02</pdfrwt>
<totfact> 0.22016475E+05</totfact>
</mgrwt>
</event>
<event>
 8    1  0.2433467E-024  0.7987777E+02  0.7818608E-02  0.1329399E+00
         -1   -1    0    0    0  501 -0.00000000000E+00  0.00000000000E+00  0.39368977027E+02  0.39368977350E+02  0.50400000000E-02 0.  1.
          2   -1    0    0  501    0  0.00000000000E+00 -0.00000000000E+00 -0.40517042569E+02  0.40517042649E+02  0.25500000000E-02 0. -1.
         24    2    1    2    0    0 -0.88817841970E-15  0.00000000000E+00 -0.11480655415E+01  0.79886019999E+02  0.79877769979E+02 0.  0.
         66    2    3    3    0    0 -0.65494874040E+01  0.35978275183E+02 -0.16569088501E+02  0.40197845645E+02  0.20000075853E+01 0.  0.
        -13    1    3    3    0    0  0.65494874040E+01 -0.35978275183E+02  0.15421022959E+02  0.39688174354E+02  0.10566000000E+00 0.  1.
         13    1    4    4    0    0 -0.53122867238E+01  0.28079177259E+02 -0.12778315270E+02  0.31304266338E+02  0.10566000000E+00 0. -1.
        -13    1    4    4    0    0 -0.83602044482E+00  0.26965821635E+01 -0.14286246815E+01  0.31658518704E+01  0.10566000000E+00 0.  1.
         14    1    4    4    0    0 -0.40118023535E+00  0.52025157600E+01 -0.23621485492E+01  0.57277274361E+01  0.00000000000E+00 0. -1.
<mgrwt>
<rscale>  0 0.79877770E+02</rscale>
<asrwt>0</asrwt>
<pdfrwt beam="1">  1        2 0.62333912E-02 0.79877770E+02</pdfrwt>
<pdfrwt beam="2">  1       -1 0.60567657E-02 0.79877770E+02</pdfrwt>
<totfact> 0.14353473E+05</totfact>
</mgrwt>
</event>
<event>
 8    1  0.2433467E-024  0.8060858E+02  0.7818608E-02  0.1327333E+00
         -1   -1    0    0    0  501 -0.00000000000E+00  0.00000000000E+00  0.22549311065E+01  0.22549367389E+01  0.50400000000E-02 0.  1.
          2   -1    0    0  501    0  0.00000000000E+00 -0.00000000000E+00 -0.72039175257E+03  0.72039175258E+03  0.25500000000E-02 0. -1.
         24    2    1    2    0    0  0.35527136788E-14  0.00000000000E+00 -0.71813682147E+03  0.72264668932E+03  0.80608580399E+02 0.  0.
         66    2    3    3    0    0 -0.26789582801E+02  0.86479292325E+01 -0.61755883208E+03  0.61820334803E+03  0.20000012429E+01 0.  0.
        -13    1    3    3    0    0  0.26789582801E+02 -0.86479292325E+01 -0.10057798939E+03  0.10444334129E+03  0.10566000000E+00 0.  1.
         13    1    4    4    0    0 -0.62702804997E+01  0.18747387586E+01 -0.15606560874E+03  0.15620280554E+03  0.10566000000E+00 0. -1.
        -13    1    4    4    0    0 -0.62486238842E+01  0.26394546371E+01 -0.14076556926E+03  0.14092894903E+03  0.10566000000E+00 0. -1.
        -14    1    4    4    0    0 -0.14270678417E+02  0.41337358369E+01 -0.32072765408E+03  0.32107159345E+03  0.00000000000E+00 0.  1.
<mgrwt>
<rscale>  0 0.80608580E+02</rscale>
<asrwt>0</asrwt>
<pdfrwt beam="1">  1        2 0.11082932E+00 0.80608580E+02</pdfrwt>
<pdfrwt beam="2">  1       -1 0.34691349E-03 0.80608580E+02</pdfrwt>
<totfact> 0.33010092E+05</totfact>
</mgrwt>
</event>
<event>
 8    1  0.2433467E-024  0.7872804E+02  0.7818608E-02  0.1332700E+00
          2   -1    0    0  501    0  0.00000000000E+00  0.00000000000E+00  0.29092605307E+03  0.29092605309E+03  0.25500000000E-02 0. -1.
         -1   -1    0    0    0  501 -0.00000000000E+00 -0.00000000000E+00 -0.53261835857E+01  0.53261859703E+01  0.50400000000E-02 0.  1.
         24    2    1    2    0    0  0.35527136788E-14  0.00000000000E+00  0.28559986949E+03  0.29625223906E+03  0.78728036262E+02 0.  0.
         66    2    3    3    0    0 -0.30473027809E+02  0.11612786559E+02  0.22568247895E+03  0.22803518042E+03  0.19999925726E+01 0.  0.
        -13    1    3    3    0    0  0.30473027809E+02 -0.11612786559E+02  0.59917390544E+02  0.68217058637E+02  0.10566000000E+00 0.  1.
         13    1    4    4    0    0 -0.88222056231E+01  0.28978613093E+01  0.68659355628E+02  0.69284537896E+02  0.10566000000E+00 0. -1.
        -13    1    4    4    0    0 -0.18075029872E+02  0.69422106003E+01  0.13101929567E+03  0.13244231950E+03  0.10566000000E+00 0.  1.
        -14    1    4    4    0    0 -0.35757923141E+01  0.17727146493E+01  0.26003827648E+02  0.26308323022E+02  0.00000000000E+00 0.  1.
<mgrwt>
<rscale>  0 0.78728036E+02</rscale>
<asrwt>0</asrwt>
<pdfrwt beam="1">  1        2 0.44757860E-01 0.78728036E+02</pdfrwt>
<pdfrwt beam="2">  1       -1 0.81941295E-03 0.78728036E+02</pdfrwt>
<totfact> 0.26294050E+05</totfact>
</mgrwt>
</event>
<event>
 8    1  0.2433467E-024  0.7995604E+02  0.7818608E-02  0.1329176E+00
         -1   -1    0    0    0  501 -0.00000000000E+00  0.00000000000E+00  0.11236630600E+02  0.11236631730E+02  0.50400000000E-02 0.  1.
          2   -1    0    0  501    0  0.00000000000E+00 -0.00000000000E+00 -0.14223498618E+03  0.14223498621E+03  0.25500000000E-02 0. -1.
         24    2    1    2    0    0  0.00000000000E+00  0.35527136788E-14 -0.13099835558E+03  0.15347161794E+03  0.79956040087E+02 0.  0.
         66    2    3    3    0    0  0.22866076522E+02 -0.23622457162E+02 -0.10911448454E+03  0.11397740426E+03  0.20000019194E+01 0.  0.
        -13    1    3    3    0    0 -0.22866076522E+02  0.23622457162E+02 -0.21883871040E+02  0.39494213673E+02  0.10566000000E+00 0.  1.
         13    1    4    4    0    0  0.16005608919E+02 -0.16756620358E+02 -0.76113979730E+02  0.79563263615E+02  0.10566000000E+00 0. -1.
        -13    1    4    4    0    0  0.15592310845E+01 -0.18011209093E+01 -0.96129321624E+01  0.99042852796E+01  0.10566000000E+00 0.  1.
        -14    1    4    4    0    0  0.53012365188E+01 -0.50647158943E+01 -0.23387572651E+02  0.24509855369E+02  0.00000000000E+00 0.  1.
<mgrwt>
<rscale>  0 0.79956040E+02</rscale>
<asrwt>0</asrwt>
<pdfrwt beam="1">  1        2 0.21882304E-01 0.79956040E+02</pdfrwt>
<pdfrwt beam="2">  1       -1 0.17287126E-02 0.79956040E+02</pdfrwt>
<totfact> 0.19721317E+05</totfact>
</mgrwt>
</event>
<event>
 8    1  0.2433467E-024  0.7342595E+02  0.7818608E-02  0.1348816E+00
          2   -1    0    0  501    0  0.00000000000E+00  0.00000000000E+00  0.64676930655E+03  0.64676930656E+03  0.25500000000E-02 0. -1.
         -1   -1    0    0    0  501 -0.00000000000E+00 -0.00000000000E+00 -0.20839585755E+01  0.20839646700E+01  0.50400000000E-02 0.  1.
         24    2    1    2    0    0  0.88817841970E-15 -0.35527136788E-14  0.64468534798E+03  0.64885327123E+03  0.73425946956E+02 0.  0.
         66    2    3    3    0    0 -0.45964783957E+01  0.13328810654E+02  0.62186870436E+03  0.62203172770E+03  0.19999998574E+01 0.  0.
        -13    1    3    3    0    0  0.45964783957E+01 -0.13328810654E+02  0.22816643619E+02  0.26821543527E+02  0.10566000000E+00 0.  1.
         13    1    4    4    0    0 -0.23057506942E+01  0.83613692815E+01  0.39894449230E+03  0.39903878018E+03  0.10566000000E+00 0. -1.
        -13    1    4    4    0    0 -0.54186590819E+00  0.58721496136E+00  0.38507188265E+02  0.38515622184E+02  0.10566000000E+00 0.  1.
        -14    1    4    4    0    0 -0.17488617932E+01  0.43802264110E+01  0.18441702379E+03  0.18447732534E+03  0.00000000000E+00 0.  1.
<mgrwt>
<rscale>  0 0.73425947E+02</rscale>
<asrwt>0</asrwt>
<pdfrwt beam="1">  1        2 0.99503108E-01 0.73425947E+02</pdfrwt>
<pdfrwt beam="2">  1       -1 0.32060904E-03 0.73425947E+02</pdfrwt>
<totfact> 0.40973591E+05</totfact>
</mgrwt>
</event>
<event>
 8    1  0.2433467E-024  0.8096344E+02  0.7818608E-02  0.1326339E+00
          2   -1    0    0  501    0  0.00000000000E+00  0.00000000000E+00  0.57905914164E+03  0.57905914165E+03  0.25500000000E-02 0. -1.
         -1   -1    0    0    0  501 -0.00000000000E+00 -0.00000000000E+00 -0.28300532932E+01  0.28300577810E+01  0.50400000000E-02 0.  1.
         24    2    1    2    0    0  0.00000000000E+00  0.00000000000E+00  0.57622908835E+03  0.58188919943E+03  0.80963437133E+02 0.  0.
         66    2    3    3    0    0 -0.30031705706E+02 -0.11095537493E+02  0.46605166621E+03  0.46715433196E+03  0.19999980282E+01 0.  0.
        -13    1    3    3    0    0  0.30031705706E+02  0.11095537493E+02  0.11017742214E+03  0.11473486747E+03  0.10566000000E+00 0.  1.
         13    1    4    4    0    0 -0.15320232441E+02 -0.63464753916E+01  0.24423685051E+03  0.24479917806E+03  0.10566000000E+00 0. -1.
        -13    1    4    4    0    0 -0.48516801046E+01 -0.19589950750E+01  0.70949374817E+02  0.71142121226E+02  0.10566000000E+00 0.  1.
         14    1    4    4    0    0 -0.98597931607E+01 -0.27900670259E+01  0.15086544089E+03  0.15121303267E+03  0.00000000000E+00 0. -1.
<mgrwt>
<rscale>  0 0.80963437E+02</rscale>
<asrwt>0</asrwt>
<pdfrwt beam="1">  1        2 0.89086110E-01 0.80963437E+02</pdfrwt>
<pdfrwt beam="2">  1       -1 0.43539273E-03 0.80963437E+02</pdfrwt>
<totfact> 0.30864267E+05</totfact>
</mgrwt>
</event>
<event>
 8    1  0.2433467E-024  0.8115449E+02  0.7818608E-02  0.1325807E+00
          2   -1    0    0  501    0  0.00000000000E+00  0.00000000000E+00  0.13324175128E+03  0.13324175130E+03  0.25500000000E-02 0. -1.
         -1   -1    0    0    0  501 -0.00000000000E+00 -0.00000000000E+00 -0.12357332076E+02  0.12357333104E+02  0.50400000000E-02 0.  1.
         24    2    1    2    0    0  0.00000000000E+00  0.00000000000E+00  0.12088441920E+03  0.14559908440E+03  0.81154485854E+02 0.  0.
         66    2    3    3    0    0 -0.55227353825E+01 -0.27431666880E+02  0.11313828282E+03  0.11656443705E+03  0.19999981791E+01 0.  0.
        -13    1    3    3    0    0  0.55227353825E+01  0.27431666880E+02  0.77461363825E+01  0.29034647352E+02  0.10566000000E+00 0.  1.
         13    1    4    4    0    0 -0.19261420997E+01 -0.10963859245E+02  0.45543350205E+02  0.46884156651E+02  0.10566000000E+00 0. -1.
        -13    1    4    4    0    0 -0.33887961701E+00 -0.45397899957E+01  0.18511071794E+02  0.19062934601E+02  0.10566000000E+00 0.  1.
         14    1    4    4    0    0 -0.32577136658E+01 -0.11928017640E+02  0.49083860818E+02  0.50617345801E+02  0.00000000000E+00 0. -1.
<mgrwt>
<rscale>  0 0.81154486E+02</rscale>
<asrwt>0</asrwt>
<pdfrwt beam="1">  1        2 0.20498730E-01 0.81154486E+02</pdfrwt>
<pdfrwt beam="2">  1       -1 0.19011282E-02 0.81154486E+02</pdfrwt>
<totfact> 0.18570896E+05</totfact>
</mgrwt>
</event>
<event>
 8    1  0.2433467E-024  0.7981771E+02  0.7818608E-02  0.1329570E+00
          2   -1    0    0  501    0  0.00000000000E+00  0.00000000000E+00  0.76923089443E+03  0.76923089444E+03  0.25500000000E-02 0. -1.
         -1   -1    0    0    0  501 -0.00000000000E+00 -0.00000000000E+00 -0.20705283524E+01  0.20705344865E+01  0.50400000000E-02 0.  1.
         24    2    1    2    0    0  0.88817841970E-15 -0.35527136788E-14  0.76716036608E+03  0.77130142892E+03  0.79817710909E+02 0.  0.
         66    2    3    3    0    0  0.58040886321E+01 -0.18406327868E+02  0.72109970752E+03  0.72136070625E+03  0.19999951607E+01 0.  0.
        -13    1    3    3    0    0 -0.58040886321E+01  0.18406327868E+02  0.46060658561E+02  0.49940722678E+02  0.10566000000E+00 0.  1.
         13    1    4    4    0    0  0.36009478635E+01 -0.10110935110E+02  0.41661339690E+03  0.41675164244E+03  0.10566000000E+00 0. -1.
        -13    1    4    4    0    0  0.11336410817E+01 -0.57316253753E+01  0.21696025148E+03  0.21703893327E+03  0.10566000000E+00 0.  1.
        -14    1    4    4    0    0  0.10694996869E+01 -0.25637673831E+01  0.87526059143E+02  0.87570130535E+02  0.00000000000E+00 0.  1.
<mgrwt>
<rscale>  0 0.79817711E+02</rscale>
<asrwt>0</asrwt>
<pdfrwt beam="1">  1        2 0.11834319E+00 0.79817711E+02</pdfrwt>
<pdfrwt beam="2">  1       -1 0.31854336E-03 0.79817711E+02</pdfrwt>
<totfact> 0.34324601E+05</totfact>
</mgrwt>
</event>
<event>
 8    1  0.2433467E-024  0.7619528E+02  0.7818608E-02  0.1340209E+00
         -1   -1    0    0    0  501 -0.00000000000E+00  0.00000000000E+00  0.12117861337E+03  0.12117861348E+03  0.50400000000E-02 0.  1.
          2   -1    0    0  501    0  0.00000000000E+00 -0.00000000000E+00 -0.11977610371E+02  0.11977610642E+02  0.25500000000E-02 0. -1.
         24    2    1    2    0    0  0.00000000000E+00  0.00000000000E+00  0.10920100300E+03  0.13315622412E+03  0.76195281778E+02 0.  0.
         66    2    3    3    0    0  0.33744712294E+02 -0.12228587889E+02  0.32451412014E+02  0.48428691108E+02  0.20000027831E+01 0.  0.
        -13    1    3    3    0    0 -0.33744712294E+02  0.12228587889E+02  0.76749590986E+02  0.84727533011E+02  0.10566000000E+00 0.  1.
         13    1    4    4    0    0  0.15193533691E+02 -0.56174855212E+01  0.14818138106E+02  0.21954224891E+02  0.10566000000E+00 0. -1.
        -13    1    4    4    0    0  0.53326295628E+01 -0.13288594679E+01  0.53949910502E+01  0.77019411844E+01  0.10566000000E+00 0.  1.
        -14    1    4    4    0    0  0.13218549040E+02 -0.52822428996E+01  0.12238282858E+02  0.18772525032E+02  0.00000000000E+00 0.  1.
<mgrwt>
<rscale>  0 0.76195282E+02</rscale>
<asrwt>0</asrwt>
<pdfrwt beam="1">  1        2 0.18427093E-02 0.76195282E+02</pdfrwt>
<pdfrwt beam="2">  1       -1 0.18642863E-01 0.76195282E+02</pdfrwt>
<totfact> 0.12836645E+05</totfact>
</mgrwt>
</event>
<event>
 8    1  0.2433467E-024  0.7892677E+02  0.7818608E-02  0.1332125E+00
          2   -1    0    0  501    0  0.00000000000E+00  0.00000000000E+00  0.27733092628E+03  0.27733092630E+03  0.25500000000E-02 0. -1.
         -1   -1    0    0    0  501 -0.00000000000E+00 -0.00000000000E+00 -0.56155233691E+01  0.56155256309E+01  0.50400000000E-02 0.  1.
         24    2    1    2    0    0  0.00000000000E+00  0.00000000000E+00  0.27171540291E+03  0.28294645193E+03  0.78926766541E+02 0.  0.
         66    2    3    3    0    0  0.11600320828E+02  0.35822635220E+02  0.17798548045E+03  0.18193586749E+03  0.19999984290E+01 0.  0.
        -13    1    3    3    0    0 -0.11600320828E+02 -0.35822635220E+02  0.93729922470E+02  0.10101058443E+03  0.10566000000E+00 0.  1.
         13    1    4    4    0    0  0.72868779080E+01  0.22670015527E+02  0.11467894859E+03  0.11712514933E+03  0.10566000000E+00 0. -1.
        -13    1    4    4    0    0  0.37386740668E+01  0.10060770384E+02  0.48319890975E+02  0.49497674818E+02  0.10566000000E+00 0.  1.
         14    1    4    4    0    0  0.57476885301E+00  0.30918493094E+01  0.14986640884E+02  0.15313043341E+02  0.00000000000E+00 0. -1.
<mgrwt>
<rscale>  0 0.78926767E+02</rscale>
<asrwt>0</asrwt>
<pdfrwt beam="1">  1        2 0.42666282E-01 0.78926767E+02</pdfrwt>
<pdfrwt beam="2">  1       -1 0.86392714E-03 0.78926767E+02</pdfrwt>
<totfact> 0.25672603E+05</totfact>
</mgrwt>
</event>
<event>
 8    1  0.2433467E-024  0.7926093E+02  0.7818608E-02  0.1331162E+00
          2   -1    0    0  501    0  0.00000000000E+00  0.00000000000E+00  0.38168709076E+03  0.38168709077E+03  0.25500000000E-02 0. -1.
         -1   -1    0    0    0  501 -0.00000000000E+00 -0.00000000000E+00 -0.41148187834E+01  0.41148218700E+01  0.50400000000E-02 0.  1.
         24    2    1    2    0    0  0.44408920985E-15  0.17763568394E-14  0.37757227198E+03  0.38580191264E+03  0.79260931297E+02 0.  0.
         66    2    3    3    0    0  0.28096331221E+01  0.14362514799E+02  0.36803980877E+03  0.36833609206E+03  0.20000018373E+01 0.  0.
        -13    1    3    3    0    0 -0.28096331221E+01 -0.14362514799E+02  0.95324632120E+01  0.17465820581E+02  0.10566000000E+00 0.  1.
         13    1    4    4    0    0  0.12354905599E+01  0.79272245658E+01  0.19736531002E+03  0.19752833743E+03  0.10566000000E+00 0. -1.
        -13    1    4    4    0    0  0.31464854548E+00  0.21039882461E+00  0.90868806749E+01  0.90953744182E+01  0.10566000000E+00 0.  1.
        -14    1    4    4    0    0  0.12594940167E+01  0.62248914086E+01  0.16158761807E+03  0.16171238021E+03  0.00000000000E+00 0.  1.
<mgrwt>
<rscale>  0 0.79260931E+02</rscale>
<asrwt>0</asrwt>
<pdfrwt beam="1">  1        2 0.58721086E-01 0.79260931E+02</pdfrwt>
<pdfrwt beam="2">  1       -1 0.63304934E-03 0.79260931E+02</pdfrwt>
<totfact> 0.28473929E+05</totfact>
</mgrwt>
</event>
<event>
 8    1  0.2433467E-024  0.8483288E+02  0.7818608E-02  0.1315870E+00
         -1   -1    0    0    0  501 -0.00000000000E+00  0.00000000000E+00  0.19576101644E+02  0.19576102293E+02  0.50400000000E-02 0.  1.
          2   -1    0    0  501    0  0.00000000000E+00 -0.00000000000E+00 -0.91905653192E+02  0.91905653228E+02  0.25500000000E-02 0. -1.
         24    2    1    2    0    0  0.00000000000E+00 -0.35527136788E-14 -0.72329551548E+02  0.11148175552E+03  0.84832881519E+02 0.  0.
         66    2    3    3    0    0  0.19056047382E+02  0.20460608208E+02 -0.78059730016E+02  0.82940285002E+02  0.19999989976E+01 0.  0.
        -13    1    3    3    0    0 -0.19056047382E+02 -0.20460608208E+02  0.57301784674E+01  0.28541470519E+02  0.10566000000E+00 0.  1.
         13    1    4    4    0    0  0.13235929544E+02  0.13742735895E+02 -0.55215530088E+02  0.58419333681E+02  0.10566000000E+00 0. -1.
        -13    1    4    4    0    0  0.47530706538E+01  0.52211428995E+01 -0.17587173708E+02  0.18951829909E+02  0.10566000000E+00 0.  1.
         14    1    4    4    0    0  0.10670471845E+01  0.14967294139E+01 -0.52570262194E+01  0.55691214122E+01  0.00000000000E+00 0. -1.
<mgrwt>
<rscale>  0 0.84832882E+02</rscale>
<asrwt>0</asrwt>
<pdfrwt beam="1">  1        2 0.14139331E-01 0.84832882E+02</pdfrwt>
<pdfrwt beam="2">  1       -1 0.30117080E-02 0.84832882E+02</pdfrwt>
<totfact> 0.14786523E+05</totfact>
</mgrwt>
</event>
<event>
 8    1  0.2433467E-024  0.8040189E+02  0.7818608E-02  0.1327915E+00
          2   -1    0    0  501    0  0.00000000000E+00  0.00000000000E+00  0.25190754598E+02  0.25190754727E+02  0.25500000000E-02 0. -1.
         -1   -1    0    0    0  501 -0.00000000000E+00 -0.00000000000E+00 -0.64155116170E+02  0.64155116368E+02  0.50400000000E-02 0.  1.
         24    2    1    2    0    0 -0.88817841970E-15  0.00000000000E+00 -0.38964361572E+02  0.89345871095E+02  0.80401885606E+02 0.  0.
         66    2    3    3    0    0  0.43327627899E+01  0.35734115083E+02 -0.39323269998E+02  0.53348096255E+02  0.19999991246E+01 0.  0.
        -13    1    3    3    0    0 -0.43327627899E+01 -0.35734115083E+02  0.35890842552E+00  0.35997774840E+02  0.10566000000E+00 0.  1.
         13    1    4    4    0    0  0.18252135275E+00  0.34296967270E+00 -0.38207169955E+00  0.55505410529E+00  0.10566000000E+00 0.  1.
        -13    1    4    4    0    0  0.36194001722E+01  0.27685816274E+02 -0.30703667712E+02  0.41500974149E+02  0.10566000000E+00 0. -1.
         14    1    4    4    0    0  0.53084126501E+00  0.77053291363E+01 -0.82375305868E+01  0.11292068000E+02  0.00000000000E+00 0. -1.
<mgrwt>
<rscale>  0 0.80401886E+02</rscale>
<asrwt>0</asrwt>
<pdfrwt beam="1">  1        2 0.38755007E-02 0.80401886E+02</pdfrwt>
<pdfrwt beam="2">  1       -1 0.98700179E-02 0.80401886E+02</pdfrwt>
<totfact> 0.12816702E+05</totfact>
</mgrwt>
</event>
<event>
 8    1  0.2433467E-024  0.7988083E+02  0.7818608E-02  0.1329390E+00
          2   -1    0    0  501    0  0.00000000000E+00  0.00000000000E+00  0.76027061389E+02  0.76027061432E+02  0.25500000000E-02 0. -1.
         -1   -1    0    0    0  501 -0.00000000000E+00 -0.00000000000E+00 -0.20982483677E+02  0.20982484282E+02  0.50400000000E-02 0.  1.
         24    2    1    2    0    0 -0.17763568394E-14  0.35527136788E-14  0.55044577712E+02  0.97009545713E+02  0.79880826385E+02 0.  0.
         66    2    3    3    0    0  0.13796513667E+02 -0.14684779632E+02  0.69384353135E+02  0.72278454645E+02  0.20000009028E+01 0.  0.
        -13    1    3    3    0    0 -0.13796513667E+02  0.14684779632E+02 -0.14339775423E+02  0.24731091069E+02  0.10566000000E+00 0.  1.
         13    1    4    4    0    0  0.42702163629E+01 -0.41142364380E+01  0.21233009313E+02  0.22045714726E+02  0.10566000000E+00 0. -1.
        -13    1    4    4    0    0  0.67599805017E-01 -0.31940448645E+00  0.16130399965E+01  0.16491364484E+01  0.10566000000E+00 0.  1.
         14    1    4    4    0    0  0.94586974995E+01 -0.10251138708E+02  0.46538303826E+02  0.48583603471E+02  0.00000000000E+00 0. -1.
<mgrwt>
<rscale>  0 0.79880826E+02</rscale>
<asrwt>0</asrwt>
<pdfrwt beam="1">  1        2 0.11696471E-01 0.79880826E+02</pdfrwt>
<pdfrwt beam="2">  1       -1 0.32280744E-02 0.79880826E+02</pdfrwt>
<totfact> 0.16547167E+05</totfact>
</mgrwt>
</event>
<event>
 8    1  0.2433467E-024  0.7999624E+02  0.7818608E-02  0.1329062E+00
         -1   -1    0    0    0  501 -0.00000000000E+00  0.00000000000E+00  0.19988881935E+01  0.19988945474E+01  0.50400000000E-02 0.  1.
          2   -1    0    0  501    0  0.00000000000E+00 -0.00000000000E+00 -0.80036839549E+03  0.80036839550E+03  0.25500000000E-02 0. -1.
         24    2    1    2    0    0 -0.35527136788E-14  0.17763568394E-14 -0.79836950730E+03  0.80236729005E+03  0.79996237085E+02 0.  0.
         66    2    3    3    0    0  0.22432008695E+02 -0.90475428499E+01 -0.71863415451E+03  0.71904387980E+03  0.20000021802E+01 0.  0.
        -13    1    3    3    0    0 -0.22432008695E+02  0.90475428499E+01 -0.79735352793E+02  0.83323410245E+02  0.10566000000E+00 0.  1.
         13    1    4    4    0    0  0.82223060456E+01 -0.35592590705E+01 -0.24814236843E+03  0.24830408941E+03  0.10566000000E+00 0. -1.
        -13    1    4    4    0    0  0.36865562100E+01 -0.12340708598E+01 -0.13527779621E+03  0.13533368737E+03  0.10566000000E+00 0.  1.
        -14    1    4    4    0    0  0.10523146440E+02 -0.42542129195E+01 -0.33521398987E+03  0.33540610302E+03  0.00000000000E+00 0.  1.
<mgrwt>
<rscale>  0 0.79996237E+02</rscale>
<asrwt>0</asrwt>
<pdfrwt beam="1">  1        2 0.12313334E+00 0.79996237E+02</pdfrwt>
<pdfrwt beam="2">  1       -1 0.30752239E-03 0.79996237E+02</pdfrwt>
<totfact> 0.34372565E+05</totfact>
</mgrwt>
</event>
<event>
 8    1  0.2433467E-024  0.7495343E+02  0.7818608E-02  0.1344015E+00
          2   -1    0    0  501    0  0.00000000000E+00  0.00000000000E+00  0.21821642852E+03  0.21821642854E+03  0.25500000000E-02 0. -1.
         -1   -1    0    0    0  501 -0.00000000000E+00 -0.00000000000E+00 -0.64362885510E+01  0.64362905243E+01  0.50400000000E-02 0.  1.
         24    2    1    2    0    0  0.35527136788E-14  0.00000000000E+00  0.21178013997E+03  0.22465271906E+03  0.74953428844E+02 0.  0.
         66    2    3    3    0    0  0.25670471621E+02 -0.15885279684E+02  0.17239189328E+03  0.17502651263E+03  0.20000072167E+01 0.  0.
        -13    1    3    3    0    0 -0.25670471621E+02  0.15885279684E+02  0.39388246688E+02  0.49626206435E+02  0.10566000000E+00 0.  1.
         13    1    4    4    0    0  0.85319011751E+01 -0.57432414816E+01  0.60182929377E+02  0.61055501904E+02  0.10566000000E+00 0. -1.
        -13    1    4    4    0    0  0.19135305470E+01 -0.11981304153E+01  0.10480954339E+02  0.10721878731E+02  0.10566000000E+00 0. -1.
        -14    1    4    4    0    0  0.15225039899E+02 -0.89439077866E+01  0.10172800957E+03  0.10324913199E+03  0.00000000000E+00 0.  1.
<mgrwt>
<rscale>  0 0.74953429E+02</rscale>
<asrwt>0</asrwt>
<pdfrwt beam="1">  1        2 0.33571758E-01 0.74953429E+02</pdfrwt>
<pdfrwt beam="2">  1       -1 0.99019841E-03 0.74953429E+02</pdfrwt>
<totfact> 0.26985137E+05</totfact>
</mgrwt>
</event>
<event>
 8    1  0.2433467E-024  0.8048302E+02  0.7818608E-02  0.1327686E+00
         -1   -1    0    0    0  501 -0.00000000000E+00  0.00000000000E+00  0.35220583628E+02  0.35220583988E+02  0.50400000000E-02 0.  1.
          2   -1    0    0  501    0  0.00000000000E+00 -0.00000000000E+00 -0.45978204692E+02  0.45978204763E+02  0.25500000000E-02 0. -1.
         24    2    1    2    0    0  0.00000000000E+00  0.88817841970E-15 -0.10757621065E+02  0.81198788751E+02  0.80483022332E+02 0.  0.
         66    2    3    3    0    0  0.31503710717E+02 -0.54978342491E+01 -0.29984733944E+02  0.43883872108E+02  0.19999977880E+01 0.  0.
        -13    1    3    3    0    0 -0.31503710717E+02  0.54978342491E+01  0.19227112879E+02  0.37314916643E+02  0.10566000000E+00 0.  1.
         13    1    4    4    0    0  0.47240798264E+01 -0.43708211163E+00 -0.47436641944E+01  0.67098051390E+01  0.10566000000E+00 0. -1.
        -13    1    4    4    0    0  0.60564629630E+01 -0.74370472635E+00 -0.50642554916E+01  0.79304279873E+01  0.10566000000E+00 0.  1.
        -14    1    4    4    0    0  0.20723167927E+02 -0.43170474112E+01 -0.20176814258E+02  0.29243638982E+02  0.00000000000E+00 0.  1.
<mgrwt>
<rscale>  0 0.80483022E+02</rscale>
<asrwt>0</asrwt>
<pdfrwt beam="1">  1        2 0.70735699E-02 0.80483022E+02</pdfrwt>
<pdfrwt beam="2">  1       -1 0.54185514E-02 0.80483022E+02</pdfrwt>
<totfact> 0.14435058E+05</totfact>
</mgrwt>
</event>
<event>
 8    1  0.2433467E-024  0.8471563E+02  0.7818608E-02  0.1316178E+00
         -1   -1    0    0    0  501 -0.00000000000E+00  0.00000000000E+00  0.61267649799E+02  0.61267650006E+02  0.50400000000E-02 0.  1.
          2   -1    0    0  501    0  0.00000000000E+00 -0.00000000000E+00 -0.29284369391E+02  0.29284369502E+02  0.25500000000E-02 0. -1.
         24    2    1    2    0    0  0.00000000000E+00  0.27755575616E-16  0.31983280408E+02  0.90552019508E+02  0.84715630266E+02 0.  0.
         66    2    3    3    0    0  0.32483770296E+02  0.12829485866E+00 -0.13016893013E+02  0.35052122534E+02  0.19999995517E+01 0.  0.
        -13    1    3    3    0    0 -0.32483770296E+02 -0.12829485866E+00  0.45000173421E+02  0.55499896974E+02  0.10566000000E+00 0.  1.
         13    1    4    4    0    0  0.20584576507E+02  0.18728594236E+00 -0.91592563713E+01  0.22531378282E+02  0.10566000000E+00 0. -1.
        -13    1    4    4    0    0  0.36159418205E+01  0.18651591524E+00 -0.12912275253E+01  0.38455501549E+01  0.10566000000E+00 0.  1.
        -14    1    4    4    0    0  0.82832519689E+01 -0.24550699894E+00 -0.25664091162E+01  0.86751940969E+01  0.00000000000E+00 0.  1.
<mgrwt>
<rscale>  0 0.84715630E+02</rscale>
<asrwt>0</asrwt>
<pdfrwt beam="1">  1        2 0.45052877E-02 0.84715630E+02</pdfrwt>
<pdfrwt beam="2">  1       -1 0.94257922E-02 0.84715630E+02</pdfrwt>
<totfact> 0.11393639E+05</totfact>
</mgrwt>
</event>
<event>
 8    1  0.2433467E-024  0.8979074E+02  0.7818608E-02  0.1303359E+00
          2   -1    0    0  501    0  0.00000000000E+00  0.00000000000E+00  0.94737209647E+03  0.94737209647E+03  0.25500000000E-02 0. -1.
         -1   -1    0    0    0  501 -0.00000000000E+00 -0.00000000000E+00 -0.21275606881E+01  0.21275666577E+01  0.50400000000E-02 0.  1.
         24    2    1    2    0    0  0.00000000000E+00  0.00000000000E+00  0.94524453578E+03  0.94949966313E+03  0.89790744849E+02 0.  0.
         66    2    3    3    0    0  0.33950894158E+02 -0.10801779836E+02  0.76134027176E+03  0.76217606304E+03  0.20000013300E+01 0.  0.
        -13    1    3    3    0    0 -0.33950894158E+02  0.10801779836E+02  0.18390426402E+03  0.18732360009E+03  0.10566000000E+00 0.  1.
         13    1    4    4    0    0  0.11601967299E+02 -0.43428957969E+01  0.25199441844E+03  0.25229876036E+03  0.10566000000E+00 0. -1.
        -13    1    4    4    0    0  0.20871437522E+02 -0.62041258216E+01  0.47696020511E+03  0.47745696822E+03  0.10566000000E+00 0.  1.
         14    1    4    4    0    0  0.14774893369E+01 -0.25475821722E+00  0.32385648215E+02  0.32420334465E+02  0.00000000000E+00 0. -1.
<mgrwt>
<rscale>  0 0.89790745E+02</rscale>
<asrwt>0</asrwt>
<pdfrwt beam="1">  1        2 0.14574948E+00 0.89790745E+02</pdfrwt>
<pdfrwt beam="2">  1       -1 0.32731766E-03 0.89790745E+02</pdfrwt>
<totfact> 0.25975682E+05</totfact>
</mgrwt>
</event>
<event>
 8    1  0.2433467E-024  0.8410653E+02  0.7818608E-02  0.1317786E+00
         -1   -1    0    0    0  501 -0.00000000000E+00  0.00000000000E+00  0.87411094711E+02  0.87411094857E+02  0.50400000000E-02 0.  1.
          2   -1    0    0  501    0  0.00000000000E+00 -0.00000000000E+00 -0.20231722089E+02  0.20231722249E+02  0.25500000000E-02 0. -1.
         24    2    1    2    0    0 -0.17763568394E-14 -0.35527136788E-14  0.67179372622E+02  0.10764281711E+03  0.84106527503E+02 0.  0.
         66    2    3    3    0    0 -0.89166401155E+01 -0.19844906116E+02 -0.12414805018E+02  0.25128751348E+02  0.19999977429E+01 0.  0.
        -13    1    3    3    0    0  0.89166401155E+01  0.19844906116E+02  0.79594177640E+02  0.82514065758E+02  0.10566000000E+00 0.  1.
         13    1    4    4    0    0 -0.52512276223E+01 -0.10945005867E+02 -0.69268398903E+01  0.13977153497E+02  0.10566000000E+00 0. -1.
        -13    1    4    4    0    0 -0.19436227741E+01 -0.32767406116E+01 -0.24687444073E+01  0.45409868429E+01  0.10566000000E+00 0.  1.
        -14    1    4    4    0    0 -0.17217897191E+01 -0.56231596372E+01 -0.30192207200E+01  0.66106110079E+01  0.00000000000E+00 0.  1.
<mgrwt>
<rscale>  0 0.84106528E+02</rscale>
<asrwt>0</asrwt>
<pdfrwt beam="1">  1        2 0.31125727E-02 0.84106528E+02</pdfrwt>
<pdfrwt beam="2">  1       -1 0.13447860E-01 0.84106528E+02</pdfrwt>
<totfact> 0.10771210E+05</totfact>
</mgrwt>
</event>
<event>
 8    1  0.2433467E-024  0.7871666E+02  0.7818608E-02  0.1332733E+00
         -1   -1    0    0    0  501 -0.00000000000E+00  0.00000000000E+00  0.13572979843E+01  0.13573073417E+01  0.50400000000E-02 0.  1.
          2   -1    0    0  501    0  0.00000000000E+00 -0.00000000000E+00 -0.11412916848E+04  0.11412916848E+04  0.25500000000E-02 0. -1.
         24    2    1    2    0    0  0.17763568394E-14  0.00000000000E+00 -0.11399343868E+04  0.11426489922E+04  0.78716662812E+02 0.  0.
         66    2    3    3    0    0  0.94697834839E+01 -0.19671872173E+02 -0.10452558441E+04  0.10454857431E+04  0.20000007278E+01 0.  0.
        -13    1    3    3    0    0 -0.94697834839E+01  0.19671872173E+02 -0.94678542693E+02  0.97163249043E+02  0.10566000000E+00 0.  1.
         13    1    4    4    0    0  0.18527447378E+01 -0.29703705639E+01 -0.15859703019E+03  0.15863569873E+03  0.10566000000E+00 0. -1.
        -13    1    4    4    0    0  0.30891652116E+01 -0.66427590454E+01 -0.31986393087E+03  0.31994783110E+03  0.10566000000E+00 0.  1.
         14    1    4    4    0    0  0.45278735345E+01 -0.10058742563E+02 -0.56679488309E+03  0.56690221330E+03  0.00000000000E+00 0. -1.
<mgrwt>
<rscale>  0 0.78716663E+02</rscale>
<asrwt>0</asrwt>
<pdfrwt beam="1">  1        2 0.17558257E+00 0.78716663E+02</pdfrwt>
<pdfrwt beam="2">  1       -1 0.20881671E-03 0.78716663E+02</pdfrwt>
<totfact> 0.36698010E+05</totfact>
</mgrwt>
</event>
<event>
 8    1  0.2433467E-024  0.7115859E+02  0.7818608E-02  0.1356197E+00
          2   -1    0    0  501    0  0.00000000000E+00  0.00000000000E+00  0.51164210225E+03  0.51164210226E+03  0.25500000000E-02 0. -1.
         -1   -1    0    0    0  501 -0.00000000000E+00 -0.00000000000E+00 -0.24741606516E+01  0.24741657850E+01  0.50400000000E-02 0.  1.
         24    2    1    2    0    0  0.00000000000E+00  0.00000000000E+00  0.50916794160E+03  0.51411626804E+03  0.71158585660E+02 0.  0.
         66    2    3    3    0    0  0.27349279433E+02 -0.10387734523E+02  0.40071986473E+03  0.40179136139E+03  0.19999958609E+01 0.  0.
        -13    1    3    3    0    0 -0.27349279433E+02  0.10387734523E+02  0.10844807687E+03  0.11232490665E+03  0.10566000000E+00 0.  1.
         13    1    4    4    0    0  0.74279753216E+01 -0.35213969619E+01  0.11597121312E+03  0.11626224017E+03  0.10566000000E+00 0. -1.
        -13    1    4    4    0    0  0.12179953179E+02 -0.39230049446E+01  0.16698561913E+03  0.16747522021E+03  0.10566000000E+00 0.  1.
         14    1    4    4    0    0  0.77413509315E+01 -0.29433326171E+01  0.11776303248E+03  0.11805390100E+03  0.00000000000E+00 0. -1.
<mgrwt>
<rscale>  0 0.71158586E+02</rscale>
<asrwt>0</asrwt>
<pdfrwt beam="1">  1        2 0.78714288E-01 0.71158586E+02</pdfrwt>
<pdfrwt beam="2">  1       -1 0.38063993E-03 0.71158586E+02</pdfrwt>
<totfact> 0.41541021E+05</totfact>
</mgrwt>
</event>
<event>
 8    1  0.2433467E-024  0.7289422E+02  0.7818608E-02  0.1350519E+00
          2   -1    0    0  501    0  0.00000000000E+00  0.00000000000E+00  0.33783451956E+03  0.33783451957E+03  0.25500000000E-02 0. -1.
         -1   -1    0    0    0  501 -0.00000000000E+00 -0.00000000000E+00 -0.39320763536E+01  0.39320795837E+01  0.50400000000E-02 0.  1.
         24    2    1    2    0    0  0.00000000000E+00  0.00000000000E+00  0.33390244320E+03  0.34176659915E+03  0.72894215941E+02 0.  0.
         66    2    3    3    0    0 -0.24485656611E+02  0.29046013343E+01  0.29274334574E+03  0.29378674341E+03  0.20000102926E+01 0.  0.
        -13    1    3    3    0    0  0.24485656611E+02 -0.29046013343E+01  0.41159097462E+02  0.47979855737E+02  0.10566000000E+00 0.  1.
         13    1    4    4    0    0 -0.87375059080E+01  0.81072622126E+00  0.10978727272E+03  0.11013744913E+03  0.10566000000E+00 0. -1.
        -13    1    4    4    0    0 -0.15753976086E+02  0.21225281419E+01  0.18283376418E+03  0.18352353903E+03  0.10566000000E+00 0.  1.
        -14    1    4    4    0    0  0.58253832114E-02 -0.28653028863E-01  0.12230884417E+00  0.12575525641E+00  0.00000000000E+00 0.  1.
<mgrwt>
<rscale>  0 0.72894216E+02</rscale>
<asrwt>0</asrwt>
<pdfrwt beam="1">  1        2 0.51974541E-01 0.72894216E+02</pdfrwt>
<pdfrwt beam="2">  1       -1 0.60493508E-03 0.72894216E+02</pdfrwt>
<totfact> 0.33904789E+05</totfact>
</mgrwt>
</event>
<event>
 8    1  0.2433467E-024  0.7921959E+02  0.7818608E-02  0.1331281E+00
          2   -1    0    0  501    0  0.00000000000E+00  0.00000000000E+00  0.56922531678E+02  0.56922531735E+02  0.25500000000E-02 0. -1.
         -1   -1    0    0    0  501 -0.00000000000E+00 -0.00000000000E+00 -0.27562647348E+02  0.27562647809E+02  0.50400000000E-02 0.  1.
         24    2    1    2    0    0  0.00000000000E+00  0.00000000000E+00  0.29359884330E+02  0.84485179543E+02  0.79219585676E+02 0.  0.
         66    2    3    3    0    0  0.16069716529E+02  0.36085273952E+02  0.17418255721E+02  0.43217802072E+02  0.19999995230E+01 0.  0.
        -13    1    3    3    0    0 -0.16069716529E+02 -0.36085273952E+02  0.11941628608E+02  0.41267377471E+02  0.10566000000E+00 0.  1.
         13    1    4    4    0    0  0.51716091994E+01  0.11004930394E+02  0.50192233085E+01  0.13155143532E+02  0.10566000000E+00 0.  1.
        -13    1    4    4    0    0  0.19199278771E+01  0.39600623112E+01  0.25657030004E+01  0.50953127955E+01  0.10566000000E+00 0. -1.
        -14    1    4    4    0    0  0.89781794525E+01  0.21120281247E+02  0.98333294124E+01  0.24967345745E+02  0.00000000000E+00 0.  1.
<mgrwt>
<rscale>  0 0.79219586E+02</rscale>
<asrwt>0</asrwt>
<pdfrwt beam="1">  1        2 0.87573125E-02 0.79219586E+02</pdfrwt>
<pdfrwt beam="2">  1       -1 0.42404074E-02 0.79219586E+02</pdfrwt>
<totfact> 0.15795985E+05</totfact>
</mgrwt>
</event>
<event>
 8    1  0.2433467E-024  0.8466418E+02  0.7818608E-02  0.1316313E+00
          2   -1    0    0  501    0  0.00000000000E+00  0.00000000000E+00  0.14136406013E+03  0.14136406016E+03  0.25500000000E-02 0. -1.
         -1   -1    0    0    0  501 -0.00000000000E+00 -0.00000000000E+00 -0.12676529716E+02  0.12676530718E+02  0.50400000000E-02 0.  1.
         24    2    1    2    0    0  0.00000000000E+00  0.00000000000E+00  0.12868753042E+03  0.15404059087E+03  0.84664178683E+02 0.  0.
         66    2    3    3    0    0 -0.17446150246E+02 -0.35995693643E+02  0.89454904300E+02  0.98011417801E+02  0.19999991898E+01 0.  0.
        -13    1    3    3    0    0  0.17446150246E+02  0.35995693643E+02  0.39232626116E+02  0.56029173073E+02  0.10566000000E+00 0.  1.
         13    1    4    4    0    0 -0.36602433987E+01 -0.71272333253E+01  0.17003971259E+02  0.18797367881E+02  0.10566000000E+00 0. -1.
        -13    1    4    4    0    0 -0.86753528595E+01 -0.17154112623E+02  0.42035596834E+02  0.46222590714E+02  0.10566000000E+00 0.  1.
         14    1    4    4    0    0 -0.51105539874E+01 -0.11714347694E+02  0.30415336207E+02  0.32991459206E+02  0.00000000000E+00 0. -1.
<mgrwt>
<rscale>  0 0.84664179E+02</rscale>
<asrwt>0</asrwt>
<pdfrwt beam="1">  1        2 0.21748317E-01 0.84664179E+02</pdfrwt>
<pdfrwt beam="2">  1       -1 0.19502355E-02 0.84664179E+02</pdfrwt>
<totfact> 0.16899365E+05</totfact>
</mgrwt>
</event>
<event>
 8    1  0.2433467E-024  0.8648897E+02  0.7818608E-02  0.1311584E+00
         -1   -1    0    0    0  501 -0.00000000000E+00  0.00000000000E+00  0.52060680489E+02  0.52060680732E+02  0.50400000000E-02 0.  1.
          2   -1    0    0  501    0  0.00000000000E+00 -0.00000000000E+00 -0.35921261869E+02  0.35921261959E+02  0.25500000000E-02 0. -1.
         24    2    1    2    0    0  0.00000000000E+00  0.00000000000E+00  0.16139418620E+02  0.87981942692E+02  0.86488966963E+02 0.  0.
         66    2    3    3    0    0  0.10354672289E+02 -0.36284296031E+02 -0.13368532770E+02  0.40081006000E+02  0.19999991997E+01 0.  0.
        -13    1    3    3    0    0 -0.10354672289E+02  0.36284296031E+02  0.29507951390E+02  0.47900936692E+02  0.10566000000E+00 0.  1.
         13    1    4    4    0    0  0.52812926073E+00 -0.26037256981E+01 -0.94902491361E+00  0.28231401575E+01  0.10566000000E+00 0. -1.
        -13    1    4    4    0    0  0.73236057282E+01 -0.25014314395E+02 -0.10014935180E+02  0.27922414227E+02  0.10566000000E+00 0.  1.
        -14    1    4    4    0    0  0.25029373003E+01 -0.86662559378E+01 -0.24045726763E+01  0.93354516154E+01  0.00000000000E+00 0.  1.
<mgrwt>
<rscale>  0 0.86488967E+02</rscale>
<asrwt>0</asrwt>
<pdfrwt beam="1">  1        2 0.55263480E-02 0.86488967E+02</pdfrwt>
<pdfrwt beam="2">  1       -1 0.80093355E-02 0.86488967E+02</pdfrwt>
<totfact> 0.11214434E+05</totfact>
</mgrwt>
</event>
<event>
 8    1  0.2433467E-024  0.8229393E+02  0.7818608E-02  0.1322665E+00
         -1   -1    0    0    0  501 -0.00000000000E+00  0.00000000000E+00  0.33674135295E+01  0.33674173011E+01  0.50400000000E-02 0.  1.
          2   -1    0    0  501    0  0.00000000000E+00 -0.00000000000E+00 -0.50278110762E+03  0.50278110762E+03  0.25500000000E-02 0. -1.
         24    2    1    2    0    0 -0.22204460493E-15  0.00000000000E+00 -0.49941369409E+03  0.50614852492E+03  0.82293933198E+02 0.  0.
         66    2    3    3    0    0 -0.11248994200E+01  0.31694579070E+02 -0.41085790531E+03  0.41208497922E+03  0.19999997684E+01 0.  0.
        -13    1    3    3    0    0  0.11248994200E+01 -0.31694579070E+02 -0.88555788777E+02  0.94063545708E+02  0.10566000000E+00 0.  1.
         13    1    4    4    0    0 -0.18507681012E+00  0.16918528076E+02 -0.21241443412E+03  0.21308724464E+03  0.10566000000E+00 0. -1.
        -13    1    4    4    0    0  0.19374598629E+00  0.21609423703E+01 -0.30712016264E+02  0.30788736844E+02  0.10566000000E+00 0.  1.
        -14    1    4    4    0    0 -0.11335685962E+01  0.12615108624E+02 -0.16773145493E+03  0.16820899773E+03  0.00000000000E+00 0.  1.
<mgrwt>
<rscale>  0 0.82293933E+02</rscale>
<asrwt>0</asrwt>
<pdfrwt beam="1">  1        2 0.77350880E-01 0.82293933E+02</pdfrwt>
<pdfrwt beam="2">  1       -1 0.51806431E-03 0.82293933E+02</pdfrwt>
<totfact> 0.28335518E+05</totfact>
</mgrwt>
</event>
<event>
 8    1  0.2433467E-024  0.8059606E+02  0.7818608E-02  0.1327368E+00
         -1   -1    0    0    0  501 -0.00000000000E+00  0.00000000000E+00  0.25371338822E+01  0.25371388882E+01  0.50400000000E-02 0.  1.
          2   -1    0    0  501    0  0.00000000000E+00 -0.00000000000E+00 -0.64006456668E+03  0.64006456668E+03  0.25500000000E-02 0. -1.
         24    2    1    2    0    0 -0.17763568394E-14  0.00000000000E+00 -0.63752743279E+03  0.64260170557E+03  0.80596057198E+02 0.  0.
         66    2    3    3    0    0  0.87696395777E+01  0.36276014606E+02 -0.43963312277E+03  0.44121892349E+03  0.19999988870E+01 0.  0.
        -13    1    3    3    0    0 -0.87696395777E+01 -0.36276014606E+02 -0.19789431003E+03  0.20138278208E+03  0.10566000000E+00 0.  1.
         13    1    4    4    0    0  0.22627037904E+01  0.10604289084E+02 -0.12462751422E+03  0.12509835826E+03  0.10566000000E+00 0. -1.
        -13    1    4    4    0    0 -0.16776321438E-02  0.87776296502E+00 -0.91331241026E+01  0.91758155249E+01  0.10566000000E+00 0.  1.
         14    1    4    4    0    0  0.65086134194E+01  0.24793962556E+02 -0.30587248444E+03  0.30694474970E+03  0.00000000000E+00 0. -1.
<mgrwt>
<rscale>  0 0.80596057E+02</rscale>
<asrwt>0</asrwt>
<pdfrwt beam="1">  1        2 0.98471343E-01 0.80596057E+02</pdfrwt>
<pdfrwt beam="2">  1       -1 0.39032919E-03 0.80596057E+02</pdfrwt>
<totfact> 0.32101558E+05</totfact>
</mgrwt>
</event>
<event>
 8    1  0.2433467E-024  0.7893599E+02  0.7818608E-02  0.1332098E+00
          2   -1    0    0  501    0  0.00000000000E+00  0.00000000000E+00  0.91871795737E+03  0.91871795738E+03  0.25500000000E-02 0. -1.
         -1   -1    0    0    0  501 -0.00000000000E+00 -0.00000000000E+00 -0.16955357459E+01  0.16955432366E+01  0.50400000000E-02 0.  1.
         24    2    1    2    0    0  0.00000000000E+00  0.00000000000E+00  0.91702242163E+03  0.92041350061E+03  0.78935988903E+02 0.  0.
         66    2    3    3    0    0  0.10122622132E+02 -0.22911956034E+02  0.81406802495E+03  0.81445575352E+03  0.20000003357E+01 0.  0.
        -13    1    3    3    0    0 -0.10122622132E+02  0.22911956034E+02  0.10295439668E+03  0.10595774709E+03  0.10566000000E+00 0.  1.
         13    1    4    4    0    0  0.35928869715E+01 -0.77603680818E+01  0.30375700126E+03  0.30387737515E+03  0.10566000000E+00 0. -1.
        -13    1    4    4    0    0  0.57030111600E+01 -0.12425435827E+02  0.42211236605E+03  0.42233372648E+03  0.10566000000E+00 0.  1.
         14    1    4    4    0    0  0.82672400095E+00 -0.27261521247E+01  0.88198657645E+02  0.88244651896E+02  0.00000000000E+00 0. -1.
<mgrwt>
<rscale>  0 0.78935989E+02</rscale>
<asrwt>0</asrwt>
<pdfrwt beam="1">  1        2 0.14134105E+00 0.78935989E+02</pdfrwt>
<pdfrwt beam="2">  1       -1 0.26085256E-03 0.78935989E+02</pdfrwt>
<totfact> 0.36259457E+05</totfact>
</mgrwt>
</event>
<event>
 8    1  0.2433467E-024  0.8050403E+02  0.7818608E-02  0.1327627E+00
         -1   -1    0    0    0  501 -0.00000000000E+00  0.00000000000E+00  0.35495821843E+02  0.35495822201E+02  0.50400000000E-02 0.  1.
          2   -1    0    0  501    0  0.00000000000E+00 -0.00000000000E+00 -0.45645503410E+02  0.45645503482E+02  0.25500000000E-02 0. -1.
         24    2    1    2    0    0  0.00000000000E+00  0.00000000000E+00 -0.10149681567E+02  0.81141325682E+02  0.80504029077E+02 0.  0.
         66    2    3    3    0    0 -0.90828953783E+01  0.28688969457E+02 -0.31985059499E+02  0.43961346521E+02  0.19999999710E+01 0.  0.
        -13    1    3    3    0    0  0.90828953783E+01 -0.28688969457E+02  0.21835377931E+02  0.37179979161E+02  0.10566000000E+00 0.  1.
         13    1    4    4    0    0 -0.65622195938E+01  0.21963938399E+02 -0.24881244092E+02  0.33831417168E+02  0.10566000000E+00 0. -1.
        -13    1    4    4    0    0 -0.10579759401E+00  0.14622493927E+00 -0.15018000495E+00  0.25747414093E+00  0.10566000000E+00 0.  1.
         14    1    4    4    0    0 -0.24148781905E+01  0.65788061187E+01 -0.69536354017E+01  0.98724552125E+01  0.00000000000E+00 0. -1.
<mgrwt>
<rscale>  0 0.80504029E+02</rscale>
<asrwt>0</asrwt>
<pdfrwt beam="1">  1        2 0.70223852E-02 0.80504029E+02</pdfrwt>
<pdfrwt beam="2">  1       -1 0.54608957E-02 0.80504029E+02</pdfrwt>
<totfact> 0.14402403E+05</totfact>
</mgrwt>
</event>
<event>
 8    1  0.2433467E-024  0.7608036E+02  0.7818608E-02  0.1340558E+00
          2   -1    0    0  501    0  0.00000000000E+00  0.00000000000E+00  0.14397442497E+02  0.14397442723E+02  0.25500000000E-02 0. -1.
         -1   -1    0    0    0  501 -0.00000000000E+00 -0.00000000000E+00 -0.10050778736E+03  0.10050778748E+03  0.50400000000E-02 0.  1.
         24    2    1    2    0    0 -0.35527136788E-14 -0.35527136788E-14 -0.86110344861E+02  0.11490523021E+03  0.76080355131E+02 0.  0.
         66    2    3    3    0    0  0.17587244262E+02  0.28094814383E+02 -0.14974313214E+02  0.36426087000E+02  0.20000004805E+01 0.  0.
        -13    1    3    3    0    0 -0.17587244262E+02 -0.28094814383E+02 -0.71136031647E+02  0.78479143207E+02  0.10566000000E+00 0.  1.
         13    1    4    4    0    0  0.77295284609E+00  0.16644367776E+01 -0.65748291815E+00  0.19522432513E+01  0.10566000000E+00 0. -1.
        -13    1    4    4    0    0  0.53043143892E+00  0.49150088502E+00 -0.26339916094E+00  0.77683575159E+00  0.10566000000E+00 0.  1.
         14    1    4    4    0    0  0.16283859977E+02  0.25938876721E+02 -0.14053431135E+02  0.33697007997E+02  0.00000000000E+00 0. -1.
<mgrwt>
<rscale>  0 0.76080355E+02</rscale>
<asrwt>0</asrwt>
<pdfrwt beam="1">  1        2 0.22149912E-02 0.76080355E+02</pdfrwt>
<pdfrwt beam="2">  1       -1 0.15462736E-01 0.76080355E+02</pdfrwt>
<totfact> 0.13419999E+05</totfact>
</mgrwt>
</event>
<event>
 8    1  0.2433467E-024  0.7734183E+02  0.7818608E-02  0.1336769E+00
         -1   -1    0    0    0  501 -0.00000000000E+00  0.00000000000E+00  0.62025356529E+01  0.62025377006E+01  0.50400000000E-02 0.  1.
          2   -1    0    0  501    0  0.00000000000E+00 -0.00000000000E+00 -0.24110130734E+03  0.24110130735E+03  0.25500000000E-02 0. -1.
         24    2    1    2    0    0  0.17763568394E-14 -0.35527136788E-14 -0.23489877168E+03  0.24730384505E+03  0.77341831103E+02 0.  0.
         66    2    3    3    0    0 -0.13646571912E+02  0.27278155778E+02 -0.19340508041E+03  0.19580564812E+03  0.19999998741E+01 0.  0.
        -13    1    3    3    0    0  0.13646571912E+02 -0.27278155778E+02 -0.41493691273E+02  0.51498196930E+02  0.10566000000E+00 0.  1.
         13    1    4    4    0    0 -0.18393543982E+01  0.31052688529E+01 -0.20706686513E+02  0.21019132942E+02  0.10566000000E+00 0. -1.
        -13    1    4    4    0    0 -0.29436809729E+01  0.73515563627E+01 -0.49522566970E+02  0.50151833884E+02  0.10566000000E+00 0.  1.
        -14    1    4    4    0    0 -0.88635365410E+01  0.16821330562E+02 -0.12317582693E+03  0.12463468129E+03  0.00000000000E+00 0.  1.
<mgrwt>
<rscale>  0 0.77341831E+02</rscale>
<asrwt>0</asrwt>
<pdfrwt beam="1">  1        2 0.37092502E-01 0.77341831E+02</pdfrwt>
<pdfrwt beam="2">  1       -1 0.95423660E-03 0.77341831E+02</pdfrwt>
<totfact> 0.25747292E+05</totfact>
</mgrwt>
</event>
<event>
 8    1  0.2433467E-024  0.8025992E+02  0.7818608E-02  0.1328315E+00
         -1   -1    0    0    0  501 -0.00000000000E+00  0.00000000000E+00  0.32808353536E+01  0.32808392248E+01  0.50400000000E-02 0.  1.
          2   -1    0    0  501    0  0.00000000000E+00 -0.00000000000E+00 -0.49085446521E+03  0.49085446522E+03  0.25500000000E-02 0. -1.
         24    2    1    2    0    0  0.00000000000E+00  0.00000000000E+00 -0.48757362986E+03  0.49413530444E+03  0.80259918789E+02 0.  0.
         66    2    3    3    0    0  0.19332695917E+02 -0.20785802836E+02 -0.41835860607E+03  0.41932532240E+03  0.20000010444E+01 0.  0.
        -13    1    3    3    0    0 -0.19332695917E+02  0.20785802836E+02 -0.69215023792E+02  0.74809982044E+02  0.10566000000E+00 0.  1.
         13    1    4    4    0    0  0.10257191984E+02 -0.11146062670E+02 -0.20927898709E+03  0.20982647665E+03  0.10566000000E+00 0. -1.
        -13    1    4    4    0    0  0.27556940924E+01 -0.27822532318E+01 -0.59535440374E+02  0.59664181948E+02  0.10566000000E+00 0.  1.
         14    1    4    4    0    0  0.63198098405E+01 -0.68574869339E+01 -0.14954417860E+03  0.14983466380E+03  0.00000000000E+00 0. -1.
<mgrwt>
<rscale>  0 0.80259919E+02</rscale>
<asrwt>0</asrwt>
<pdfrwt beam="1">  1        2 0.75516013E-01 0.80259919E+02</pdfrwt>
<pdfrwt beam="2">  1       -1 0.50474459E-03 0.80259919E+02</pdfrwt>
<totfact> 0.30016887E+05</totfact>
</mgrwt>
</event>
<event>
 8    1  0.2433467E-024  0.7847645E+02  0.7818608E-02  0.1333431E+00
         -1   -1    0    0    0  501 -0.00000000000E+00  0.00000000000E+00  0.14686461089E+01  0.14686547569E+01  0.50400000000E-02 0.  1.
          2   -1    0    0  501    0  0.00000000000E+00 -0.00000000000E+00 -0.10483355518E+04  0.10483355518E+04  0.25500000000E-02 0. -1.
         24    2    1    2    0    0  0.35527136788E-14  0.88817841970E-15 -0.10468669057E+04  0.10498042065E+04  0.78476454301E+02 0.  0.
         66    2    3    3    0    0 -0.18615751236E+02 -0.62119426788E+01 -0.97791193114E+03  0.97811087280E+03  0.20000000973E+01 0.  0.
        -13    1    3    3    0    0  0.18615751236E+02  0.62119426788E+01 -0.68954974528E+02  0.71693333736E+02  0.10566000000E+00 0.  1.
         13    1    4    4    0    0 -0.13701794675E+01 -0.14963070886E+00 -0.63920137286E+02  0.63935083450E+02  0.10566000000E+00 0. -1.
        -13    1    4    4    0    0 -0.13276419578E+02 -0.42757979942E+01 -0.67003640179E+03  0.67018156992E+03  0.10566000000E+00 0.  1.
        -14    1    4    4    0    0 -0.39691521906E+01 -0.17865139757E+01 -0.24395539206E+03  0.24399421943E+03  0.00000000000E+00 0.  1.
<mgrwt>
<rscale>  0 0.78476454E+02</rscale>
<asrwt>0</asrwt>
<pdfrwt beam="1">  1        2 0.16128179E+00 0.78476454E+02</pdfrwt>
<pdfrwt beam="2">  1       -1 0.22594706E-03 0.78476454E+02</pdfrwt>
<totfact> 0.37075872E+05</totfact>
</mgrwt>
</event>
<event>
 8    1  0.2433467E-024  0.7963124E+02  0.7818608E-02  0.1330101E+00
          2   -1    0    0  501    0  0.00000000000E+00  0.00000000000E+00  0.11639432422E+04  0.11639432422E+04  0.25500000000E-02 0. -1.
         -1   -1    0    0    0  501 -0.00000000000E+00 -0.00000000000E+00 -0.13619893272E+01  0.13619986524E+01  0.50400000000E-02 0.  1.
         24    2    1    2    0    0 -0.35527136788E-14  0.88817841970E-15  0.11625812528E+04  0.11653052408E+04  0.79631242820E+02 0.  0.
         66    2    3    3    0    0 -0.25432470767E+02  0.56961785086E+01  0.10216491552E+04  0.10219834897E+04  0.19999997540E+01 0.  0.
        -13    1    3    3    0    0  0.25432470767E+02 -0.56961785086E+01  0.14093209767E+03  0.14332175109E+03  0.10566000000E+00 0.  1.
         13    1    4    4    0    0 -0.96670030730E+01  0.18362984057E+01  0.39774542099E+03  0.39786713111E+03  0.10566000000E+00 0. -1.
        -13    1    4    4    0    0 -0.42859115536E+01  0.70253344226E+00  0.14823438501E+03  0.14829803322E+03  0.10566000000E+00 0.  1.
         14    1    4    4    0    0 -0.11479556140E+02  0.31573466606E+01  0.47566934917E+03  0.47581832540E+03  0.00000000000E+00 0. -1.
<mgrwt>
<rscale>  0 0.79631243E+02</rscale>
<asrwt>0</asrwt>
<pdfrwt beam="1">  1        2 0.17906936E+00 0.79631243E+02</pdfrwt>
<pdfrwt beam="2">  1       -1 0.20953617E-03 0.79631243E+02</pdfrwt>
<totfact> 0.35564382E+05</totfact>
</mgrwt>
</event>
<event>
 8    1  0.2433467E-024  0.8046030E+02  0.7818608E-02  0.1327750E+00
          2   -1    0    0  501    0  0.00000000000E+00  0.00000000000E+00  0.53253947707E+01  0.53253953812E+01  0.25500000000E-02 0. -1.
         -1   -1    0    0    0  501 -0.00000000000E+00 -0.00000000000E+00 -0.30391450164E+03  0.30391450168E+03  0.50400000000E-02 0.  1.
         24    2    1    2    0    0 -0.35527136788E-14  0.71054273576E-14 -0.29858910687E+03  0.30923989706E+03  0.80460295764E+02 0.  0.
         66    2    3    3    0    0  0.16738280419E+02 -0.33282284266E+02 -0.91279012632E+02  0.98609018952E+02  0.19999985416E+01 0.  0.
        -13    1    3    3    0    0 -0.16738280419E+02  0.33282284266E+02 -0.20731009423E+03  0.21063087811E+03  0.10566000000E+00 0.  1.
         13    1    4    4    0    0  0.75874490320E+01 -0.15943589435E+02 -0.43465564394E+02  0.46915177491E+02  0.10566000000E+00 0. -1.
        -13    1    4    4    0    0  0.46581190777E-01 -0.34159028050E+00 -0.70037344258E+00  0.78774407122E+00  0.10566000000E+00 0.  1.
         14    1    4    4    0    0  0.91042501958E+01 -0.16997104550E+02 -0.47113074796E+02  0.50906097390E+02  0.00000000000E+00 0. -1.
<mgrwt>
<rscale>  0 0.80460296E+02</rscale>
<asrwt>0</asrwt>
<pdfrwt beam="1">  1        2 0.81929179E-03 0.80460296E+02</pdfrwt>
<pdfrwt beam="2">  1       -1 0.46756064E-01 0.80460296E+02</pdfrwt>
<totfact> 0.84721308E+04</totfact>
</mgrwt>
</event>
<event>
 8    1  0.2433467E-024  0.7808733E+02  0.7818608E-02  0.1334569E+00
          2   -1    0    0  501    0  0.00000000000E+00  0.00000000000E+00  0.11637564697E+03  0.11637564700E+03  0.25500000000E-02 0. -1.
         -1   -1    0    0    0  501 -0.00000000000E+00 -0.00000000000E+00 -0.13099027874E+02  0.13099028843E+02  0.50400000000E-02 0.  1.
         24    2    1    2    0    0 -0.17763568394E-14  0.71054273576E-14  0.10327661909E+03  0.12947467584E+03  0.78087333366E+02 0.  0.
         66    2    3    3    0    0  0.86365144075E+01 -0.36828063305E+02  0.67533150269E+02  0.77431401964E+02  0.19999992469E+01 0.  0.
        -13    1    3    3    0    0 -0.86365144075E+01  0.36828063305E+02  0.35743468826E+02  0.52043273875E+02  0.10566000000E+00 0.  1.
         13    1    4    4    0    0  0.41376737171E+01 -0.15390664953E+02  0.29103632108E+02  0.33181703956E+02  0.10566000000E+00 0. -1.
        -13    1    4    4    0    0  0.99315003496E+00 -0.42856107667E+01  0.86719283804E+01  0.97245211967E+01  0.10566000000E+00 0.  1.
        -14    1    4    4    0    0  0.35056906554E+01 -0.17151787585E+02  0.29757589781E+02  0.34525176812E+02  0.00000000000E+00 0.  1.
<mgrwt>
<rscale>  0 0.78087333E+02</rscale>
<asrwt>0</asrwt>
<pdfrwt beam="1">  1        2 0.17903945E-01 0.78087333E+02</pdfrwt>
<pdfrwt beam="2">  1       -1 0.20152352E-02 0.78087333E+02</pdfrwt>
<totfact> 0.19750392E+05</totfact>
</mgrwt>
</event>
<event>
 8    1  0.2433467E-024  0.7940078E+02  0.7818608E-02  0.1330761E+00
         -1   -1    0    0    0  501 -0.00000000000E+00  0.00000000000E+00  0.23731177903E+02  0.23731178438E+02  0.50400000000E-02 0.  1.
          2   -1    0    0  501    0  0.00000000000E+00 -0.00000000000E+00 -0.66415619105E+02  0.66415619154E+02  0.25500000000E-02 0. -1.
         24    2    1    2    0    0  0.88817841970E-15  0.71054273576E-14 -0.42684441202E+02  0.90146797592E+02  0.79400778305E+02 0.  0.
         66    2    3    3    0    0  0.45101844994E+01  0.39008183309E+02 -0.27791785853E+02  0.48149387236E+02  0.20000002460E+01 0.  0.
        -13    1    3    3    0    0 -0.45101844994E+01 -0.39008183309E+02 -0.14892655349E+02  0.41997410357E+02  0.10566000000E+00 0.  1.
         13    1    4    4    0    0  0.27572541853E+01  0.18147031721E+02 -0.12492753002E+02  0.22203541441E+02  0.10566000000E+00 0. -1.
        -13    1    4    4    0    0  0.15381848073E+01  0.13076979130E+02 -0.95144291170E+01  0.16245273809E+02  0.10566000000E+00 0.  1.
        -14    1    4    4    0    0  0.21474550685E+00  0.77841724583E+01 -0.57846037339E+01  0.97005719858E+01  0.00000000000E+00 0.  1.
<mgrwt>
<rscale>  0 0.79400778E+02</rscale>
<asrwt>0</asrwt>
<pdfrwt beam="1">  1        2 0.10217787E-01 0.79400778E+02</pdfrwt>
<pdfrwt beam="2">  1       -1 0.36509505E-02 0.79400778E+02</pdfrwt>
<totfact> 0.16270722E+05</totfact>
</mgrwt>
</event>
<event>
 8    1  0.2433467E-024  0.8555181E+02  0.7818608E-02  0.1313996E+00
          2   -1    0    0  501    0  0.00000000000E+00  0.00000000000E+00  0.62714844654E+02  0.62714844705E+02  0.25500000000E-02 0. -1.
         -1   -1    0    0    0  501 -0.00000000000E+00 -0.00000000000E+00 -0.29176158198E+02  0.29176158634E+02  0.50400000000E-02 0.  1.
         24    2    1    2    0    0  0.00000000000E+00  0.00000000000E+00  0.33538686455E+02  0.91891003339E+02  0.85551814741E+02 0.  0.
         66    2    3    3    0    0 -0.12772610671E+02  0.36615736616E+02  0.36109896675E+02  0.53026185864E+02  0.19999995222E+01 0.  0.
        -13    1    3    3    0    0  0.12772610671E+02 -0.36615736616E+02 -0.25712102200E+01  0.38864817475E+02  0.10566000000E+00 0.  1.
         13    1    4    4    0    0 -0.78593624632E+01  0.20354274691E+02  0.20754822087E+02  0.30113782234E+02  0.10566000000E+00 0. -1.
        -13    1    4    4    0    0 -0.79079471272E+00  0.21288381232E+01  0.23399393004E+01  0.32624818770E+01  0.10566000000E+00 0.  1.
        -14    1    4    4    0    0 -0.41224534954E+01  0.14132623802E+02  0.13015135288E+02  0.19649921753E+02  0.00000000000E+00 0.  1.
<mgrwt>
<rscale>  0 0.85551815E+02</rscale>
<asrwt>0</asrwt>
<pdfrwt beam="1">  1        2 0.96484376E-02 0.85551815E+02</pdfrwt>
<pdfrwt beam="2">  1       -1 0.44886398E-02 0.85551815E+02</pdfrwt>
<totfact> 0.13095774E+05</totfact>
</mgrwt>
</event>
<event>
 8    1  0.2433467E-024  0.8023350E+02  0.7818608E-02  0.1328390E+00
          2   -1    0    0  501    0  0.00000000000E+00  0.00000000000E+00  0.47956847601E+01  0.47956854380E+01  0.25500000000E-02 0. -1.
         -1   -1    0    0    0  501 -0.00000000000E+00 -0.00000000000E+00 -0.33558364301E+03  0.33558364304E+03  0.50400000000E-02 0.  1.
         24    2    1    2    0    0  0.00000000000E+00  0.00000000000E+00 -0.33078795825E+03  0.34037932848E+03  0.80233496355E+02 0.  0.
         66    2    3    3    0    0  0.33170744479E+02  0.20613932482E+02 -0.20393982790E+03  0.20765520921E+03  0.20000010588E+01 0.  0.
        -13    1    3    3    0    0 -0.33170744479E+02 -0.20613932482E+02 -0.12684813034E+03  0.13272411927E+03  0.10566000000E+00 0.  1.
         13    1    4    4    0    0  0.40983875374E+01  0.26035316722E+01 -0.22644446325E+02  0.23159388398E+02  0.10566000000E+00 0.  1.
        -13    1    4    4    0    0  0.18646382799E+01  0.93605463073E+00 -0.11830966110E+02  0.12013991731E+02  0.10566000000E+00 0. -1.
         14    1    4    4    0    0  0.27207718662E+02  0.17074346179E+02 -0.16946441547E+03  0.17248182908E+03  0.00000000000E+00 0. -1.
<mgrwt>
<rscale>  0 0.80233496E+02</rscale>
<asrwt>0</asrwt>
<pdfrwt beam="1">  1        2 0.73779798E-03 0.80233496E+02</pdfrwt>
<pdfrwt beam="2">  1       -1 0.51628234E-01 0.80233496E+02</pdfrwt>
<totfact> 0.81808480E+04</totfact>
</mgrwt>
</event>
<event>
 8    1  0.2433467E-024  0.8002056E+02  0.7818608E-02  0.1328993E+00
          2   -1    0    0  501    0  0.00000000000E+00  0.00000000000E+00  0.34845242894E+02  0.34845242987E+02  0.25500000000E-02 0. -1.
         -1   -1    0    0    0  501 -0.00000000000E+00 -0.00000000000E+00 -0.45940924660E+02  0.45940924937E+02  0.50400000000E-02 0.  1.
         24    2    1    2    0    0  0.00000000000E+00 -0.35527136788E-14 -0.11095681767E+02  0.80786167924E+02  0.80020564694E+02 0.  0.
         66    2    3    3    0    0 -0.48215573148E+01 -0.25315299625E+02  0.25314172943E+02  0.36178988075E+02  0.20000040647E+01 0.  0.
        -13    1    3    3    0    0  0.48215573148E+01  0.25315299625E+02 -0.36409854710E+02  0.44607179849E+02  0.10566000000E+00 0.  1.
         13    1    4    4    0    0 -0.23131552941E+00 -0.36172865412E+01  0.33027331093E+01  0.49048423851E+01  0.10566000000E+00 0. -1.
        -13    1    4    4    0    0 -0.38039042649E+01 -0.15497829693E+02  0.16199475745E+02  0.22739538062E+02  0.10566000000E+00 0.  1.
        -14    1    4    4    0    0 -0.78633752047E+00 -0.62001833914E+01  0.58119640893E+01  0.85346076276E+01  0.00000000000E+00 0.  1.
<mgrwt>
<rscale>  0 0.80020565E+02</rscale>
<asrwt>0</asrwt>
<pdfrwt beam="1">  1        2 0.53608066E-02 0.80020565E+02</pdfrwt>
<pdfrwt beam="2">  1       -1 0.70678346E-02 0.80020565E+02</pdfrwt>
<totfact> 0.13851767E+05</totfact>
</mgrwt>
</event>
<event>
 8    1  0.2433467E-024  0.7287356E+02  0.7818608E-02  0.1350585E+00
          2   -1    0    0  501    0  0.00000000000E+00  0.00000000000E+00  0.19341609710E+02  0.19341609879E+02  0.25500000000E-02 0. -1.
         -1   -1    0    0    0  501 -0.00000000000E+00 -0.00000000000E+00 -0.68641587071E+02  0.68641587256E+02  0.50400000000E-02 0.  1.
         24    2    1    2    0    0 -0.35527136788E-14  0.35527136788E-14 -0.49299977360E+02  0.87983197134E+02  0.72873556317E+02 0.  0.
         66    2    3    3    0    0 -0.21496558106E+02 -0.29329072550E+02 -0.22462859322E+02  0.42788744204E+02  0.20000186473E+01 0.  0.
        -13    1    3    3    0    0  0.21496558106E+02  0.29329072550E+02 -0.26837118038E+02  0.45194452930E+02  0.10566000000E+00 0.  1.
         13    1    4    4    0    0 -0.99833886982E+01 -0.12629181886E+02 -0.10041866302E+02  0.18974048800E+02  0.10566000000E+00 0. -1.
        -13    1    4    4    0    0 -0.39572628851E+01 -0.58491478593E+01 -0.36772557918E+01  0.79627780589E+01  0.10566000000E+00 0.  1.
         14    1    4    4    0    0 -0.75559065228E+01 -0.10850742804E+02 -0.87437372292E+01  0.15851917345E+02  0.00000000000E+00 0. -1.
<mgrwt>
<rscale>  0 0.72873556E+02</rscale>
<asrwt>0</asrwt>
<pdfrwt beam="1">  1        2 0.29756323E-02 0.72873556E+02</pdfrwt>
<pdfrwt beam="2">  1       -1 0.10560244E-01 0.72873556E+02</pdfrwt>
<totfact> 0.16087583E+05</totfact>
</mgrwt>
</event>
<event>
 8    1  0.2433467E-024  0.8433464E+02  0.7818608E-02  0.1317182E+00
         -1   -1    0    0    0  501 -0.00000000000E+00  0.00000000000E+00  0.18769854258E+01  0.18769921924E+01  0.50400000000E-02 0.  1.
          2   -1    0    0  501    0  0.00000000000E+00 -0.00000000000E+00 -0.94730607024E+03  0.94730607024E+03  0.25500000000E-02 0. -1.
         24    2    1    2    0    0  0.00000000000E+00  0.22204460493E-15 -0.94542908481E+03  0.94918306244E+03  0.84334640584E+02 0.  0.
         66    2    3    3    0    0 -0.18834823490E+02 -0.98036875793E+00 -0.89715375250E+03  0.89735420394E+03  0.20000016679E+01 0.  0.
        -13    1    3    3    0    0  0.18834823490E+02  0.98036875793E+00 -0.48275332311E+02  0.51828858492E+02  0.10566000000E+00 0.  1.
         13    1    4    4    0    0 -0.12168635233E+02 -0.11087726621E+01 -0.58056901355E+03  0.58069759403E+03  0.10566000000E+00 0. -1.
        -13    1    4    4    0    0 -0.12568463554E+01 -0.23895144329E-01 -0.43631372650E+02  0.43649605692E+02  0.10566000000E+00 0.  1.
        -14    1    4    4    0    0 -0.54093419009E+01  0.15229904847E+00 -0.27295336630E+03  0.27300700422E+03  0.00000000000E+00 0.  1.
<mgrwt>
<rscale>  0 0.84334641E+02</rscale>
<asrwt>0</asrwt>
<pdfrwt beam="1">  1        2 0.14573901E+00 0.84334641E+02</pdfrwt>
<pdfrwt beam="2">  1       -1 0.28876827E-03 0.84334641E+02</pdfrwt>
<totfact> 0.30608988E+05</totfact>
</mgrwt>
</event>
<event>
 8    1  0.2433467E-024  0.8449719E+02  0.7818608E-02  0.1316753E+00
         -1   -1    0    0    0  501 -0.00000000000E+00  0.00000000000E+00  0.42100339907E+01  0.42100370075E+01  0.50400000000E-02 0.  1.
          2   -1    0    0  501    0  0.00000000000E+00 -0.00000000000E+00 -0.42397361459E+03  0.42397361460E+03  0.25500000000E-02 0. -1.
         24    2    1    2    0    0  0.00000000000E+00  0.17763568394E-14 -0.41976358060E+03  0.42818365161E+03  0.84497194655E+02 0.  0.
         66    2    3    3    0    0  0.57784925467E+01  0.11447828902E+02 -0.41386443437E+03  0.41406788550E+03  0.19999992592E+01 0.  0.
        -13    1    3    3    0    0 -0.57784925467E+01 -0.11447828902E+02 -0.58991462288E+01  0.14115766112E+02  0.10566000000E+00 0.  1.
         13    1    4    4    0    0  0.46103020516E-01  0.15481646542E-01 -0.33765738890E+01  0.33785766875E+01  0.10566000000E+00 0.  1.
        -13    1    4    4    0    0  0.52642571655E+00  0.20017313567E+01 -0.58796231712E+02  0.58832746664E+02  0.10566000000E+00 0.  1.
         14    1    4    4    0    0  0.52059638097E+01  0.94306158984E+01 -0.35169162877E+03  0.35185656214E+03  0.00000000000E+00 0. -1.
<mgrwt>
<rscale>  0 0.84497195E+02</rscale>
<asrwt>0</asrwt>
<pdfrwt beam="1">  1        2 0.65226676E-01 0.84497195E+02</pdfrwt>
<pdfrwt beam="2">  1       -1 0.64769811E-03 0.84497195E+02</pdfrwt>
<totfact> 0.24983986E+05</totfact>
</mgrwt>
</event>
<event>
 8    1  0.2433467E-024  0.7818234E+02  0.7818608E-02  0.1334290E+00
          2   -1    0    0  501    0  0.00000000000E+00  0.00000000000E+00  0.53789583362E+03  0.53789583363E+03  0.25500000000E-02 0. -1.
         -1   -1    0    0    0  501 -0.00000000000E+00 -0.00000000000E+00 -0.28409184740E+01  0.28409229446E+01  0.50400000000E-02 0.  1.
         24    2    1    2    0    0 -0.35527136788E-14  0.00000000000E+00  0.53505491515E+03  0.54073675657E+03  0.78182336142E+02 0.  0.
         66    2    3    3    0    0  0.13166406528E+02 -0.35845632350E+02  0.32467318474E+03  0.32691732979E+03  0.20000008390E+01 0.  0.
        -13    1    3    3    0    0 -0.13166406528E+02  0.35845632350E+02  0.21038173040E+03  0.21381942679E+03  0.10566000000E+00 0.  1.
         13    1    4    4    0    0  0.45407261962E+01 -0.13077295611E+02  0.11398173486E+03  0.11481934027E+03  0.10566000000E+00 0. -1.
        -13    1    4    4    0    0  0.32095004755E+01 -0.96170867802E+01  0.83091193279E+02  0.83707507524E+02  0.10566000000E+00 0.  1.
        -14    1    4    4    0    0  0.54161798561E+01 -0.13151249959E+02  0.12760025661E+03  0.12839048199E+03  0.00000000000E+00 0.  1.
<mgrwt>
<rscale>  0 0.78182336E+02</rscale>
<asrwt>0</asrwt>
<pdfrwt beam="1">  1        2 0.82753161E-01 0.78182336E+02</pdfrwt>
<pdfrwt beam="2">  1       -1 0.43706496E-03 0.78182336E+02</pdfrwt>
<totfact> 0.33071943E+05</totfact>
</mgrwt>
</event>
<event>
 8    1  0.2433467E-024  0.8003947E+02  0.7818608E-02  0.1328939E+00
         -1   -1    0    0    0  501 -0.00000000000E+00  0.00000000000E+00  0.43959101064E+01  0.43959129956E+01  0.50400000000E-02 0.  1.
          2   -1    0    0  501    0  0.00000000000E+00 -0.00000000000E+00 -0.36433382158E+03  0.36433382159E+03  0.25500000000E-02 0. -1.
         24    2    1    2    0    0  0.00000000000E+00  0.00000000000E+00 -0.35993791147E+03  0.36872973458E+03  0.80039471829E+02 0.  0.
         66    2    3    3    0    0  0.22828984168E+02 -0.30270643702E+02 -0.23873470159E+03  0.24173483847E+03  0.19999999480E+01 0.  0.
        -13    1    3    3    0    0 -0.22828984168E+02  0.30270643702E+02 -0.12120320988E+03  0.12699489611E+03  0.10566000000E+00 0.  1.
         13    1    4    4    0    0  0.84186328824E+01 -0.11024636482E+02 -0.91350763779E+02  0.92397993464E+02  0.10566000000E+00 0. -1.
        -13    1    4    4    0    0  0.53854212947E+01 -0.72083244104E+01 -0.58718995294E+02  0.59404497100E+02  0.10566000000E+00 0.  1.
        -14    1    4    4    0    0  0.90249299909E+01 -0.12037682810E+02 -0.88664942518E+02  0.89932347909E+02  0.00000000000E+00 0.  1.
<mgrwt>
<rscale>  0 0.80039472E+02</rscale>
<asrwt>0</asrwt>
<pdfrwt beam="1">  1        2 0.56051333E-01 0.80039472E+02</pdfrwt>
<pdfrwt beam="2">  1       -1 0.67629437E-03 0.80039472E+02</pdfrwt>
<totfact> 0.27302105E+05</totfact>
</mgrwt>
</event>
<event>
 8    1  0.2433467E-024  0.8246250E+02  0.7818608E-02  0.1322205E+00
         -1   -1    0    0    0  501 -0.00000000000E+00  0.00000000000E+00  0.92057682666E+02  0.92057682804E+02  0.50400000000E-02 0.  1.
          2   -1    0    0  501    0  0.00000000000E+00 -0.00000000000E+00 -0.18466855590E+02  0.18466855766E+02  0.25500000000E-02 0. -1.
         24    2    1    2    0    0  0.00000000000E+00  0.00000000000E+00  0.73590827077E+02  0.11052453857E+03  0.82462499333E+02 0.  0.
         66    2    3    3    0    0  0.50691303974E+01 -0.18153277018E+02 -0.12296807760E+02  0.22593119092E+02  0.19999999366E+01 0.  0.
        -13    1    3    3    0    0 -0.50691303974E+01  0.18153277018E+02  0.85887634837E+02  0.87931419478E+02  0.10566000000E+00 0.  1.
         13    1    4    4    0    0  0.29491781736E+01 -0.10793232632E+02 -0.66520074523E+01  0.13017368771E+02  0.10566000000E+00 0. -1.
        -13    1    4    4    0    0  0.16503875869E-01 -0.40264245997E+00 -0.86139269274E-01  0.42541431311E+00  0.10566000000E+00 0. -1.
         14    1    4    4    0    0  0.21034483479E+01 -0.69574019259E+01 -0.55586610388E+01  0.91503360077E+01  0.00000000000E+00 0. -1.
<mgrwt>
<rscale>  0 0.82462499E+02</rscale>
<asrwt>0</asrwt>
<pdfrwt beam="1">  1        2 0.28410546E-02 0.82462499E+02</pdfrwt>
<pdfrwt beam="2">  1       -1 0.14162721E-01 0.82462499E+02</pdfrwt>
<totfact> 0.11187710E+05</totfact>
</mgrwt>
</event>
<event>
 8    1  0.2433467E-024  0.8151115E+02  0.7818608E-02  0.1324817E+00
         -1   -1    0    0    0  501 -0.00000000000E+00  0.00000000000E+00  0.11729407176E+01  0.11729515457E+01  0.50400000000E-02 0.  1.
          2   -1    0    0  501    0  0.00000000000E+00 -0.00000000000E+00 -0.14161067147E+04  0.14161067147E+04  0.25500000000E-02 0. -1.
         24    2    1    2    0    0  0.00000000000E+00  0.00000000000E+00 -0.14149337740E+04  0.14172796662E+04  0.81511150181E+02 0.  0.
         66    2    3    3    0    0  0.22392953834E+01 -0.23354223999E+02 -0.12868156873E+04  0.12870310980E+04  0.20000013863E+01 0.  0.
        -13    1    3    3    0    0 -0.22392953834E+01  0.23354223999E+02 -0.12811808670E+03  0.13024856823E+03  0.10566000000E+00 0.  1.
         13    1    4    4    0    0  0.11371407749E+01 -0.12101492003E+02 -0.65499236268E+03  0.65510514082E+03  0.10566000000E+00 0. -1.
        -13    1    4    4    0    0 -0.18164818712E+00 -0.21021647071E+01 -0.13835895526E+03  0.13837508359E+03  0.10566000000E+00 0. -1.
         14    1    4    4    0    0  0.12838027957E+01 -0.91505672885E+01 -0.49346436932E+03  0.49355087359E+03  0.00000000000E+00 0. -1.
<mgrwt>
<rscale>  0 0.81511150E+02</rscale>
<asrwt>0</asrwt>
<pdfrwt beam="1">  1        2 0.21786120E+00 0.81511150E+02</pdfrwt>
<pdfrwt beam="2">  1       -1 0.18045438E-03 0.81511150E+02</pdfrwt>
<totfact> 0.32290847E+05</totfact>
</mgrwt>
</event>
<event>
 8    1  0.2433467E-024  0.8152491E+02  0.7818608E-02  0.1324779E+00
          2   -1    0    0  501    0  0.00000000000E+00  0.00000000000E+00  0.59379105151E+03  0.59379105151E+03  0.25500000000E-02 0. -1.
         -1   -1    0    0    0  501 -0.00000000000E+00 -0.00000000000E+00 -0.27982508938E+01  0.27982554326E+01  0.50400000000E-02 0.  1.
         24    2    1    2    0    0  0.00000000000E+00 -0.88817841970E-15  0.59099280062E+03  0.59658930695E+03  0.81524908982E+02 0.  0.
         66    2    3    3    0    0 -0.91290605028E+01  0.77497856295E+01  0.58061782230E+03  0.58074474125E+03  0.19999997665E+01 0.  0.
        -13    1    3    3    0    0  0.91290605028E+01 -0.77497856295E+01  0.10374978320E+02  0.15844565697E+02  0.10566000000E+00 0.  1.
         13    1    4    4    0    0 -0.42947051292E+01  0.27305052753E+01  0.25872668757E+03  0.25877675741E+03  0.10566000000E+00 0. -1.
        -13    1    4    4    0    0 -0.44635197293E+01  0.43954173214E+01  0.27594191040E+03  0.27601302828E+03  0.10566000000E+00 0.  1.
        -14    1    4    4    0    0 -0.37083564438E+00  0.62386303275E+00  0.45949224325E+02  0.45954955557E+02  0.00000000000E+00 0.  1.
<mgrwt>
<rscale>  0 0.81524909E+02</rscale>
<asrwt>0</asrwt>
<pdfrwt beam="1">  1        2 0.91352546E-01 0.81524909E+02</pdfrwt>
<pdfrwt beam="2">  1       -1 0.43050013E-03 0.81524909E+02</pdfrwt>
<totfact> 0.30530923E+05</totfact>
</mgrwt>
</event>
<event>
 8    1  0.2433467E-024  0.8046716E+02  0.7818608E-02  0.1327731E+00
         -1   -1    0    0    0  501 -0.00000000000E+00  0.00000000000E+00  0.12358234182E+02  0.12358235210E+02  0.50400000000E-02 0.  1.
          2   -1    0    0  501    0  0.00000000000E+00 -0.00000000000E+00 -0.13098481845E+03  0.13098481848E+03  0.25500000000E-02 0. -1.
         24    2    1    2    0    0 -0.35527136788E-14  0.00000000000E+00 -0.11862658427E+03  0.14334305369E+03  0.80467164389E+02 0.  0.
         66    2    3    3    0    0  0.17659616092E+02  0.32880011151E+02 -0.85998015233E+02  0.93768949003E+02  0.19999998491E+01 0.  0.
        -13    1    3    3    0    0 -0.17659616092E+02 -0.32880011151E+02 -0.32628569037E+02  0.49574104684E+02  0.10566000000E+00 0.  1.
         13    1    4    4    0    0  0.79936395290E+01  0.14049568591E+02 -0.37345544673E+02  0.40693851150E+02  0.10566000000E+00 0. -1.
        -13    1    4    4    0    0  0.67225879229E+01  0.12192545687E+02 -0.30704348199E+02  0.33713788293E+02  0.10566000000E+00 0.  1.
         14    1    4    4    0    0  0.29433886404E+01  0.66378968734E+01 -0.17948122361E+02  0.19361309560E+02  0.00000000000E+00 0. -1.
<mgrwt>
<rscale>  0 0.80467164E+02</rscale>
<asrwt>0</asrwt>
<pdfrwt beam="1">  1        2 0.20151510E-01 0.80467164E+02</pdfrwt>
<pdfrwt beam="2">  1       -1 0.19012670E-02 0.80467164E+02</pdfrwt>
<totfact> 0.18895991E+05</totfact>
</mgrwt>
</event>
<event>
 8    1  0.2433467E-024  0.7954667E+02  0.7818608E-02  0.1330343E+00
         -1   -1    0    0    0  501 -0.00000000000E+00  0.00000000000E+00  0.11731613489E+02  0.11731614571E+02  0.50400000000E-02 0.  1.
          2   -1    0    0  501    0  0.00000000000E+00 -0.00000000000E+00 -0.13484231847E+03  0.13484231849E+03  0.25500000000E-02 0. -1.
         24    2    1    2    0    0  0.00000000000E+00  0.00000000000E+00 -0.12311070498E+03  0.14657393306E+03  0.79546666638E+02 0.  0.
         66    2    3    3    0    0  0.11501765968E+02  0.17044101619E+02 -0.12427345849E+03  0.12597890502E+03  0.20000010670E+01 0.  0.
        -13    1    3    3    0    0 -0.11501765968E+02 -0.17044101619E+02  0.11627535105E+01  0.20595028045E+02  0.10566000000E+00 0.  1.
         13    1    4    4    0    0  0.62951646390E+01  0.99496422282E+01 -0.68609125294E+02  0.69612123340E+02  0.10566000000E+00 0. -1.
        -13    1    4    4    0    0  0.31841679623E+01  0.35027818012E+01 -0.31343112121E+02  0.31698742048E+02  0.10566000000E+00 0.  1.
        -14    1    4    4    0    0  0.20224333671E+01  0.35916775897E+01 -0.24321221076E+02  0.24668039631E+02  0.00000000000E+00 0.  1.
<mgrwt>
<rscale>  0 0.79546667E+02</rscale>
<asrwt>0</asrwt>
<pdfrwt beam="1">  1        2 0.20744971E-01 0.79546667E+02</pdfrwt>
<pdfrwt beam="2">  1       -1 0.18048638E-02 0.79546667E+02</pdfrwt>
<totfact> 0.19659583E+05</totfact>
</mgrwt>
</event>
<event>
 8    1  0.2433467E-024  0.8153574E+02  0.7818608E-02  0.1324749E+00
         -1   -1    0    0    0  501 -0.00000000000E+00  0.00000000000E+00  0.61090873378E+01  0.61090894168E+01  0.50400000000E-02 0.  1.
          2   -1    0    0  501    0  0.00000000000E+00 -0.00000000000E+00 -0.27205682773E+03  0.27205682774E+03  0.25500000000E-02 0. -1.
         24    2    1    2    0    0  0.00000000000E+00 -0.35527136788E-14 -0.26594774039E+03  0.27816591716E+03  0.81535739704E+02 0.  0.
         66    2    3    3    0    0 -0.21767862625E+02  0.19972288395E+02 -0.22877770856E+03  0.23068587317E+03  0.19999994959E+01 0.  0.
        -13    1    3    3    0    0  0.21767862625E+02 -0.19972288395E+02 -0.37170031833E+02  0.47480043992E+02  0.10566000000E+00 0.  1.
         13    1    4    4    0    0 -0.15531167487E+02  0.14743386850E+02 -0.16746566925E+03  0.16882934034E+03  0.10566000000E+00 0. -1.
        -13    1    4    4    0    0 -0.15110856952E+01  0.12697822692E+01 -0.12201410187E+02  0.12360473356E+02  0.10566000000E+00 0.  1.
        -14    1    4    4    0    0 -0.47256094425E+01  0.39591192759E+01 -0.49110629128E+02  0.49496059473E+02  0.00000000000E+00 0.  1.
<mgrwt>
<rscale>  0 0.81535740E+02</rscale>
<asrwt>0</asrwt>
<pdfrwt beam="1">  1        2 0.41854887E-01 0.81535740E+02</pdfrwt>
<pdfrwt beam="2">  1       -1 0.93985996E-03 0.81535740E+02</pdfrwt>
<totfact> 0.23407958E+05</totfact>
</mgrwt>
</event>
<event>
 8    1  0.2433467E-024  0.7846174E+02  0.7818608E-02  0.1333474E+00
         -1   -1    0    0    0  501 -0.00000000000E+00  0.00000000000E+00  0.11543386668E+02  0.11543387769E+02  0.50400000000E-02 0.  1.
          2   -1    0    0  501    0  0.00000000000E+00 -0.00000000000E+00 -0.13332838342E+03  0.13332838344E+03  0.25500000000E-02 0. -1.
         24    2    1    2    0    0  0.00000000000E+00 -0.17763568394E-14 -0.12178499675E+03  0.14487177121E+03  0.78461740106E+02 0.  0.
         66    2    3    3    0    0 -0.27777208380E+02  0.80844986800E+01 -0.10978742950E+03  0.11355268425E+03  0.19999998031E+01 0.  0.
        -13    1    3    3    0    0  0.27777208380E+02 -0.80844986800E+01 -0.11997567249E+02  0.31319086963E+02  0.10566000000E+00 0.  1.
         13    1    4    4    0    0 -0.25608168886E+02  0.69121885800E+01 -0.10006110536E+03  0.10351711276E+03  0.10566000000E+00 0. -1.
        -13    1    4    4    0    0 -0.90229867895E+00  0.44840558166E+00 -0.39723310871E+01  0.40994864036E+01  0.10566000000E+00 0. -1.
         14    1    4    4    0    0 -0.12667408154E+01  0.72390451833E+00 -0.57539930486E+01  0.59360850776E+01  0.00000000000E+00 0. -1.
<mgrwt>
<rscale>  0 0.78461740E+02</rscale>
<asrwt>0</asrwt>
<pdfrwt beam="1">  1        2 0.20512058E-01 0.78461740E+02</pdfrwt>
<pdfrwt beam="2">  1       -1 0.17759058E-02 0.78461740E+02</pdfrwt>
<totfact> 0.20318560E+05</totfact>
</mgrwt>
</event>
<event>
 8    1  0.2433467E-024  0.8060071E+02  0.7818608E-02  0.1327355E+00
         -1   -1    0    0    0  501 -0.00000000000E+00  0.00000000000E+00  0.12571756241E+02  0.12571757252E+02  0.50400000000E-02 0.  1.
          2   -1    0    0  501    0  0.00000000000E+00 -0.00000000000E+00 -0.12918788411E+03  0.12918788414E+03  0.25500000000E-02 0. -1.
         24    2    1    2    0    0  0.00000000000E+00  0.00000000000E+00 -0.11661612787E+03  0.14175964139E+03  0.80600711207E+02 0.  0.
         66    2    3    3    0    0  0.34112645087E+02 -0.14465728940E+02 -0.86107329440E+02  0.93762476740E+02  0.19999981134E+01 0.  0.
        -13    1    3    3    0    0 -0.34112645087E+02  0.14465728940E+02 -0.30508798430E+02  0.47997164649E+02  0.10566000000E+00 0.  1.
         13    1    4    4    0    0  0.81979233509E+01 -0.29824121834E+01 -0.19732333202E+02  0.21574912916E+02  0.10566000000E+00 0. -1.
        -13    1    4    4    0    0  0.45601506180E+01 -0.15606933044E+01 -0.12064127682E+02  0.12991731140E+02  0.10566000000E+00 0.  1.
        -14    1    4    4    0    0  0.21354571118E+02 -0.99226234526E+01 -0.54310868556E+02  0.59195832684E+02  0.00000000000E+00 0.  1.
<mgrwt>
<rscale>  0 0.80600711E+02</rscale>
<asrwt>0</asrwt>
<pdfrwt beam="1">  1        2 0.19875058E-01 0.80600711E+02</pdfrwt>
<pdfrwt beam="2">  1       -1 0.19341165E-02 0.80600711E+02</pdfrwt>
<totfact> 0.18732706E+05</totfact>
</mgrwt>
</event>
<event>
 8    1  0.2433467E-024  0.7888406E+02  0.7818608E-02  0.1332248E+00
         -1   -1    0    0    0  501 -0.00000000000E+00  0.00000000000E+00  0.22387261817E+02  0.22387262384E+02  0.50400000000E-02 0.  1.
          2   -1    0    0  501    0  0.00000000000E+00 -0.00000000000E+00 -0.69489229423E+02  0.69489229469E+02  0.25500000000E-02 0. -1.
         24    2    1    2    0    0 -0.35527136788E-14  0.00000000000E+00 -0.47101967606E+02  0.91876491854E+02  0.78884056710E+02 0.  0.
         66    2    3    3    0    0  0.22469616013E+02  0.86093020635E+01 -0.59927667985E+02  0.64609048261E+02  0.20000003358E+01 0.  0.
        -13    1    3    3    0    0 -0.22469616013E+02 -0.86093020635E+01  0.12825700379E+02  0.27267443592E+02  0.10566000000E+00 0.  1.
         13    1    4    4    0    0  0.34377114340E+01  0.81796348461E+00 -0.78535093094E+01  0.86125313744E+01  0.10566000000E+00 0. -1.
        -13    1    4    4    0    0  0.76948027248E+00  0.17390594833E+00 -0.22712740293E+01  0.24066975133E+01  0.10566000000E+00 0. -1.
         14    1    4    4    0    0  0.18262424307E+02  0.76174326306E+01 -0.49802884646E+02  0.53589819374E+02  0.00000000000E+00 0. -1.
<mgrwt>
<rscale>  0 0.78884057E+02</rscale>
<asrwt>0</asrwt>
<pdfrwt beam="1">  1        2 0.10690651E-01 0.78884057E+02</pdfrwt>
<pdfrwt beam="2">  1       -1 0.34441942E-02 0.78884057E+02</pdfrwt>
<totfact> 0.16741934E+05</totfact>
</mgrwt>
</event>
<event>
 8    1  0.2433467E-024  0.7959349E+02  0.7818608E-02  0.1330209E+00
         -1   -1    0    0    0  501 -0.00000000000E+00  0.00000000000E+00  0.11526218458E+02  0.11526219559E+02  0.50400000000E-02 0.  1.
          2   -1    0    0  501    0  0.00000000000E+00 -0.00000000000E+00 -0.13740678732E+03  0.13740678734E+03  0.25500000000E-02 0. -1.
         24    2    1    2    0    0  0.00000000000E+00  0.00000000000E+00 -0.12588056886E+03  0.14893300690E+03  0.79593485461E+02 0.  0.
         66    2    3    3    0    0  0.11439587066E+02  0.10742888634E+02 -0.13136095396E+03  0.13231014333E+03  0.19999986840E+01 0.  0.
        -13    1    3    3    0    0 -0.11439587066E+02 -0.10742888634E+02  0.54803850982E+01  0.16622863571E+02  0.10566000000E+00 0.  1.
         13    1    4    4    0    0  0.44582128856E+01  0.43437206597E+01 -0.50205531201E+02  0.50590019752E+02  0.10566000000E+00 0. -1.
        -13    1    4    4    0    0  0.15609672054E+00  0.66037994450E-01 -0.70660353644E+00  0.73428863274E+00  0.10566000000E+00 0. -1.
         14    1    4    4    0    0  0.68252774594E+01  0.63331299799E+01 -0.80448819219E+02  0.80985834943E+02  0.00000000000E+00 0. -1.
<mgrwt>
<rscale>  0 0.79593485E+02</rscale>
<asrwt>0</asrwt>
<pdfrwt beam="1">  1        2 0.21139505E-01 0.79593485E+02</pdfrwt>
<pdfrwt beam="2">  1       -1 0.17732646E-02 0.79593485E+02</pdfrwt>
<totfact> 0.19744742E+05</totfact>
</mgrwt>
</event>
<event>
 8    1  0.2433467E-024  0.7918398E+02  0.7818608E-02  0.1331383E+00
          2   -1    0    0  501    0  0.00000000000E+00  0.00000000000E+00  0.12218087531E+02  0.12218087797E+02  0.25500000000E-02 0. -1.
         -1   -1    0    0    0  501 -0.00000000000E+00 -0.00000000000E+00 -0.12829550432E+03  0.12829550442E+03  0.50400000000E-02 0.  1.
         24    2    1    2    0    0  0.11102230246E-15 -0.71054273576E-14 -0.11607741679E+03  0.14051359222E+03  0.79183981393E+02 0.  0.
         66    2    3    3    0    0 -0.61455754425E+00 -0.39494564516E+02 -0.53981726133E+02  0.66919541714E+02  0.19999999300E+01 0.  0.
        -13    1    3    3    0    0  0.61455754425E+00  0.39494564516E+02 -0.62095690657E+02  0.73594050503E+02  0.10566000000E+00 0.  1.
         13    1    4    4    0    0  0.49694478327E+00 -0.15147595527E+02 -0.21684428524E+02  0.26456042955E+02  0.10566000000E+00 0. -1.
        -13    1    4    4    0    0 -0.21380037049E+00 -0.85452738447E+01 -0.11303084565E+02  0.14171743026E+02  0.10566000000E+00 0.  1.
         14    1    4    4    0    0 -0.89770195702E+00 -0.15801695144E+02 -0.20994213043E+02  0.26291755733E+02  0.00000000000E+00 0. -1.
<mgrwt>
<rscale>  0 0.79183981E+02</rscale>
<asrwt>0</asrwt>
<pdfrwt beam="1">  1        2 0.18797059E-02 0.79183981E+02</pdfrwt>
<pdfrwt beam="2">  1       -1 0.19737769E-01 0.79183981E+02</pdfrwt>
<totfact> 0.11501556E+05</totfact>
</mgrwt>
</event>
<event>
 8    1  0.2433467E-024  0.7272212E+02  0.7818608E-02  0.1351074E+00
          2   -1    0    0  501    0  0.00000000000E+00  0.00000000000E+00  0.11763856933E+03  0.11763856936E+03  0.25500000000E-02 0. -1.
         -1   -1    0    0    0  501 -0.00000000000E+00 -0.00000000000E+00 -0.11238885983E+02  0.11238887113E+02  0.50400000000E-02 0.  1.
         24    2    1    2    0    0  0.00000000000E+00 -0.17763568394E-14  0.10639968335E+03  0.12887745648E+03  0.72722116102E+02 0.  0.
         66    2    3    3    0    0 -0.18769645024E+02  0.57446865680E+01  0.10742441033E+03  0.10922135749E+03  0.19999994399E+01 0.  0.
        -13    1    3    3    0    0  0.18769645024E+02 -0.57446865680E+01 -0.10247269803E+01  0.19656098990E+02  0.10566000000E+00 0.  1.
         13    1    4    4    0    0 -0.70095382181E+01  0.21755568822E+01  0.35816153502E+02  0.36560561942E+02  0.10566000000E+00 0. -1.
        -13    1    4    4    0    0 -0.47054772456E+01  0.12151025494E+01  0.30582297302E+02  0.30966208400E+02  0.10566000000E+00 0.  1.
        -14    1    4    4    0    0 -0.70546295601E+01  0.23540271364E+01  0.41025959527E+02  0.41694587144E+02  0.00000000000E+00 0.  1.
<mgrwt>
<rscale>  0 0.72722116E+02</rscale>
<asrwt>0</asrwt>
<pdfrwt beam="1">  1        2 0.18098241E-01 0.72722116E+02</pdfrwt>
<pdfrwt beam="2">  1       -1 0.17290595E-02 0.72722116E+02</pdfrwt>
<totfact> 0.23921504E+05</totfact>
</mgrwt>
</event>
<event>
 8    1  0.2433467E-024  0.8012441E+02  0.7818608E-02  0.1328699E+00
          2   -1    0    0  501    0  0.00000000000E+00  0.00000000000E+00  0.33608498046E+02  0.33608498143E+02  0.25500000000E-02 0. -1.
         -1   -1    0    0    0  501 -0.00000000000E+00 -0.00000000000E+00 -0.47755186872E+02  0.47755187138E+02  0.50400000000E-02 0.  1.
         24    2    1    2    0    0  0.00000000000E+00  0.00000000000E+00 -0.14146688826E+02  0.81363685281E+02  0.80124406256E+02 0.  0.
         66    2    3    3    0    0  0.16392771183E+02 -0.11329196996E+02  0.28185459574E+02  0.34575913333E+02  0.19999999461E+01 0.  0.
        -13    1    3    3    0    0 -0.16392771183E+02  0.11329196996E+02 -0.42332148400E+02  0.46787771948E+02  0.10566000000E+00 0.  1.
         13    1    4    4    0    0  0.60621785561E+01 -0.42712159657E+01  0.11197638573E+02  0.13430992827E+02  0.10566000000E+00 0. -1.
        -13    1    4    4    0    0  0.28392898762E+01 -0.25089775256E+01  0.58794202935E+01  0.69953757761E+01  0.10566000000E+00 0.  1.
        -14    1    4    4    0    0  0.74913027507E+01 -0.45490035050E+01  0.11108400708E+02  0.14149544731E+02  0.00000000000E+00 0.  1.
<mgrwt>
<rscale>  0 0.80124406E+02</rscale>
<asrwt>0</asrwt>
<pdfrwt beam="1">  1        2 0.51705382E-02 0.80124406E+02</pdfrwt>
<pdfrwt beam="2">  1       -1 0.73469519E-02 0.80124406E+02</pdfrwt>
<totfact> 0.13702345E+05</totfact>
</mgrwt>
</event>
<event>
 8    1  0.2433467E-024  0.8347571E+02  0.7818608E-02  0.1319468E+00
         -1   -1    0    0    0  501 -0.00000000000E+00  0.00000000000E+00  0.26439165950E+02  0.26439166430E+02  0.50400000000E-02 0.  1.
          2   -1    0    0  501    0  0.00000000000E+00 -0.00000000000E+00 -0.65888941670E+02  0.65888941719E+02  0.25500000000E-02 0. -1.
         24    2    1    2    0    0 -0.17763568394E-14  0.00000000000E+00 -0.39449775720E+02  0.92328108150E+02  0.83475713535E+02 0.  0.
         66    2    3    3    0    0  0.14939531350E+02  0.15152824983E+02 -0.59419185728E+02  0.63146158214E+02  0.19999906675E+01 0.  0.
        -13    1    3    3    0    0 -0.14939531350E+02 -0.15152824983E+02  0.19969410008E+02  0.29181949935E+02  0.10566000000E+00 0.  1.
         13    1    4    4    0    0  0.64368586213E+01  0.55092609469E+01 -0.22318727440E+02  0.23873036331E+02  0.10566000000E+00 0. -1.
        -13    1    4    4    0    0  0.78088266252E+01  0.90353683727E+01 -0.34909841243E+02  0.36896122215E+02  0.10566000000E+00 0.  1.
        -14    1    4    4    0    0  0.69384610360E+00  0.60819566315E+00 -0.21906170460E+01  0.23769996682E+01  0.00000000000E+00 0.  1.
<mgrwt>
<rscale>  0 0.83475714E+02</rscale>
<asrwt>0</asrwt>
<pdfrwt beam="1">  1        2 0.10136760E-01 0.83475714E+02</pdfrwt>
<pdfrwt beam="2">  1       -1 0.40675641E-02 0.83475714E+02</pdfrwt>
<totfact> 0.14174111E+05</totfact>
</mgrwt>
</event>
<event>
 8    1  0.2433467E-024  0.8152112E+02  0.7818608E-02  0.1324789E+00
         -1   -1    0    0    0  501 -0.00000000000E+00  0.00000000000E+00  0.25036170980E+02  0.25036171487E+02  0.50400000000E-02 0.  1.
          2   -1    0    0  501    0  0.00000000000E+00 -0.00000000000E+00 -0.66360910769E+02  0.66360910818E+02  0.25500000000E-02 0. -1.
         24    2    1    2    0    0  0.00000000000E+00  0.00000000000E+00 -0.41324739789E+02  0.91397082305E+02  0.81521117113E+02 0.  0.
         66    2    3    3    0    0  0.13224274541E+02 -0.60383157467E+01 -0.63338401819E+02  0.65016119960E+02  0.20000038797E+01 0.  0.
        -13    1    3    3    0    0 -0.13224274541E+02  0.60383157467E+01  0.22013662031E+02  0.26380962345E+02  0.10566000000E+00 0.  1.
         13    1    4    4    0    0  0.11513976228E+02 -0.54817039375E+01 -0.57413729027E+02  0.58812993220E+02  0.10566000000E+00 0. -1.
        -13    1    4    4    0    0  0.11050137410E+01 -0.52723594359E+00 -0.38047080794E+01  0.39982497062E+01  0.10566000000E+00 0. -1.
         14    1    4    4    0    0  0.60528457156E+00 -0.29375865681E-01 -0.21199647129E+01  0.22048770346E+01  0.00000000000E+00 0. -1.
<mgrwt>
<rscale>  0 0.81521117E+02</rscale>
<asrwt>0</asrwt>
<pdfrwt beam="1">  1        2 0.10209371E-01 0.81521117E+02</pdfrwt>
<pdfrwt beam="2">  1       -1 0.38517187E-02 0.81521117E+02</pdfrwt>
<totfact> 0.15144816E+05</totfact>
</mgrwt>
</event>
<event>
 8    1  0.2433467E-024  0.7996896E+02  0.7818608E-02  0.1329140E+00
         -1   -1    0    0    0  501 -0.00000000000E+00  0.00000000000E+00  0.89170624489E+02  0.89170624631E+02  0.50400000000E-02 0.  1.
          2   -1    0    0  501    0  0.00000000000E+00 -0.00000000000E+00 -0.17929206371E+02  0.17929206552E+02  0.25500000000E-02 0. -1.
         24    2    1    2    0    0  0.00000000000E+00  0.00000000000E+00  0.71241418118E+02  0.10709983118E+03  0.79968957627E+02 0.  0.
         66    2    3    3    0    0 -0.35491550473E+02  0.85703046273E+01  0.13896698182E+02  0.39118007547E+02  0.20000044166E+01 0.  0.
        -13    1    3    3    0    0  0.35491550473E+02 -0.85703046273E+01  0.57344719936E+02  0.67981823637E+02  0.10566000000E+00 0.  1.
         13    1    4    4    0    0 -0.19778103646E+02  0.43741025303E+01  0.83635272919E+01  0.21914969988E+02  0.10566000000E+00 0. -1.
        -13    1    4    4    0    0 -0.11073706118E+02  0.33030980592E+01  0.36867230646E+01  0.12130149008E+02  0.10566000000E+00 0.  1.
        -14    1    4    4    0    0 -0.46397407093E+01  0.89310403775E+00  0.18464478258E+01  0.50728885504E+01  0.00000000000E+00 0.  1.
<mgrwt>
<rscale>  0 0.79968958E+02</rscale>
<asrwt>0</asrwt>
<pdfrwt beam="1">  1        2 0.27583395E-02 0.79968958E+02</pdfrwt>
<pdfrwt beam="2">  1       -1 0.13718558E-01 0.79968958E+02</pdfrwt>
<totfact> 0.12154506E+05</totfact>
</mgrwt>
</event>
<event>
 8    1  0.2433467E-024  0.7980434E+02  0.7818608E-02  0.1329608E+00
         -1   -1    0    0    0  501 -0.00000000000E+00  0.00000000000E+00  0.72415837233E+01  0.72415854771E+01  0.50400000000E-02 0.  1.
          2   -1    0    0  501    0  0.00000000000E+00 -0.00000000000E+00 -0.21986667768E+03  0.21986667769E+03  0.25500000000E-02 0. -1.
         24    2    1    2    0    0 -0.88817841970E-15  0.71054273576E-14 -0.21262509395E+03  0.22710826317E+03  0.79804339611E+02 0.  0.
         66    2    3    3    0    0 -0.55572683687E+01  0.35808013375E+02 -0.15374984438E+03  0.15797503505E+03  0.19999997208E+01 0.  0.
        -13    1    3    3    0    0  0.55572683687E+01 -0.35808013375E+02 -0.58875249575E+02  0.69133228119E+02  0.10566000000E+00 0.  1.
         13    1    4    4    0    0 -0.24642390979E+01  0.21511625449E+02 -0.92799768579E+02  0.95292343428E+02  0.10566000000E+00 0. -1.
        -13    1    4    4    0    0 -0.82267878974E+00  0.36221182404E+01 -0.14656130116E+02  0.15119849700E+02  0.10566000000E+00 0.  1.
         14    1    4    4    0    0 -0.22703504811E+01  0.10674269686E+02 -0.46293945683E+02  0.47562841921E+02  0.00000000000E+00 0. -1.
<mgrwt>
<rscale>  0 0.79804340E+02</rscale>
<asrwt>0</asrwt>
<pdfrwt beam="1">  1        2 0.33825638E-01 0.79804340E+02</pdfrwt>
<pdfrwt beam="2">  1       -1 0.11140901E-02 0.79804340E+02</pdfrwt>
<totfact> 0.22949896E+05</totfact>
</mgrwt>
</event>
<event>
 8    1  0.2433467E-024  0.7965626E+02  0.7818608E-02  0.1330030E+00
         -1   -1    0    0    0  501 -0.00000000000E+00  0.00000000000E+00  0.12828960449E+01  0.12829059450E+01  0.50400000000E-02 0.  1.
          2   -1    0    0  501    0  0.00000000000E+00 -0.00000000000E+00 -0.12364788933E+04  0.12364788933E+04  0.25500000000E-02 0. -1.
         24    2    1    2    0    0  0.88817841970E-15  0.00000000000E+00 -0.12351959973E+04  0.12377617993E+04  0.79656261788E+02 0.  0.
         66    2    3    3    0    0 -0.59223347624E+01  0.15333089280E+02 -0.11812748056E+04  0.11813908515E+04  0.20000003161E+01 0.  0.
        -13    1    3    3    0    0  0.59223347624E+01 -0.15333089280E+02 -0.53921191688E+02  0.56370947775E+02  0.10566000000E+00 0.  1.
         13    1    4    4    0    0 -0.48876352606E+01  0.13267363056E+02 -0.10139857466E+04  0.10140843246E+04  0.10566000000E+00 0. -1.
        -13    1    4    4    0    0 -0.16525070598E+00  0.10231418333E+01 -0.62626901359E+02  0.62635565495E+02  0.10566000000E+00 0.  1.
        -14    1    4    4    0    0 -0.86944879578E+00  0.10425843904E+01 -0.10466215759E+03  0.10467096137E+03  0.00000000000E+00 0.  1.
<mgrwt>
<rscale>  0 0.79656262E+02</rscale>
<asrwt>0</asrwt>
<pdfrwt beam="1">  1        2 0.19022657E+00 0.79656262E+02</pdfrwt>
<pdfrwt beam="2">  1       -1 0.19737037E-03 0.79656262E+02</pdfrwt>
<totfact> 0.35299441E+05</totfact>
</mgrwt>
</event>
<event>
 8    1  0.2433467E-024  0.8154811E+02  0.7818608E-02  0.1324715E+00
          2   -1    0    0  501    0  0.00000000000E+00  0.00000000000E+00  0.82584046848E+03  0.82584046848E+03  0.25500000000E-02 0. -1.
         -1   -1    0    0    0  501 -0.00000000000E+00 -0.00000000000E+00 -0.20131258242E+01  0.20131321331E+01  0.50400000000E-02 0.  1.
         24    2    1    2    0    0 -0.35527136788E-14  0.00000000000E+00  0.82382734265E+03  0.82785360062E+03  0.81548105725E+02 0.  0.
         66    2    3    3    0    0  0.27930028776E+02  0.89028187026E+01  0.69950496709E+03  0.70012180771E+03  0.19999906715E+01 0.  0.
        -13    1    3    3    0    0 -0.27930028776E+02 -0.89028187026E+01  0.12432237557E+03  0.12773179290E+03  0.10566000000E+00 0.  1.
         13    1    4    4    0    0  0.39823764487E+00  0.25951788638E+00  0.83235249685E+01  0.83377559746E+01  0.10566000000E+00 0. -1.
        -13    1    4    4    0    0  0.32399617036E+01  0.10013529905E+01  0.75540177161E+02  0.75616331498E+02  0.10566000000E+00 0.  1.
         14    1    4    4    0    0  0.24291829427E+02  0.76419478258E+01  0.61564126496E+03  0.61616772024E+03  0.00000000000E+00 0. -1.
<mgrwt>
<rscale>  0 0.81548106E+02</rscale>
<asrwt>0</asrwt>
<pdfrwt beam="1">  1        2 0.12705233E+00 0.81548106E+02</pdfrwt>
<pdfrwt beam="2">  1       -1 0.30971227E-03 0.81548106E+02</pdfrwt>
<totfact> 0.32866848E+05</totfact>
</mgrwt>
</event>
<event>
 8    1  0.2433467E-024  0.7972366E+02  0.7818608E-02  0.1329837E+00
         -1   -1    0    0    0  501 -0.00000000000E+00  0.00000000000E+00  0.27486615599E+01  0.27486661807E+01  0.50400000000E-02 0.  1.
          2   -1    0    0  501    0  0.00000000000E+00 -0.00000000000E+00 -0.57808650498E+03  0.57808650499E+03  0.25500000000E-02 0. -1.
         24    2    1    2    0    0  0.17763568394E-14  0.00000000000E+00 -0.57533784342E+03  0.58083517117E+03  0.79723660180E+02 0.  0.
         66    2    3    3    0    0  0.12311256848E+02  0.28780187926E+02 -0.46736156568E+03  0.46841295814E+03  0.20000050430E+01 0.  0.
        -13    1    3    3    0    0 -0.12311256848E+02 -0.28780187926E+02 -0.10797627775E+03  0.11242221303E+03  0.10566000000E+00 0.  1.
         13    1    4    4    0    0  0.75390001669E+01  0.17947888862E+02 -0.28682918995E+03  0.28748905825E+03  0.10566000000E+00 0. -1.
        -13    1    4    4    0    0  0.18175572062E+01  0.28787393912E+01 -0.49290617431E+02  0.49408165170E+02  0.10566000000E+00 0. -1.
        -14    1    4    4    0    0  0.29546994750E+01  0.79535596729E+01 -0.13124175829E+03  0.13151573473E+03  0.00000000000E+00 0.  1.
<mgrwt>
<rscale>  0 0.79723660E+02</rscale>
<asrwt>0</asrwt>
<pdfrwt beam="1">  1        2 0.88936289E-01 0.79723660E+02</pdfrwt>
<pdfrwt beam="2">  1       -1 0.42287183E-03 0.79723660E+02</pdfrwt>
<totfact> 0.32114149E+05</totfact>
</mgrwt>
</event>
<event>
 8    1  0.2433467E-024  0.8067391E+02  0.7818608E-02  0.1327150E+00
         -1   -1    0    0    0  501 -0.00000000000E+00  0.00000000000E+00  0.45462953693E+02  0.45462953972E+02  0.50400000000E-02 0.  1.
          2   -1    0    0  501    0  0.00000000000E+00 -0.00000000000E+00 -0.35788920213E+02  0.35788920304E+02  0.25500000000E-02 0. -1.
         24    2    1    2    0    0  0.00000000000E+00  0.00000000000E+00  0.96740334795E+01  0.81251874276E+02  0.80673912448E+02 0.  0.
         66    2    3    3    0    0  0.19064176533E+02 -0.76466242741E+01 -0.30094991149E+02  0.36491398702E+02  0.19999993355E+01 0.  0.
        -13    1    3    3    0    0 -0.19064176533E+02  0.76466242741E+01  0.39769024628E+02  0.44760475574E+02  0.10566000000E+00 0.  1.
         13    1    4    4    0    0  0.67575152079E+01 -0.19595656424E+01 -0.11317914267E+02  0.13327049811E+02  0.10566000000E+00 0. -1.
        -13    1    4    4    0    0  0.11781818687E+02 -0.53411760024E+01 -0.17905552633E+02  0.22089802892E+02  0.10566000000E+00 0.  1.
        -14    1    4    4    0    0  0.52484263839E+00 -0.34588262938E+00 -0.87152424876E+00  0.10745459993E+01  0.00000000000E+00 0.  1.
<mgrwt>
<rscale>  0 0.80673912E+02</rscale>
<asrwt>0</asrwt>
<pdfrwt beam="1">  1        2 0.55059878E-02 0.80673912E+02</pdfrwt>
<pdfrwt beam="2">  1       -1 0.69943006E-02 0.80673912E+02</pdfrwt>
<totfact> 0.13615027E+05</totfact>
</mgrwt>
</event>
<event>
 8    1  0.2433467E-024  0.7910098E+02  0.7818608E-02  0.1331622E+00
         -1   -1    0    0    0  501 -0.00000000000E+00  0.00000000000E+00  0.23454409437E+01  0.23454463588E+01  0.50400000000E-02 0.  1.
          2   -1    0    0  501    0  0.00000000000E+00 -0.00000000000E+00 -0.66692761340E+03  0.66692761340E+03  0.25500000000E-02 0. -1.
         24    2    1    2    0    0  0.17763568394E-14 -0.35527136788E-14 -0.66458217246E+03  0.66927305976E+03  0.79100977103E+02 0.  0.
         66    2    3    3    0    0 -0.14486435755E+02  0.30196514934E+02 -0.51009313784E+03  0.51119535952E+03  0.19999958998E+01 0.  0.
        -13    1    3    3    0    0  0.14486435755E+02 -0.30196514934E+02 -0.15448903461E+03  0.15807770025E+03  0.10566000000E+00 0.  1.
         13    1    4    4    0    0 -0.86004470083E+01  0.17545349317E+02 -0.30848218404E+03  0.30910043029E+03  0.10566000000E+00 0. -1.
        -13    1    4    4    0    0 -0.19545299487E+01  0.43837098923E+01 -0.64013573279E+02  0.64193347223E+02  0.10566000000E+00 0.  1.
        -14    1    4    4    0    0 -0.39314587980E+01  0.82674557247E+01 -0.13759738052E+03  0.13790158200E+03  0.00000000000E+00 0.  1.
<mgrwt>
<rscale>  0 0.79100977E+02</rscale>
<asrwt>0</asrwt>
<pdfrwt beam="1">  1        2 0.10260410E+00 0.79100977E+02</pdfrwt>
<pdfrwt beam="2">  1       -1 0.36083802E-03 0.79100977E+02</pdfrwt>
<totfact> 0.34055010E+05</totfact>
</mgrwt>
</event>
<event>
 8    1  0.2433467E-024  0.8006217E+02  0.7818608E-02  0.1328875E+00
          2   -1    0    0  501    0  0.00000000000E+00  0.00000000000E+00  0.16901601109E+02  0.16901601301E+02  0.25500000000E-02 0. -1.
         -1   -1    0    0    0  501 -0.00000000000E+00 -0.00000000000E+00 -0.94812768798E+02  0.94812768932E+02  0.50400000000E-02 0.  1.
         24    2    1    2    0    0  0.00000000000E+00  0.00000000000E+00 -0.77911167689E+02  0.11171437023E+03  0.80062166257E+02 0.  0.
         66    2    3    3    0    0 -0.19150070465E+02  0.19236894893E+02  0.20276467662E+01  0.27292758400E+02  0.19999964325E+01 0.  0.
        -13    1    3    3    0    0  0.19150070465E+02 -0.19236894893E+02 -0.79938814455E+02  0.84421611833E+02  0.10566000000E+00 0.  1.
         13    1    4    4    0    0 -0.12349575180E+02  0.11652653797E+02  0.13659893098E+01  0.17034477934E+02  0.10566000000E+00 0. -1.
        -13    1    4    4    0    0 -0.59136379431E+00  0.63742268089E+00 -0.20880095213E+00  0.90043360918E+00  0.10566000000E+00 0.  1.
         14    1    4    4    0    0 -0.62091314904E+01  0.69468184151E+01  0.87045840860E+00  0.93578468570E+01  0.00000000000E+00 0. -1.
<mgrwt>
<rscale>  0 0.80062166E+02</rscale>
<asrwt>0</asrwt>
<pdfrwt beam="1">  1        2 0.26002464E-02 0.80062166E+02</pdfrwt>
<pdfrwt beam="2">  1       -1 0.14586580E-01 0.80062166E+02</pdfrwt>
<totfact> 0.11964834E+05</totfact>
</mgrwt>
</event>
<event>
 8    1  0.2433467E-024  0.7868457E+02  0.7818608E-02  0.1332826E+00
         -1   -1    0    0    0  501 -0.00000000000E+00  0.00000000000E+00  0.66814367192E+01  0.66814386201E+01  0.50400000000E-02 0.  1.
          2   -1    0    0  501    0  0.00000000000E+00 -0.00000000000E+00 -0.23165901879E+03  0.23165901880E+03  0.25500000000E-02 0. -1.
         24    2    1    2    0    0  0.00000000000E+00  0.00000000000E+00 -0.22497758207E+03  0.23834045742E+03  0.78684567804E+02 0.  0.
         66    2    3    3    0    0 -0.12726732987E+02  0.18857333931E+02 -0.20969180053E+03  0.21093178987E+03  0.19999982952E+01 0.  0.
        -13    1    3    3    0    0  0.12726732987E+02 -0.18857333931E+02 -0.15285781533E+02  0.27408667545E+02  0.10566000000E+00 0.  1.
         13    1    4    4    0    0 -0.59703842337E+01  0.78361554248E+01 -0.90689504640E+02  0.91223068550E+02  0.10566000000E+00 0. -1.
        -13    1    4    4    0    0 -0.11153761807E+01  0.27212432257E+01 -0.28731777809E+02  0.28882095645E+02  0.10566000000E+00 0.  1.
        -14    1    4    4    0    0 -0.56409725724E+01  0.82999352804E+01 -0.90270518084E+02  0.90826625680E+02  0.00000000000E+00 0.  1.
<mgrwt>
<rscale>  0 0.78684568E+02</rscale>
<asrwt>0</asrwt>
<pdfrwt beam="1">  1        2 0.35639843E-01 0.78684568E+02</pdfrwt>
<pdfrwt beam="2">  1       -1 0.10279137E-02 0.78684568E+02</pdfrwt>
<totfact> 0.24263374E+05</totfact>
</mgrwt>
</event>
<event>
 8    1  0.2433467E-024  0.7941447E+02  0.7818608E-02  0.1330721E+00
         -1   -1    0    0    0  501 -0.00000000000E+00  0.00000000000E+00  0.44707429553E+02  0.44707429837E+02  0.50400000000E-02 0.  1.
          2   -1    0    0  501    0  0.00000000000E+00 -0.00000000000E+00 -0.35266276658E+02  0.35266276750E+02  0.25500000000E-02 0. -1.
         24    2    1    2    0    0 -0.17763568394E-14  0.00000000000E+00  0.94411528958E+01  0.79973706587E+02  0.79414472090E+02 0.  0.
         66    2    3    3    0    0  0.13303374196E+02 -0.22181511965E+02 -0.25582552499E+02  0.36434410065E+02  0.20000015962E+01 0.  0.
        -13    1    3    3    0    0 -0.13303374196E+02  0.22181511965E+02  0.35023705394E+02  0.43539296522E+02  0.10566000000E+00 0.  1.
         13    1    4    4    0    0  0.78200266701E+01 -0.12072014154E+02 -0.14189178361E+02  0.20204709586E+02  0.10566000000E+00 0. -1.
        -13    1    4    4    0    0  0.35387428126E-01 -0.87991420419E-01 -0.74948294071E-01  0.16054919035E+00  0.10566000000E+00 0. -1.
         14    1    4    4    0    0  0.54479600979E+01 -0.10021506390E+02 -0.11318425843E+02  0.16069151288E+02  0.00000000000E+00 0. -1.
<mgrwt>
<rscale>  0 0.79414472E+02</rscale>
<asrwt>0</asrwt>
<pdfrwt beam="1">  1        2 0.54255810E-02 0.79414472E+02</pdfrwt>
<pdfrwt beam="2">  1       -1 0.68780661E-02 0.79414472E+02</pdfrwt>
<totfact> 0.14181704E+05</totfact>
</mgrwt>
</event>
<event>
 8    1  0.2433467E-024  0.7693250E+02  0.7818608E-02  0.1337989E+00
         -1   -1    0    0    0  501 -0.00000000000E+00  0.00000000000E+00  0.59295815959E+01  0.59295837379E+01  0.50400000000E-02 0.  1.
          2   -1    0    0  501    0  0.00000000000E+00 -0.00000000000E+00 -0.24953735869E+03  0.24953735870E+03  0.25500000000E-02 0. -1.
         24    2    1    2    0    0  0.00000000000E+00 -0.71054273576E-14 -0.24360777710E+03  0.25546694244E+03  0.76932500410E+02 0.  0.
         66    2    3    3    0    0  0.24541302509E+02 -0.29330929058E+02 -0.10899574017E+03  0.11552770357E+03  0.19999969046E+01 0.  0.
        -13    1    3    3    0    0 -0.24541302509E+02  0.29330929058E+02 -0.13461203692E+03  0.13993923887E+03  0.10566000000E+00 0.  1.
         13    1    4    4    0    0  0.36992122037E+01 -0.44820701574E+01 -0.18181426983E+02  0.19087916989E+02  0.10566000000E+00 0. -1.
        -13    1    4    4    0    0  0.67356577925E+01 -0.83297369016E+01 -0.28399870174E+02  0.30353210583E+02  0.10566000000E+00 0.  1.
        -14    1    4    4    0    0  0.14106432513E+02 -0.16519121999E+02 -0.62414443017E+02  0.66086575997E+02  0.00000000000E+00 0.  1.
<mgrwt>
<rscale>  0 0.76932500E+02</rscale>
<asrwt>0</asrwt>
<pdfrwt beam="1">  1        2 0.38390355E-01 0.76932500E+02</pdfrwt>
<pdfrwt beam="2">  1       -1 0.91224368E-03 0.76932500E+02</pdfrwt>
<totfact> 0.26429323E+05</totfact>
</mgrwt>
</event>
<event>
 8    1  0.2433467E-024  0.8092861E+02  0.7818608E-02  0.1326437E+00
         -1   -1    0    0    0  501 -0.00000000000E+00  0.00000000000E+00  0.38994999730E+01  0.38995032301E+01  0.50400000000E-02 0.  1.
          2   -1    0    0  501    0  0.00000000000E+00 -0.00000000000E+00 -0.41988952461E+03  0.41988952462E+03  0.25500000000E-02 0. -1.
         24    2    1    2    0    0  0.00000000000E+00 -0.35527136788E-14 -0.41599002464E+03  0.42378902785E+03  0.80928607592E+02 0.  0.
         66    2    3    3    0    0  0.10010964466E+02  0.23535946805E+02 -0.37215242650E+03  0.37303564002E+03  0.19999932734E+01 0.  0.
        -13    1    3    3    0    0 -0.10010964466E+02 -0.23535946805E+02 -0.43837598133E+02  0.50753387825E+02  0.10566000000E+00 0.  1.
         13    1    4    4    0    0  0.29336316344E+01  0.84868345480E+01 -0.12648396974E+03  0.12680235929E+03  0.10566000000E+00 0. -1.
        -13    1    4    4    0    0  0.49540253592E+01  0.10846738975E+02 -0.18310736449E+03  0.18349526481E+03  0.10566000000E+00 0.  1.
        -14    1    4    4    0    0  0.21233074728E+01  0.42023732825E+01 -0.62561092272E+02  0.62738015924E+02  0.00000000000E+00 0.  1.
<mgrwt>
<rscale>  0 0.80928608E+02</rscale>
<asrwt>0</asrwt>
<pdfrwt beam="1">  1        2 0.64598353E-01 0.80928608E+02</pdfrwt>
<pdfrwt beam="2">  1       -1 0.59992366E-03 0.80928608E+02</pdfrwt>
<totfact> 0.27880162E+05</totfact>
</mgrwt>
</event>
<event>
 8    1  0.2433467E-024  0.8074342E+02  0.7818608E-02  0.1326955E+00
          2   -1    0    0  501    0  0.00000000000E+00  0.00000000000E+00  0.15818068875E+03  0.15818068877E+03  0.25500000000E-02 0. -1.
         -1   -1    0    0    0  501 -0.00000000000E+00 -0.00000000000E+00 -0.10303879187E+02  0.10303880420E+02  0.50400000000E-02 0.  1.
         24    2    1    2    0    0  0.00000000000E+00 -0.71054273576E-14  0.14787680956E+03  0.16848456919E+03  0.80743416131E+02 0.  0.
         66    2    3    3    0    0  0.53582836322E+01  0.39971964669E+02  0.76453218357E+02  0.86461342554E+02  0.19999990160E+01 0.  0.
        -13    1    3    3    0    0 -0.53582836322E+01 -0.39971964669E+02  0.71423591202E+02  0.82023226632E+02  0.10566000000E+00 0.  1.
         13    1    4    4    0    0  0.11239236707E+01  0.72977012652E+01  0.14912512587E+02  0.16640728466E+02  0.10566000000E+00 0. -1.
        -13    1    4    4    0    0  0.90214133231E+00  0.40657540779E+01  0.71724975582E+01  0.82945825973E+01  0.10566000000E+00 0.  1.
         14    1    4    4    0    0  0.33322186292E+01  0.28608509326E+02  0.54368208211E+02  0.61526031490E+02  0.00000000000E+00 0. -1.
<mgrwt>
<rscale>  0 0.80743416E+02</rscale>
<asrwt>0</asrwt>
<pdfrwt beam="1">  1        2 0.24335490E-01 0.80743416E+02</pdfrwt>
<pdfrwt beam="2">  1       -1 0.15852123E-02 0.80743416E+02</pdfrwt>
<totfact> 0.19884569E+05</totfact>
</mgrwt>
</event>
<event>
 8    1  0.2433467E-024  0.7975721E+02  0.7818608E-02  0.1329742E+00
          2   -1    0    0  501    0  0.00000000000E+00  0.00000000000E+00  0.61689867370E+03  0.61689867371E+03  0.25500000000E-02 0. -1.
         -1   -1    0    0    0  501 -0.00000000000E+00 -0.00000000000E+00 -0.25778974867E+01  0.25779024135E+01  0.50400000000E-02 0.  1.
         24    2    1    2    0    0  0.27755575616E-16  0.00000000000E+00  0.61432077621E+03  0.61947657612E+03  0.79757208279E+02 0.  0.
         66    2    3    3    0    0 -0.22690892838E+00  0.22205219247E+02  0.56439060735E+03  0.56483084275E+03  0.19999996055E+01 0.  0.
        -13    1    3    3    0    0  0.22690892838E+00 -0.22205219247E+02  0.49930168860E+02  0.54645733373E+02  0.10566000000E+00 0.  1.
         13    1    4    4    0    0 -0.20627782895E+00  0.20777903284E+02  0.52651343510E+03  0.52692330781E+03  0.10566000000E+00 0. -1.
        -13    1    4    4    0    0 -0.24841920816E+00  0.58772770677E+00  0.16466143123E+02  0.16478840048E+02  0.10566000000E+00 0. -1.
         14    1    4    4    0    0  0.22778810873E+00  0.83958825637E+00  0.21411029133E+02  0.21428694883E+02  0.00000000000E+00 0. -1.
<mgrwt>
<rscale>  0 0.79757208E+02</rscale>
<asrwt>0</asrwt>
<pdfrwt beam="1">  1        2 0.94907590E-01 0.79757208E+02</pdfrwt>
<pdfrwt beam="2">  1       -1 0.39659957E-03 0.79757208E+02</pdfrwt>
<totfact> 0.32666859E+05</totfact>
</mgrwt>
</event>
<event>
 8    1  0.2433467E-024  0.8094375E+02  0.7818608E-02  0.1326394E+00
          2   -1    0    0  501    0  0.00000000000E+00  0.00000000000E+00  0.37204553699E+03  0.37204553700E+03  0.25500000000E-02 0. -1.
         -1   -1    0    0    0  501 -0.00000000000E+00 -0.00000000000E+00 -0.44026115342E+01  0.44026144190E+01  0.50400000000E-02 0.  1.
         24    2    1    2    0    0  0.00000000000E+00  0.00000000000E+00  0.36764292545E+03  0.37644815142E+03  0.80943746319E+02 0.  0.
         66    2    3    3    0    0  0.34222585021E+02 -0.18614216114E+02  0.23451603957E+03  0.23773819043E+03  0.20000017855E+01 0.  0.
        -13    1    3    3    0    0 -0.34222585021E+02  0.18614216114E+02  0.13312688588E+03  0.13870996098E+03  0.10566000000E+00 0.  1.
         13    1    4    4    0    0  0.48041603631E+01 -0.26064289036E+01  0.33760379868E+02  0.34200114638E+02  0.10566000000E+00 0. -1.
        -13    1    4    4    0    0  0.14431391195E+02 -0.68558290512E+01  0.94577086670E+02  0.95917172242E+02  0.10566000000E+00 0.  1.
        -14    1    4    4    0    0  0.14987033463E+02 -0.91519581591E+01  0.10617857303E+03  0.10762090355E+03  0.00000000000E+00 0.  1.
<mgrwt>
<rscale>  0 0.80943746E+02</rscale>
<asrwt>0</asrwt>
<pdfrwt beam="1">  1        2 0.57237777E-01 0.80943746E+02</pdfrwt>
<pdfrwt beam="2">  1       -1 0.67732505E-03 0.80943746E+02</pdfrwt>
<totfact> 0.26708711E+05</totfact>
</mgrwt>
</event>
<event>
 8    1  0.2433467E-024  0.7963935E+02  0.7818608E-02  0.1330078E+00
         -1   -1    0    0    0  501 -0.00000000000E+00  0.00000000000E+00  0.56834412406E+01  0.56834434753E+01  0.50400000000E-02 0.  1.
          2   -1    0    0  501    0  0.00000000000E+00 -0.00000000000E+00 -0.27898702601E+03  0.27898702602E+03  0.25500000000E-02 0. -1.
         24    2    1    2    0    0  0.00000000000E+00  0.00000000000E+00 -0.27330358476E+03  0.28467046949E+03  0.79639354315E+02 0.  0.
         66    2    3    3    0    0  0.17150776374E+02 -0.15179623387E+02 -0.25306168808E+03  0.25410389229E+03  0.20000018483E+01 0.  0.
        -13    1    3    3    0    0 -0.17150776374E+02  0.15179623387E+02 -0.20241896689E+02  0.30566577205E+02  0.10566000000E+00 0.  1.
         13    1    4    4    0    0  0.21185564683E+00 -0.28405440576E+00 -0.35521602785E+01  0.35713549810E+01  0.10566000000E+00 0.  1.
        -13    1    4    4    0    0  0.82225394636E+01 -0.67944333965E+01 -0.10960425828E+03  0.11012210985E+03  0.10566000000E+00 0.  1.
         14    1    4    4    0    0  0.87163812640E+01 -0.81011355849E+01 -0.13990526952E+03  0.14041042746E+03  0.00000000000E+00 0. -1.
<mgrwt>
<rscale>  0 0.79639354E+02</rscale>
<asrwt>0</asrwt>
<pdfrwt beam="1">  1        2 0.42921070E-01 0.79639354E+02</pdfrwt>
<pdfrwt beam="2">  1       -1 0.87437597E-03 0.79639354E+02</pdfrwt>
<totfact> 0.25128703E+05</totfact>
</mgrwt>
</event>
<event>
 8    1  0.2433467E-024  0.8015766E+02  0.7818608E-02  0.1328605E+00
          2   -1    0    0  501    0  0.00000000000E+00  0.00000000000E+00  0.15856130061E+03  0.15856130063E+03  0.25500000000E-02 0. -1.
         -1   -1    0    0    0  501 -0.00000000000E+00 -0.00000000000E+00 -0.10130545250E+02  0.10130546504E+02  0.50400000000E-02 0.  1.
         24    2    1    2    0    0  0.00000000000E+00  0.00000000000E+00  0.14843075536E+03  0.16869184714E+03  0.80157658106E+02 0.  0.
         66    2    3    3    0    0  0.16178266858E+02 -0.98831433413E+00  0.15134464593E+03  0.15222324046E+03  0.19999999833E+01 0.  0.
        -13    1    3    3    0    0 -0.16178266858E+02  0.98831433413E+00 -0.29138905656E+01  0.16468606682E+02  0.10566000000E+00 0.  1.
         13    1    4    4    0    0  0.27479042960E+01 -0.52271390137E+00  0.26058510245E+02  0.26208420938E+02  0.10566000000E+00 0. -1.
        -13    1    4    4    0    0  0.11995028575E+02 -0.57842924757E+00  0.11562194283E+03  0.11624396810E+03  0.10566000000E+00 0.  1.
        -14    1    4    4    0    0  0.14353339879E+01  0.11282881481E+00  0.96641928521E+01  0.97708514205E+01  0.00000000000E+00 0.  1.
<mgrwt>
<rscale>  0 0.80157658E+02</rscale>
<asrwt>0</asrwt>
<pdfrwt beam="1">  1        2 0.24394047E-01 0.80157658E+02</pdfrwt>
<pdfrwt beam="2">  1       -1 0.15585455E-02 0.80157658E+02</pdfrwt>
<totfact> 0.20288243E+05</totfact>
</mgrwt>
</event>
<event>
 8    1  0.2433467E-024  0.7952423E+02  0.7818608E-02  0.1330407E+00
         -1   -1    0    0    0  501 -0.00000000000E+00  0.00000000000E+00  0.18757778347E+02  0.18757779024E+02  0.50400000000E-02 0.  1.
          2   -1    0    0  501    0  0.00000000000E+00 -0.00000000000E+00 -0.84286400110E+02  0.84286400148E+02  0.25500000000E-02 0. -1.
         24    2    1    2    0    0  0.44408920985E-15  0.00000000000E+00 -0.65528621763E+02  0.10304417917E+03  0.79524226441E+02 0.  0.
         66    2    3    3    0    0 -0.22622809666E+01  0.39598922442E+02 -0.35913133006E+02  0.53543866930E+02  0.19999974212E+01 0.  0.
        -13    1    3    3    0    0  0.22622809666E+01 -0.39598922442E+02 -0.29615488757E+02  0.49500312242E+02  0.10566000000E+00 0.  1.
         13    1    4    4    0    0 -0.88510116827E+00  0.15844736915E+02 -0.15174161363E+02  0.21956899351E+02  0.10566000000E+00 0. -1.
        -13    1    4    4    0    0  0.14879498074E+00  0.54385821711E+01 -0.44872998994E+01  0.70531794534E+01  0.10566000000E+00 0.  1.
         14    1    4    4    0    0 -0.15259747791E+01  0.18315603356E+02 -0.16251671744E+02  0.24533788125E+02  0.00000000000E+00 0. -1.
<mgrwt>
<rscale>  0 0.79524226E+02</rscale>
<asrwt>0</asrwt>
<pdfrwt beam="1">  1        2 0.12967138E-01 0.79524226E+02</pdfrwt>
<pdfrwt beam="2">  1       -1 0.28858122E-02 0.79524226E+02</pdfrwt>
<totfact> 0.17197094E+05</totfact>
</mgrwt>
</event>
<event>
 8    1  0.2433467E-024  0.7085154E+02  0.7818608E-02  0.1357221E+00
          2   -1    0    0  501    0  0.00000000000E+00  0.00000000000E+00  0.69470166370E+03  0.69470166370E+03  0.25500000000E-02 0. -1.
         -1   -1    0    0    0  501 -0.00000000000E+00 -0.00000000000E+00 -0.18065060228E+01  0.18065130534E+01  0.50400000000E-02 0.  1.
         24    2    1    2    0    0 -0.88817841970E-15  0.35527136788E-14  0.69289515767E+03  0.69650817675E+03  0.70851540268E+02 0.  0.
         66    2    3    3    0    0  0.51033508060E+01 -0.24032526448E+02  0.59723244166E+03  0.59774091034E+03  0.19999998419E+01 0.  0.
        -13    1    3    3    0    0 -0.51033508060E+01  0.24032526448E+02  0.95662716009E+02  0.98767266416E+02  0.10566000000E+00 0.  1.
         13    1    4    4    0    0  0.12036307871E+01 -0.71889950433E+01  0.19188648188E+03  0.19202490325E+03  0.10566000000E+00 0. -1.
        -13    1    4    4    0    0  0.30888914226E+01 -0.14910260499E+02  0.35743241641E+03  0.35775662199E+03  0.10566000000E+00 0.  1.
        -14    1    4    4    0    0  0.81082859623E+00 -0.19332709062E+01  0.47913543378E+02  0.47959385093E+02  0.00000000000E+00 0.  1.
<mgrwt>
<rscale>  0 0.70851540E+02</rscale>
<asrwt>0</asrwt>
<pdfrwt beam="1">  1        2 0.10687708E+00 0.70851540E+02</pdfrwt>
<pdfrwt beam="2">  1       -1 0.27792479E-03 0.70851540E+02</pdfrwt>
<totfact> 0.45697800E+05</totfact>
</mgrwt>
</event>
<event>
 8    1  0.2433467E-024  0.7872911E+02  0.7818608E-02  0.1332697E+00
         -1   -1    0    0    0  501 -0.00000000000E+00  0.00000000000E+00  0.66716269089E+00  0.66718172765E+00  0.50400000000E-02 0.  1.
          2   -1    0    0  501    0  0.00000000000E+00 -0.00000000000E+00 -0.23225908178E+04  0.23225908178E+04  0.25500000000E-02 0. -1.
         24    2    1    2    0    0  0.17763568394E-14  0.17763568394E-14 -0.23219236551E+04  0.23232579995E+04  0.78729106565E+02 0.  0.
         66    2    3    3    0    0  0.11765018376E+02  0.80393652589E+01 -0.22437534380E+04  0.22437995761E+04  0.19999993441E+01 0.  0.
        -13    1    3    3    0    0 -0.11765018376E+02 -0.80393652589E+01 -0.78170217096E+02  0.79458423443E+02  0.10566000000E+00 0.  1.
         13    1    4    4    0    0  0.11271056867E+01  0.11175867203E+01 -0.25387289145E+03  0.25387787526E+03  0.10566000000E+00 0. -1.
        -13    1    4    4    0    0  0.21697792810E+01  0.18534740229E+01 -0.36388337181E+03  0.36389457643E+03  0.10566000000E+00 0.  1.
        -14    1    4    4    0    0  0.84681334088E+01  0.50683045158E+01 -0.16259971748E+04  0.16260271244E+04  0.00000000000E+00 0.  1.
<mgrwt>
<rscale>  0 0.78729107E+02</rscale>
<asrwt>0</asrwt>
<pdfrwt beam="1">  1        2 0.35731519E+00 0.78729107E+02</pdfrwt>
<pdfrwt beam="2">  1       -1 0.10264374E-03 0.78729107E+02</pdfrwt>
<totfact> 0.24431849E+05</totfact>
</mgrwt>
</event>
<event>
 8    1  0.2433467E-024  0.7750061E+02  0.7818608E-02  0.1336298E+00
         -1   -1    0    0    0  501 -0.00000000000E+00  0.00000000000E+00  0.61323778226E+02  0.61323778433E+02  0.50400000000E-02 0.  1.
          2   -1    0    0  501    0  0.00000000000E+00 -0.00000000000E+00 -0.24486197260E+02  0.24486197393E+02  0.25500000000E-02 0. -1.
         24    2    1    2    0    0  0.00000000000E+00  0.88817841970E-15  0.36837580966E+02  0.85809975826E+02  0.77500610190E+02 0.  0.
         66    2    3    3    0    0  0.30873649575E+02 -0.72712596946E+01 -0.61663351856E+01  0.32374019541E+02  0.19999990012E+01 0.  0.
        -13    1    3    3    0    0 -0.30873649575E+02  0.72712596946E+01  0.43003916152E+02  0.53435956285E+02  0.10566000000E+00 0.  1.
         13    1    4    4    0    0  0.11982365639E+01 -0.16816192708E+00 -0.48026321461E+00  0.13060880858E+01  0.10566000000E+00 0. -1.
        -13    1    4    4    0    0  0.64495578814E+01 -0.20661141414E+01 -0.14745898642E+01  0.69318975623E+01  0.10566000000E+00 0.  1.
        -14    1    4    4    0    0  0.23225855130E+02 -0.50369836261E+01 -0.42114821067E+01  0.24136033893E+02  0.00000000000E+00 0.  1.
<mgrwt>
<rscale>  0 0.77500610E+02</rscale>
<asrwt>0</asrwt>
<pdfrwt beam="1">  1        2 0.37671073E-02 0.77500610E+02</pdfrwt>
<pdfrwt beam="2">  1       -1 0.94344274E-02 0.77500610E+02</pdfrwt>
<totfact> 0.14140836E+05</totfact>
</mgrwt>
</event>
<event>
 8    1  0.2433467E-024  0.7256992E+02  0.7818608E-02  0.1351566E+00
         -1   -1    0    0    0  501 -0.00000000000E+00  0.00000000000E+00  0.12426443058E+02  0.12426444080E+02  0.50400000000E-02 0.  1.
          2   -1    0    0  501    0  0.00000000000E+00 -0.00000000000E+00 -0.10595135055E+03  0.10595135058E+03  0.25500000000E-02 0. -1.
         24    2    1    2    0    0  0.00000000000E+00 -0.17763568394E-14 -0.93524907494E+02  0.11837779466E+03  0.72569924538E+02 0.  0.
         66    2    3    3    0    0 -0.33780668752E+01  0.95878225365E+01 -0.10356952536E+03  0.10408642702E+03  0.20000073681E+01 0.  0.
        -13    1    3    3    0    0  0.33780668752E+01 -0.95878225365E+01  0.10044617871E+02  0.14291367639E+02  0.10566000000E+00 0.  1.
         13    1    4    4    0    0 -0.20025301506E+01  0.40632273426E+01 -0.47051072130E+02  0.47268747562E+02  0.10566000000E+00 0. -1.
        -13    1    4    4    0    0 -0.49052652166E-01  0.19336481074E+01 -0.15384602108E+02  0.15506080975E+02  0.10566000000E+00 0.  1.
        -14    1    4    4    0    0 -0.13264840724E+01  0.35909470864E+01 -0.41133851127E+02  0.41311598486E+02  0.00000000000E+00 0.  1.
<mgrwt>
<rscale>  0 0.72569925E+02</rscale>
<asrwt>0</asrwt>
<pdfrwt beam="1">  1        2 0.16300207E-01 0.72569925E+02</pdfrwt>
<pdfrwt beam="2">  1       -1 0.19117606E-02 0.72569925E+02</pdfrwt>
<totfact> 0.23346244E+05</totfact>
</mgrwt>
</event>
<event>
 8    1  0.2433467E-024  0.7812388E+02  0.7818608E-02  0.1334462E+00
         -1   -1    0    0    0  501 -0.00000000000E+00  0.00000000000E+00  0.17625821480E+02  0.17625822200E+02  0.50400000000E-02 0.  1.
          2   -1    0    0  501    0  0.00000000000E+00 -0.00000000000E+00 -0.86568159454E+02  0.86568159492E+02  0.25500000000E-02 0. -1.
         24    2    1    2    0    0  0.00000000000E+00  0.00000000000E+00 -0.68942337975E+02  0.10419398169E+03  0.78123875067E+02 0.  0.
         66    2    3    3    0    0  0.35612897221E+02  0.15215839564E+02 -0.41031533383E+02  0.56456947860E+02  0.20000019412E+01 0.  0.
        -13    1    3    3    0    0 -0.35612897221E+02 -0.15215839564E+02 -0.27910804592E+02  0.47737033833E+02  0.10566000000E+00 0.  1.
         13    1    4    4    0    0  0.35339644597E+01  0.20129745628E+01 -0.46321820170E+01  0.61651638800E+01  0.10566000000E+00 0. -1.
        -13    1    4    4    0    0  0.13700828882E+02  0.53985196256E+01 -0.14832729192E+02  0.20901620643E+02  0.10566000000E+00 0.  1.
         14    1    4    4    0    0  0.18378103879E+02  0.78043453752E+01 -0.21566622174E+02  0.29390163336E+02  0.00000000000E+00 0. -1.
<mgrwt>
<rscale>  0 0.78123875E+02</rscale>
<asrwt>0</asrwt>
<pdfrwt beam="1">  1        2 0.13318178E-01 0.78123875E+02</pdfrwt>
<pdfrwt beam="2">  1       -1 0.27116650E-02 0.78123875E+02</pdfrwt>
<totfact> 0.18164352E+05</totfact>
</mgrwt>
</event>
<event>
 8    1  0.2433467E-024  0.7932437E+02  0.7818608E-02  0.1330980E+00
         -1   -1    0    0    0  501 -0.00000000000E+00  0.00000000000E+00  0.11500052611E+02  0.11500053715E+02  0.50400000000E-02 0.  1.
          2   -1    0    0  501    0  0.00000000000E+00 -0.00000000000E+00 -0.13678970450E+03  0.13678970453E+03  0.25500000000E-02 0. -1.
         24    2    1    2    0    0  0.00000000000E+00  0.00000000000E+00 -0.12528965189E+03  0.14828975824E+03  0.79324369068E+02 0.  0.
         66    2    3    3    0    0 -0.32813991417E+01  0.10238358169E+02 -0.13400423599E+03  0.13444971856E+03  0.19999994951E+01 0.  0.
        -13    1    3    3    0    0  0.32813991417E+01 -0.10238358169E+02  0.87145841013E+01  0.13840039683E+02  0.10566000000E+00 0.  1.
         13    1    4    4    0    0 -0.20856988288E+01  0.56184409866E+01 -0.65164231185E+02  0.65439324635E+02  0.10566000000E+00 0. -1.
        -13    1    4    4    0    0 -0.70412806823E+00  0.12924125120E+01 -0.19289796334E+02  0.19346150342E+02  0.10566000000E+00 0.  1.
        -14    1    4    4    0    0 -0.49157224468E+00  0.33275046706E+01 -0.49550208474E+02  0.49664243581E+02  0.00000000000E+00 0.  1.
<mgrwt>
<rscale>  0 0.79324369E+02</rscale>
<asrwt>0</asrwt>
<pdfrwt beam="1">  1        2 0.21044569E-01 0.79324369E+02</pdfrwt>
<pdfrwt beam="2">  1       -1 0.17692391E-02 0.79324369E+02</pdfrwt>
<totfact> 0.19895139E+05</totfact>
</mgrwt>
</event>
<event>
 8    1  0.2433467E-024  0.7999793E+02  0.7818608E-02  0.1329057E+00
         -1   -1    0    0    0  501 -0.00000000000E+00  0.00000000000E+00  0.15248659183E+02  0.15248660016E+02  0.50400000000E-02 0.  1.
          2   -1    0    0  501    0  0.00000000000E+00 -0.00000000000E+00 -0.10492181254E+03  0.10492181257E+03  0.25500000000E-02 0. -1.
         24    2    1    2    0    0  0.00000000000E+00  0.00000000000E+00 -0.89673153352E+02  0.12017047258E+03  0.79997925277E+02 0.  0.
         66    2    3    3    0    0  0.37350708787E+02  0.87424835587E+01 -0.27975590700E+02  0.47519891946E+02  0.19999974662E+01 0.  0.
        -13    1    3    3    0    0 -0.37350708787E+02 -0.87424835587E+01 -0.61697562652E+02  0.72650580637E+02  0.10566000000E+00 0.  1.
         13    1    4    4    0    0  0.19353463243E+02  0.54823270408E+01 -0.14322628444E+02  0.24693345234E+02  0.10566000000E+00 0.  1.
        -13    1    4    4    0    0  0.60022820267E+01  0.97771939764E+00 -0.46457267604E+01  0.76535786346E+01  0.10566000000E+00 0. -1.
        -14    1    4    4    0    0  0.11994963517E+02  0.22824371203E+01 -0.90072354962E+01  0.15172968077E+02  0.00000000000E+00 0.  1.
<mgrwt>
<rscale>  0 0.79997925E+02</rscale>
<asrwt>0</asrwt>
<pdfrwt beam="1">  1        2 0.16141817E-01 0.79997925E+02</pdfrwt>
<pdfrwt beam="2">  1       -1 0.23459477E-02 0.79997925E+02</pdfrwt>
<totfact> 0.17969255E+05</totfact>
</mgrwt>
</event>
<event>
 8    1  0.2433467E-024  0.7940107E+02  0.7818608E-02  0.1330760E+00
         -1   -1    0    0    0  501 -0.00000000000E+00  0.00000000000E+00  0.16734238020E+01  0.16734313917E+01  0.50400000000E-02 0.  1.
          2   -1    0    0  501    0  0.00000000000E+00 -0.00000000000E+00 -0.94185873630E+03  0.94185873630E+03  0.25500000000E-02 0. -1.
         24    2    1    2    0    0 -0.44408920985E-15  0.71054273576E-14 -0.94018531250E+03  0.94353216769E+03  0.79401068246E+02 0.  0.
         66    2    3    3    0    0 -0.34470991630E+01  0.26072489323E+02 -0.82339471470E+03  0.82381703879E+03  0.20000007401E+01 0.  0.
        -13    1    3    3    0    0  0.34470991630E+01 -0.26072489323E+02 -0.11679059779E+03  0.11971512891E+03  0.10566000000E+00 0.  1.
         13    1    4    4    0    0 -0.10149992969E+01  0.10090072332E+02 -0.28955172437E+03  0.28972927369E+03  0.10566000000E+00 0. -1.
        -13    1    4    4    0    0 -0.10443472753E+01  0.64981328162E+01 -0.21895637921E+03  0.21905529793E+03  0.10566000000E+00 0.  1.
         14    1    4    4    0    0 -0.13877525908E+01  0.94842841742E+01 -0.31488661112E+03  0.31503246717E+03  0.00000000000E+00 0. -1.
<mgrwt>
<rscale>  0 0.79401068E+02</rscale>
<asrwt>0</asrwt>
<pdfrwt beam="1">  1        2 0.14490092E+00 0.79401068E+02</pdfrwt>
<pdfrwt beam="2">  1       -1 0.25745115E-03 0.79401068E+02</pdfrwt>
<totfact> 0.35791130E+05</totfact>
</mgrwt>
</event>
<event>
 8    1  0.2776211E-024  0.8125806E+02  0.7818608E-02  0.1325519E+00
         -1   -1    0    0    0  501 -0.00000000000E+00  0.00000000000E+00  0.95631499325E+01  0.95631512606E+01  0.50400000000E-02 0.  1.
          2   -1    0    0  501    0  0.00000000000E+00 -0.00000000000E+00 -0.17261237197E+03  0.17261237198E+03  0.25500000000E-02 0. -1.
         24    2    1    2    0    0  0.17763568394E-14  0.00000000000E+00 -0.16304922203E+03  0.18217552324E+03  0.81258060917E+02 0.  0.
         66    2    3    3    0    0 -0.14738047395E+02  0.77786678967E+01 -0.16458599355E+03  0.16543961735E+03  0.20000004973E+01 0.  0.
        -13    1    3    3    0    0  0.14738047395E+02 -0.77786678967E+01  0.15367715176E+01  0.16735905891E+02  0.10566000000E+00 0.  1.
         13    1    4    4    0    0 -0.67077242650E+01  0.39614527321E+01 -0.72265039434E+02  0.72683792973E+02  0.10566000000E+00 0. -1.
        -13    1    4    4    0    0 -0.45836370248E+01  0.26458139721E+01 -0.50467967312E+02  0.50744821889E+02  0.10566000000E+00 0.  1.
        -14    1    4    4    0    0 -0.34466861048E+01  0.11714011925E+01 -0.41852986804E+02  0.42011002491E+02  0.00000000000E+00 0.  1.
<mgrwt>
<rscale>  0 0.81258061E+02</rscale>
<asrwt>0</asrwt>
<pdfrwt beam="1">  1        2 0.26555747E-01 0.81258061E+02</pdfrwt>
<pdfrwt beam="2">  1       -1 0.14712541E-02 0.81258061E+02</pdfrwt>
<totfact> 0.20126851E+05</totfact>
</mgrwt>
</event>
<event>
 8    1  0.2433467E-024  0.7909778E+02  0.7818608E-02  0.1331631E+00
          2   -1    0    0  501    0  0.00000000000E+00  0.00000000000E+00  0.70265767063E+03  0.70265767063E+03  0.25500000000E-02 0. -1.
         -1   -1    0    0    0  501 -0.00000000000E+00 -0.00000000000E+00 -0.22259953306E+01  0.22260010363E+01  0.50400000000E-02 0.  1.
         24    2    1    2    0    0  0.00000000000E+00  0.00000000000E+00  0.70043167530E+03  0.70488367167E+03  0.79097780155E+02 0.  0.
         66    2    3    3    0    0  0.11891403478E+02  0.27399245059E+02  0.58110635286E+03  0.58187689199E+03  0.19999998029E+01 0.  0.
        -13    1    3    3    0    0 -0.11891403478E+02 -0.27399245059E+02  0.11932532244E+03  0.12300677967E+03  0.10566000000E+00 0.  1.
         13    1    4    4    0    0  0.72849636467E+00  0.12734491646E+01  0.31761704906E+02  0.31795745663E+02  0.10566000000E+00 0. -1.
        -13    1    4    4    0    0  0.51579492969E+01  0.11649806557E+02  0.23146120939E+03  0.23181161543E+03  0.10566000000E+00 0.  1.
         14    1    4    4    0    0  0.60049578159E+01  0.14475989338E+02  0.31788343856E+03  0.31826953090E+03  0.00000000000E+00 0. -1.
<mgrwt>
<rscale>  0 0.79097780E+02</rscale>
<asrwt>0</asrwt>
<pdfrwt beam="1">  1        2 0.10810125E+00 0.79097780E+02</pdfrwt>
<pdfrwt beam="2">  1       -1 0.34246105E-03 0.79097780E+02</pdfrwt>
<totfact> 0.34481854E+05</totfact>
</mgrwt>
</event>
<event>
 8    1  0.2433467E-024  0.8098890E+02  0.7818608E-02  0.1326268E+00
         -1   -1    0    0    0  501 -0.00000000000E+00  0.00000000000E+00  0.18308099900E+03  0.18308099907E+03  0.50400000000E-02 0.  1.
          2   -1    0    0  501    0  0.00000000000E+00 -0.00000000000E+00 -0.89566940815E+01  0.89566944445E+01  0.25500000000E-02 0. -1.
         24    2    1    2    0    0 -0.35527136788E-14 -0.71054273576E-14  0.17412430492E+03  0.19203769351E+03  0.80988901503E+02 0.  0.
         66    2    3    3    0    0  0.20913102535E+02  0.34555982852E+02  0.93076933488E+02  0.10148295102E+03  0.19999978354E+01 0.  0.
        -13    1    3    3    0    0 -0.20913102535E+02 -0.34555982852E+02  0.81047371428E+02  0.90554742493E+02  0.10566000000E+00 0.  1.
         13    1    4    4    0    0  0.18571774441E+01  0.37223413068E+01  0.10070987646E+02  0.10896829312E+02  0.10566000000E+00 0.  1.
        -13    1    4    4    0    0  0.15862666796E+02  0.26030146250E+02  0.68558930789E+02  0.75030199697E+02  0.10566000000E+00 0. -1.
         14    1    4    4    0    0  0.31932582949E+01  0.48034952959E+01  0.14447015053E+02  0.15555922009E+02  0.00000000000E+00 0. -1.
<mgrwt>
<rscale>  0 0.80988902E+02</rscale>
<asrwt>0</asrwt>
<pdfrwt beam="1">  1        2 0.13779530E-02 0.80988902E+02</pdfrwt>
<pdfrwt beam="2">  1       -1 0.28166306E-01 0.80988902E+02</pdfrwt>
<totfact> 0.99086887E+04</totfact>
</mgrwt>
</event>
<event>
 8    1  0.2433467E-024  0.7932905E+02  0.7818608E-02  0.1330966E+00
          2   -1    0    0  501    0  0.00000000000E+00  0.00000000000E+00  0.27284807139E+02  0.27284807258E+02  0.25500000000E-02 0. -1.
         -1   -1    0    0    0  501 -0.00000000000E+00 -0.00000000000E+00 -0.57661192879E+02  0.57661193099E+02  0.50400000000E-02 0.  1.
         24    2    1    2    0    0  0.35527136788E-14  0.00000000000E+00 -0.30376385740E+02  0.84946000357E+02  0.79329049951E+02 0.  0.
         66    2    3    3    0    0  0.18387821859E+02  0.32103997653E+02  0.39671804427E-01  0.37051048863E+02  0.19999975006E+01 0.  0.
        -13    1    3    3    0    0 -0.18387821859E+02 -0.32103997653E+02 -0.30416057544E+02  0.47894951494E+02  0.10566000000E+00 0.  1.
         13    1    4    4    0    0  0.50603758411E+00  0.82368050252E+00 -0.97480807504E-01  0.97733829875E+00  0.10566000000E+00 0.  1.
        -13    1    4    4    0    0  0.42256293627E+01  0.69030678916E+01 -0.65386932978E+00  0.81207757612E+01  0.10566000000E+00 0.  1.
         14    1    4    4    0    0  0.13656154912E+02  0.24377249259E+02  0.79102194171E+00  0.27952934804E+02  0.00000000000E+00 0. -1.
<mgrwt>
<rscale>  0 0.79329050E+02</rscale>
<asrwt>0</asrwt>
<pdfrwt beam="1">  1        2 0.41976627E-02 0.79329050E+02</pdfrwt>
<pdfrwt beam="2">  1       -1 0.88709528E-02 0.79329050E+02</pdfrwt>
<totfact> 0.13522970E+05</totfact>
</mgrwt>
</event>
<event>
 8    1  0.2433467E-024  0.7943465E+02  0.7818608E-02  0.1330664E+00
         -1   -1    0    0    0  501 -0.00000000000E+00  0.00000000000E+00  0.41237762357E+02  0.41237762665E+02  0.50400000000E-02 0.  1.
          2   -1    0    0  501    0  0.00000000000E+00 -0.00000000000E+00 -0.38252942095E+02  0.38252942180E+02  0.25500000000E-02 0. -1.
         24    2    1    2    0    0 -0.44408920985E-15  0.00000000000E+00  0.29848202623E+01  0.79490704844E+02  0.79434646123E+02 0.  0.
         66    2    3    3    0    0  0.23981065825E+01  0.19909565095E+02 -0.32784565779E+02  0.38483365998E+02  0.20000019489E+01 0.  0.
        -13    1    3    3    0    0 -0.23981065825E+01 -0.19909565095E+02  0.35769386041E+02  0.41007338846E+02  0.10566000000E+00 0.  1.
         13    1    4    4    0    0  0.87119825629E+00  0.52475890879E+01 -0.73143837556E+01  0.90447526996E+01  0.10566000000E+00 0. -1.
        -13    1    4    4    0    0  0.20665224113E+00  0.32033956664E+01 -0.61160515217E+01  0.69080894027E+01  0.10566000000E+00 0.  1.
         14    1    4    4    0    0  0.13202560850E+01  0.11458580341E+02 -0.19354130502E+02  0.22530523896E+02  0.00000000000E+00 0. -1.
<mgrwt>
<rscale>  0 0.79434646E+02</rscale>
<asrwt>0</asrwt>
<pdfrwt beam="1">  1        2 0.58850680E-02 0.79434646E+02</pdfrwt>
<pdfrwt beam="2">  1       -1 0.63442712E-02 0.79434646E+02</pdfrwt>
<totfact> 0.14405637E+05</totfact>
</mgrwt>
</event>
<event>
 8    1  0.2433467E-024  0.7888091E+02  0.7818608E-02  0.1332258E+00
         -1   -1    0    0    0  501 -0.00000000000E+00  0.00000000000E+00  0.34714654618E+03  0.34714654622E+03  0.50400000000E-02 0.  1.
          2   -1    0    0  501    0  0.00000000000E+00 -0.00000000000E+00 -0.44809591511E+01  0.44809598766E+01  0.25500000000E-02 0. -1.
         24    2    1    2    0    0  0.00000000000E+00  0.00000000000E+00  0.34266558703E+03  0.35162750610E+03  0.78880913455E+02 0.  0.
         66    2    3    3    0    0  0.35710616579E+02 -0.16450043756E+02  0.18380630828E+03  0.18797502770E+03  0.19999996900E+01 0.  0.
        -13    1    3    3    0    0 -0.35710616579E+02  0.16450043756E+02  0.15885927875E+03  0.16365247840E+03  0.10566000000E+00 0.  1.
         13    1    4    4    0    0  0.69198823855E+01 -0.37094500933E+01  0.37595536554E+02  0.38406774468E+02  0.10566000000E+00 0. -1.
        -13    1    4    4    0    0  0.54611401570E+01 -0.18917813334E+01  0.27739467046E+02  0.28335350438E+02  0.10566000000E+00 0.  1.
         14    1    4    4    0    0  0.23329594037E+02 -0.10848812329E+02  0.11847130468E+03  0.12123290279E+03  0.00000000000E+00 0. -1.
<mgrwt>
<rscale>  0 0.78880913E+02</rscale>
<asrwt>0</asrwt>
<pdfrwt beam="1">  1        2 0.68937814E-03 0.78880913E+02</pdfrwt>
<pdfrwt beam="2">  1       -1 0.53407180E-01 0.78880913E+02</pdfrwt>
<totfact> 0.84169370E+04</totfact>
</mgrwt>
</event>
<event>
 8    1  0.2433467E-024  0.7716719E+02  0.7818608E-02  0.1337288E+00
          2   -1    0    0  501    0  0.00000000000E+00  0.00000000000E+00  0.19165032532E+03  0.19165032533E+03  0.25500000000E-02 0. -1.
         -1   -1    0    0    0  501 -0.00000000000E+00 -0.00000000000E+00 -0.77677594729E+01  0.77677611080E+01  0.50400000000E-02 0.  1.
         24    2    1    2    0    0  0.00000000000E+00  0.00000000000E+00  0.18388256584E+03  0.19941808644E+03  0.77167189782E+02 0.  0.
         66    2    3    3    0    0 -0.71113676241E+01  0.11056869636E+02  0.18567424527E+03  0.18614980868E+03  0.19999999288E+01 0.  0.
        -13    1    3    3    0    0  0.71113676241E+01 -0.11056869636E+02 -0.17916794232E+01  0.13268277764E+02  0.10566000000E+00 0.  1.
         13    1    4    4    0    0 -0.36652269016E+01  0.55516888967E+01  0.95924967871E+02  0.96155425032E+02  0.10566000000E+00 0. -1.
        -13    1    4    4    0    0 -0.17707261251E+00  0.11812470664E+01  0.18948227134E+02  0.18986131120E+02  0.10566000000E+00 0.  1.
         14    1    4    4    0    0 -0.32690681099E+01  0.43239336727E+01  0.70801050262E+02  0.71008252526E+02  0.00000000000E+00 0. -1.
<mgrwt>
<rscale>  0 0.77167190E+02</rscale>
<asrwt>0</asrwt>
<pdfrwt beam="1">  1        2 0.29484666E-01 0.77167190E+02</pdfrwt>
<pdfrwt beam="2">  1       -1 0.11950400E-02 0.77167190E+02</pdfrwt>
<totfact> 0.23902346E+05</totfact>
</mgrwt>
</event>
<event>
 8    1  0.2433467E-024  0.8047520E+02  0.7818608E-02  0.1327708E+00
          2   -1    0    0  501    0  0.00000000000E+00  0.00000000000E+00  0.15352129924E+04  0.15352129924E+04  0.25500000000E-02 0. -1.
         -1   -1    0    0    0  501 -0.00000000000E+00 -0.00000000000E+00 -0.10546127128E+01  0.10546247559E+01  0.50400000000E-02 0.  1.
         24    2    1    2    0    0  0.88817841970E-15 -0.17763568394E-14  0.15341583797E+04  0.15362676171E+04  0.80475198439E+02 0.  0.
         66    2    3    3    0    0 -0.58975309165E+01  0.12041574332E+02  0.14912796315E+04  0.14913412486E+04  0.20000014476E+01 0.  0.
        -13    1    3    3    0    0  0.58975309165E+01 -0.12041574332E+02  0.42878748147E+02  0.44926368538E+02  0.10566000000E+00 0.  1.
         13    1    4    4    0    0 -0.14467301832E+01  0.30861655165E+01  0.33010276166E+03  0.33012037481E+03  0.10566000000E+00 0.  1.
        -13    1    4    4    0    0 -0.28279181027E+01  0.59305924572E+01  0.67950900664E+03  0.67954077900E+03  0.10566000000E+00 0. -1.
         14    1    4    4    0    0 -0.16228826306E+01  0.30248163586E+01  0.48166786322E+03  0.48168009480E+03  0.00000000000E+00 0. -1.
<mgrwt>
<rscale>  0 0.80475198E+02</rscale>
<asrwt>0</asrwt>
<pdfrwt beam="1">  1        2 0.23618946E+00 0.80475198E+02</pdfrwt>
<pdfrwt beam="2">  1       -1 0.16224708E-03 0.80475198E+02</pdfrwt>
<totfact> 0.32445696E+05</totfact>
</mgrwt>
</event>
<event>
 8    1  0.2433467E-024  0.7874226E+02  0.7818608E-02  0.1332659E+00
         -1   -1    0    0    0  501 -0.00000000000E+00  0.00000000000E+00  0.79217450372E+01  0.79217466404E+01  0.50400000000E-02 0.  1.
          2   -1    0    0  501    0  0.00000000000E+00 -0.00000000000E+00 -0.19567476563E+03  0.19567476565E+03  0.25500000000E-02 0. -1.
         24    2    1    2    0    0  0.00000000000E+00  0.00000000000E+00 -0.18775302060E+03  0.20359651229E+03  0.78742257231E+02 0.  0.
         66    2    3    3    0    0 -0.30132351788E+02 -0.10446841474E+02 -0.15351736855E+03  0.15680777266E+03  0.19999998901E+01 0.  0.
        -13    1    3    3    0    0  0.30132351788E+02  0.10446841474E+02 -0.34235652051E+02  0.46788739633E+02  0.10566000000E+00 0.  1.
         13    1    4    4    0    0 -0.47626649324E+01 -0.11817736599E+01 -0.21368950166E+02  0.21925390794E+02  0.10566000000E+00 0.  1.
        -13    1    4    4    0    0 -0.16832446405E+02 -0.58332051909E+01 -0.88154668980E+02  0.89936724211E+02  0.10566000000E+00 0. -1.
        -14    1    4    4    0    0 -0.85372404511E+01 -0.34318626230E+01 -0.43993749401E+02  0.44945657653E+02  0.00000000000E+00 0.  1.
<mgrwt>
<rscale>  0 0.78742257E+02</rscale>
<asrwt>0</asrwt>
<pdfrwt beam="1">  1        2 0.30103806E-01 0.78742257E+02</pdfrwt>
<pdfrwt beam="2">  1       -1 0.12187303E-02 0.78742257E+02</pdfrwt>
<totfact> 0.22826452E+05</totfact>
</mgrwt>
</event>
<event>
 8    1  0.2433467E-024  0.8129049E+02  0.7818608E-02  0.1325429E+00
         -1   -1    0    0    0  501 -0.00000000000E+00  0.00000000000E+00  0.25753536199E+01  0.25753585516E+01  0.50400000000E-02 0.  1.
          2   -1    0    0  501    0  0.00000000000E+00 -0.00000000000E+00 -0.64147862197E+03  0.64147862197E+03  0.25500000000E-02 0. -1.
         24    2    1    2    0    0  0.00000000000E+00  0.88817841970E-15 -0.63890326835E+03  0.64405398052E+03  0.81290488520E+02 0.  0.
         66    2    3    3    0    0 -0.38014670657E+02 -0.54393266759E+01 -0.42455278982E+03  0.42629071395E+03  0.19999991291E+01 0.  0.
        -13    1    3    3    0    0  0.38014670657E+02  0.54393266759E+01 -0.21435047852E+03  0.21776326657E+03  0.10566000000E+00 0.  1.
         13    1    4    4    0    0 -0.10482508597E+02 -0.19513569790E+01 -0.11644122198E+03  0.11692844017E+03  0.10566000000E+00 0. -1.
        -13    1    4    4    0    0 -0.86689393421E+01 -0.71960767904E+00 -0.10275594775E+03  0.10312353905E+03  0.10566000000E+00 0.  1.
        -14    1    4    4    0    0 -0.18863222717E+02 -0.27683620179E+01 -0.20535562010E+03  0.20623873474E+03  0.00000000000E+00 0.  1.
<mgrwt>
<rscale>  0 0.81290489E+02</rscale>
<asrwt>0</asrwt>
<pdfrwt beam="1">  1        2 0.98688892E-01 0.81290489E+02</pdfrwt>
<pdfrwt beam="2">  1       -1 0.39620914E-03 0.81290489E+02</pdfrwt>
<totfact> 0.31410310E+05</totfact>
</mgrwt>
</event>
<event>
 8    1  0.2433467E-024  0.7802128E+02  0.7818608E-02  0.1334762E+00
          2   -1    0    0  501    0  0.00000000000E+00  0.00000000000E+00  0.32378320547E+02  0.32378320648E+02  0.25500000000E-02 0. -1.
         -1   -1    0    0    0  501 -0.00000000000E+00 -0.00000000000E+00 -0.47001510663E+02  0.47001510933E+02  0.50400000000E-02 0.  1.
         24    2    1    2    0    0  0.00000000000E+00  0.35527136788E-14 -0.14623190116E+02  0.79379831581E+02  0.78021278973E+02 0.  0.
         66    2    3    3    0    0  0.22121898739E+02 -0.24817771672E+02  0.13398015983E+02  0.35899958652E+02  0.20000010874E+01 0.  0.
        -13    1    3    3    0    0 -0.22121898739E+02  0.24817771672E+02 -0.28021206099E+02  0.43479872928E+02  0.10566000000E+00 0.  1.
         13    1    4    4    0    0  0.66671133300E+01 -0.70031504776E+01  0.38522539700E+01  0.10408916440E+02  0.10566000000E+00 0. -1.
        -13    1    4    4    0    0  0.44359916376E+01 -0.61579774107E+01  0.28027843461E+01  0.80910735830E+01  0.10566000000E+00 0.  1.
        -14    1    4    4    0    0  0.11018793771E+02 -0.11656643784E+02  0.67429776672E+01  0.17399968629E+02  0.00000000000E+00 0.  1.
<mgrwt>
<rscale>  0 0.78021279E+02</rscale>
<asrwt>0</asrwt>
<pdfrwt beam="1">  1        2 0.49812801E-02 0.78021279E+02</pdfrwt>
<pdfrwt beam="2">  1       -1 0.72310017E-02 0.78021279E+02</pdfrwt>
<totfact> 0.14647275E+05</totfact>
</mgrwt>
</event>
<event>
 8    1  0.2433467E-024  0.7858664E+02  0.7818608E-02  0.1333111E+00
         -1   -1    0    0    0  501 -0.00000000000E+00  0.00000000000E+00  0.14898381527E+01  0.14898466776E+01  0.50400000000E-02 0.  1.
          2   -1    0    0  501    0  0.00000000000E+00 -0.00000000000E+00 -0.10363276716E+04  0.10363276716E+04  0.25500000000E-02 0. -1.
         24    2    1    2    0    0  0.00000000000E+00  0.00000000000E+00 -0.10348378334E+04  0.10378175183E+04  0.78586638283E+02 0.  0.
         66    2    3    3    0    0  0.11676067045E+02 -0.18414753799E+02 -0.94903186374E+03  0.94928442107E+03  0.20000015689E+01 0.  0.
        -13    1    3    3    0    0 -0.11676067045E+02  0.18414753799E+02 -0.85805969713E+02  0.88533097210E+02  0.10566000000E+00 0.  1.
         13    1    4    4    0    0  0.55123430155E+01 -0.87614690689E+01 -0.47031652270E+03  0.47043043264E+03  0.10566000000E+00 0. -1.
        -13    1    4    4    0    0  0.30903172772E+01 -0.52566076590E+01 -0.23031176586E+03  0.23039249693E+03  0.10566000000E+00 0.  1.
        -14    1    4    4    0    0  0.30734067525E+01 -0.43966770707E+01 -0.24840357517E+03  0.24846149150E+03  0.00000000000E+00 0.  1.
<mgrwt>
<rscale>  0 0.78586638E+02</rscale>
<asrwt>0</asrwt>
<pdfrwt beam="1">  1        2 0.15943445E+00 0.78586638E+02</pdfrwt>
<pdfrwt beam="2">  1       -1 0.22920735E-03 0.78586638E+02</pdfrwt>
<totfact> 0.36936461E+05</totfact>
</mgrwt>
</event>
<event>
 8    1  0.2433467E-024  0.7875767E+02  0.7818608E-02  0.1332614E+00
          2   -1    0    0  501    0  0.00000000000E+00  0.00000000000E+00  0.71911991788E+02  0.71911991833E+02  0.25500000000E-02 0. -1.
         -1   -1    0    0    0  501 -0.00000000000E+00 -0.00000000000E+00 -0.21563756829E+02  0.21563757418E+02  0.50400000000E-02 0.  1.
         24    2    1    2    0    0  0.00000000000E+00 -0.88817841970E-15  0.50348234959E+02  0.93475749252E+02  0.78757672227E+02 0.  0.
         66    2    3    3    0    0  0.11096427407E+02 -0.73487838665E+01  0.69145712336E+02  0.70443345007E+02  0.19999989439E+01 0.  0.
        -13    1    3    3    0    0 -0.11096427407E+02  0.73487838665E+01 -0.18797477377E+02  0.23032404245E+02  0.10566000000E+00 0.  1.
         13    1    4    4    0    0  0.42073107174E+01 -0.24467611206E+01  0.25763195072E+02  0.26219105397E+02  0.10566000000E+00 0. -1.
        -13    1    4    4    0    0  0.35929174063E+01 -0.34437496786E+01  0.25899638599E+02  0.26373678373E+02  0.10566000000E+00 0.  1.
        -14    1    4    4    0    0  0.32961992836E+01 -0.14582730674E+01  0.17482878665E+02  0.17850561237E+02  0.00000000000E+00 0.  1.
<mgrwt>
<rscale>  0 0.78757672E+02</rscale>
<asrwt>0</asrwt>
<pdfrwt beam="1">  1        2 0.11063384E-01 0.78757672E+02</pdfrwt>
<pdfrwt beam="2">  1       -1 0.33175011E-02 0.78757672E+02</pdfrwt>
<totfact> 0.16955711E+05</totfact>
</mgrwt>
</event>
<event>
 8    1  0.2433467E-024  0.7991829E+02  0.7818608E-02  0.1329283E+00
         -1   -1    0    0    0  501 -0.00000000000E+00  0.00000000000E+00  0.48265111907E+01  0.48265138221E+01  0.50400000000E-02 0.  1.
          2   -1    0    0  501    0  0.00000000000E+00 -0.00000000000E+00 -0.33082543834E+03  0.33082543835E+03  0.25500000000E-02 0. -1.
         24    2    1    2    0    0 -0.71054273576E-14 -0.35527136788E-14 -0.32599892715E+03  0.33565195217E+03  0.79918286357E+02 0.  0.
         66    2    3    3    0    0 -0.18183518282E+02 -0.24592805995E+02 -0.27094092725E+03  0.27266908973E+03  0.19999985115E+01 0.  0.
        -13    1    3    3    0    0  0.18183518282E+02  0.24592805995E+02 -0.55057999900E+02  0.62982862438E+02  0.10566000000E+00 0.  1.
         13    1    4    4    0    0 -0.16748763326E+02 -0.22867042639E+02 -0.24784211788E+03  0.24945771038E+03  0.10566000000E+00 0. -1.
        -13    1    4    4    0    0 -0.68518241577E+00 -0.10460203259E+01 -0.14152003917E+02  0.14207533649E+02  0.10566000000E+00 0.  1.
        -14    1    4    4    0    0 -0.74957254057E+00 -0.67974302956E+00 -0.89468054518E+01  0.90038456991E+01  0.00000000000E+00 0.  1.
<mgrwt>
<rscale>  0 0.79918286E+02</rscale>
<asrwt>0</asrwt>
<pdfrwt beam="1">  1        2 0.50896203E-01 0.79918286E+02</pdfrwt>
<pdfrwt beam="2">  1       -1 0.74254065E-03 0.79918286E+02</pdfrwt>
<totfact> 0.26481603E+05</totfact>
</mgrwt>
</event>
<event>
 8    1  0.2433467E-024  0.8125532E+02  0.7818608E-02  0.1325526E+00
          2   -1    0    0  501    0  0.00000000000E+00  0.00000000000E+00  0.85751923338E+01  0.85751927129E+01  0.25500000000E-02 0. -1.
         -1   -1    0    0    0  501 -0.00000000000E+00 -0.00000000000E+00 -0.19248627054E+03  0.19248627060E+03  0.50400000000E-02 0.  1.
         24    2    1    2    0    0  0.00000000000E+00  0.00000000000E+00 -0.18391107821E+03  0.20106146332E+03  0.81255321948E+02 0.  0.
         66    2    3    3    0    0 -0.27706160481E+02 -0.22551018519E+02 -0.44258744839E+02  0.56912355990E+02  0.20000011817E+01 0.  0.
        -13    1    3    3    0    0  0.27706160481E+02  0.22551018519E+02 -0.13965233337E+03  0.14414910733E+03  0.10566000000E+00 0.  1.
         13    1    4    4    0    0 -0.12801214965E+02 -0.10075671315E+02 -0.21348297629E+02  0.26854259117E+02  0.10566000000E+00 0. -1.
        -13    1    4    4    0    0 -0.11175392730E+02 -0.92150822085E+01 -0.17638239763E+02  0.22823799174E+02  0.10566000000E+00 0.  1.
        -14    1    4    4    0    0 -0.37295527863E+01 -0.32602649951E+01 -0.52722074468E+01  0.72342976982E+01  0.00000000000E+00 0.  1.
<mgrwt>
<rscale>  0 0.81255322E+02</rscale>
<asrwt>0</asrwt>
<pdfrwt beam="1">  1        2 0.13192605E-02 0.81255322E+02</pdfrwt>
<pdfrwt beam="2">  1       -1 0.29613269E-01 0.81255322E+02</pdfrwt>
<totfact> 0.96838023E+04</totfact>
</mgrwt>
</event>
<event>
 8    1  0.2433467E-024  0.7949159E+02  0.7818608E-02  0.1330500E+00
          2   -1    0    0  501    0  0.00000000000E+00  0.00000000000E+00  0.57927727773E+03  0.57927727774E+03  0.25500000000E-02 0. -1.
         -1   -1    0    0    0  501 -0.00000000000E+00 -0.00000000000E+00 -0.27270654022E+01  0.27270700596E+01  0.50400000000E-02 0.  1.
         24    2    1    2    0    0  0.17763568394E-14  0.00000000000E+00  0.57655021233E+03  0.58200434780E+03  0.79491594004E+02 0.  0.
         66    2    3    3    0    0  0.11309646952E+02  0.93618774040E+01  0.55867912115E+03  0.55887557942E+03  0.19999997760E+01 0.  0.
        -13    1    3    3    0    0 -0.11309646952E+02 -0.93618774040E+01  0.17871091179E+02  0.23128768377E+02  0.10566000000E+00 0.  1.
         13    1    4    4    0    0  0.27922256512E+01  0.28025371022E+01  0.15672170908E+03  0.15677166836E+03  0.10566000000E+00 0. -1.
        -13    1    4    4    0    0  0.21723341800E+00  0.36020401067E-01  0.47910305067E+01  0.47972518361E+01  0.10566000000E+00 0. -1.
         14    1    4    4    0    0  0.83001878823E+01  0.65233199008E+01  0.39716638156E+03  0.39730665923E+03  0.00000000000E+00 0. -1.
<mgrwt>
<rscale>  0 0.79491594E+02</rscale>
<asrwt>0</asrwt>
<pdfrwt beam="1">  1        2 0.89119635E-01 0.79491594E+02</pdfrwt>
<pdfrwt beam="2">  1       -1 0.41954863E-03 0.79491594E+02</pdfrwt>
<totfact> 0.32377816E+05</totfact>
</mgrwt>
</event>
<event>
 8    1  0.2433467E-024  0.7645272E+02  0.7818608E-02  0.1339431E+00
         -1   -1    0    0    0  501 -0.00000000000E+00  0.00000000000E+00  0.17780334809E+01  0.17780406241E+01  0.50400000000E-02 0.  1.
          2   -1    0    0  501    0  0.00000000000E+00 -0.00000000000E+00 -0.82183585806E+03  0.82183585807E+03  0.25500000000E-02 0. -1.
         24    2    1    2    0    0  0.35527136788E-14  0.88817841970E-15 -0.82005782458E+03  0.82361389869E+03  0.76452720414E+02 0.  0.
         66    2    3    3    0    0  0.27085056989E+02  0.53202620785E+01 -0.69479042268E+03  0.69534138159E+03  0.19999999146E+01 0.  0.
        -13    1    3    3    0    0 -0.27085056989E+02 -0.53202620785E+01 -0.12526740190E+03  0.12827251710E+03  0.10566000000E+00 0.  1.
         13    1    4    4    0    0  0.49142987318E+01  0.14341457359E+01 -0.12386440615E+03  0.12397019553E+03  0.10566000000E+00 0. -1.
        -13    1    4    4    0    0  0.16087696840E+02  0.31556545993E+01 -0.42815473151E+03  0.42846850225E+03  0.10566000000E+00 0. -1.
        -14    1    4    4    0    0  0.60830614179E+01  0.73046174328E+00 -0.14277128503E+03  0.14290268380E+03  0.00000000000E+00 0.  1.
<mgrwt>
<rscale>  0 0.76452720E+02</rscale>
<asrwt>0</asrwt>
<pdfrwt beam="1">  1        2 0.12643598E+00 0.76452720E+02</pdfrwt>
<pdfrwt beam="2">  1       -1 0.27354482E-03 0.76452720E+02</pdfrwt>
<totfact> 0.38824645E+05</totfact>
</mgrwt>
</event>
<event>
 8    1  0.2433467E-024  0.8155010E+02  0.7818608E-02  0.1324709E+00
         -1   -1    0    0    0  501 -0.00000000000E+00  0.00000000000E+00  0.39649938068E+02  0.39649938388E+02  0.50400000000E-02 0.  1.
          2   -1    0    0  501    0  0.00000000000E+00 -0.00000000000E+00 -0.41932083510E+02  0.41932083588E+02  0.25500000000E-02 0. -1.
         24    2    1    2    0    0  0.00000000000E+00  0.00000000000E+00 -0.22821454424E+01  0.81582021976E+02  0.81550095781E+02 0.  0.
         66    2    3    3    0    0  0.25285445228E+02 -0.39933482932E+01 -0.32860619960E+02  0.41702768738E+02  0.20000013338E+01 0.  0.
        -13    1    3    3    0    0 -0.25285445228E+02  0.39933482932E+01  0.30578474517E+02  0.39879253238E+02  0.10566000000E+00 0.  1.
         13    1    4    4    0    0  0.11247784515E+02 -0.13251121667E+01 -0.14581520851E+02  0.18463490816E+02  0.10566000000E+00 0. -1.
        -13    1    4    4    0    0  0.68002653906E+01 -0.17841822791E+01 -0.97016170582E+01  0.11981629829E+02  0.10566000000E+00 0.  1.
         14    1    4    4    0    0  0.72373953223E+01 -0.88405384732E+00 -0.85774820509E+01  0.11257648093E+02  0.00000000000E+00 0. -1.
<mgrwt>
<rscale>  0 0.81550096E+02</rscale>
<asrwt>0</asrwt>
<pdfrwt beam="1">  1        2 0.64510898E-02 0.81550096E+02</pdfrwt>
<pdfrwt beam="2">  1       -1 0.60999905E-02 0.81550096E+02</pdfrwt>
<totfact> 0.13651479E+05</totfact>
</mgrwt>
</event>
<event>
 8    1  0.2433467E-024  0.8526667E+02  0.7818608E-02  0.1314737E+00
         -1   -1    0    0    0  501 -0.00000000000E+00  0.00000000000E+00  0.32808049637E+01  0.32808088349E+01  0.50400000000E-02 0.  1.
          2   -1    0    0  501    0  0.00000000000E+00 -0.00000000000E+00 -0.55401046360E+03  0.55401046361E+03  0.25500000000E-02 0. -1.
         24    2    1    2    0    0  0.00000000000E+00  0.00000000000E+00 -0.55072965864E+03  0.55729127244E+03  0.85266672487E+02 0.  0.
         66    2    3    3    0    0 -0.41786718314E+02  0.54742591203E+01 -0.31659263779E+03  0.31939160234E+03  0.20000001721E+01 0.  0.
        -13    1    3    3    0    0  0.41786718314E+02 -0.54742591203E+01 -0.23413702085E+03  0.23789967010E+03  0.10566000000E+00 0.  1.
         13    1    4    4    0    0 -0.15395332223E+02  0.25369790453E+01 -0.11566651879E+03  0.11671421186E+03  0.10566000000E+00 0. -1.
        -13    1    4    4    0    0 -0.84480080099E+00  0.23892664873E-01 -0.80659429225E+01  0.81107865535E+01  0.10566000000E+00 0.  1.
        -14    1    4    4    0    0 -0.25546585290E+02  0.29133874101E+01 -0.19286017608E+03  0.19456660393E+03  0.00000000000E+00 0.  1.
<mgrwt>
<rscale>  0 0.85266672E+02</rscale>
<asrwt>0</asrwt>
<pdfrwt beam="1">  1        2 0.85232305E-01 0.85266672E+02</pdfrwt>
<pdfrwt beam="2">  1       -1 0.50473996E-03 0.85266672E+02</pdfrwt>
<totfact> 0.26609632E+05</totfact>
</mgrwt>
</event>
<event>
 8    1  0.2433467E-024  0.8136890E+02  0.7818608E-02  0.1325211E+00
          2   -1    0    0  501    0  0.00000000000E+00  0.00000000000E+00  0.43028455683E+02  0.43028455759E+02  0.25500000000E-02 0. -1.
         -1   -1    0    0    0  501 -0.00000000000E+00 -0.00000000000E+00 -0.38468138427E+02  0.38468138757E+02  0.50400000000E-02 0.  1.
         24    2    1    2    0    0  0.00000000000E+00  0.17763568394E-14  0.45603172560E+01  0.81496594516E+02  0.81368903300E+02 0.  0.
         66    2    3    3    0    0 -0.41433219407E+01  0.15685713246E+02  0.39622889927E+02  0.42862362505E+02  0.19999991538E+01 0.  0.
        -13    1    3    3    0    0  0.41433219407E+01 -0.15685713246E+02 -0.35062572671E+02  0.38634232011E+02  0.10566000000E+00 0.  1.
         13    1    4    4    0    0 -0.22971168868E+01  0.56916007305E+01  0.14002800216E+02  0.15289232904E+02  0.10566000000E+00 0. -1.
        -13    1    4    4    0    0 -0.30258507494E+00  0.35103801197E+01  0.91632325000E+01  0.98178572100E+01  0.10566000000E+00 0.  1.
         14    1    4    4    0    0 -0.15436199790E+01  0.64837323953E+01  0.16456857211E+02  0.17755272391E+02  0.00000000000E+00 0. -1.
<mgrwt>
<rscale>  0 0.81368903E+02</rscale>
<asrwt>0</asrwt>
<pdfrwt beam="1">  1        2 0.66197624E-02 0.81368903E+02</pdfrwt>
<pdfrwt beam="2">  1       -1 0.59181752E-02 0.81368903E+02</pdfrwt>
<totfact> 0.13810475E+05</totfact>
</mgrwt>
</event>
<event>
 8    1  0.2433467E-024  0.7881601E+02  0.7818608E-02  0.1332445E+00
         -1   -1    0    0    0  501 -0.00000000000E+00  0.00000000000E+00  0.35571072666E+01  0.35571108371E+01  0.50400000000E-02 0.  1.
          2   -1    0    0  501    0  0.00000000000E+00 -0.00000000000E+00 -0.43658788789E+03  0.43658788790E+03  0.25500000000E-02 0. -1.
         24    2    1    2    0    0  0.00000000000E+00  0.00000000000E+00 -0.43303078062E+03  0.44014499873E+03  0.78816006900E+02 0.  0.
         66    2    3    3    0    0 -0.14372252543E+02 -0.28811732216E+02 -0.34330088804E+03  0.34481324986E+03  0.19999983331E+01 0.  0.
        -13    1    3    3    0    0  0.14372252543E+02  0.28811732216E+02 -0.89729892580E+02  0.95331748871E+02  0.10566000000E+00 0.  1.
         13    1    4    4    0    0 -0.78734153822E+01 -0.15724138281E+02 -0.19341231557E+03  0.19421012892E+03  0.10566000000E+00 0. -1.
        -13    1    4    4    0    0 -0.22956000182E+00 -0.97141213120E+00 -0.91279629115E+01  0.91829848237E+01  0.10566000000E+00 0.  1.
         14    1    4    4    0    0 -0.62692771594E+01 -0.12116181804E+02 -0.14076060956E+03  0.14142013612E+03  0.00000000000E+00 0. -1.
<mgrwt>
<rscale>  0 0.78816007E+02</rscale>
<asrwt>0</asrwt>
<pdfrwt beam="1">  1        2 0.67167325E-01 0.78816007E+02</pdfrwt>
<pdfrwt beam="2">  1       -1 0.54724789E-03 0.78816007E+02</pdfrwt>
<totfact> 0.30273996E+05</totfact>
</mgrwt>
</event>
<event>
 8    1  0.2433467E-024  0.8462489E+02  0.7818608E-02  0.1316416E+00
          2   -1    0    0  501    0  0.00000000000E+00  0.00000000000E+00  0.43542478733E+03  0.43542478734E+03  0.25500000000E-02 0. -1.
         -1   -1    0    0    0  501 -0.00000000000E+00 -0.00000000000E+00 -0.41117143410E+01  0.41117174299E+01  0.50400000000E-02 0.  1.
         24    2    1    2    0    0  0.17763568394E-14 -0.71054273576E-14  0.43131307299E+03  0.43953650477E+03  0.84624890499E+02 0.  0.
         66    2    3    3    0    0 -0.94972633598E+01  0.39425008104E+02  0.27806251300E+03  0.28101119267E+03  0.19999983421E+01 0.  0.
        -13    1    3    3    0    0  0.94972633598E+01 -0.39425008104E+02  0.15325055999E+03  0.15852531210E+03  0.10566000000E+00 0.  1.
         13    1    4    4    0    0 -0.69471059430E+01  0.25574963853E+02  0.18124808609E+03  0.18317538298E+03  0.10566000000E+00 0. -1.
        -13    1    4    4    0    0 -0.13756910329E+01  0.86527973114E+01  0.58430308040E+02  0.59083631310E+02  0.10566000000E+00 0.  1.
        -14    1    4    4    0    0 -0.11744663839E+01  0.51972469395E+01  0.38384118875E+02  0.38752178375E+02  0.00000000000E+00 0.  1.
<mgrwt>
<rscale>  0 0.84624890E+02</rscale>
<asrwt>0</asrwt>
<pdfrwt beam="1">  1        2 0.66988432E-01 0.84624890E+02</pdfrwt>
<pdfrwt beam="2">  1       -1 0.63257165E-03 0.84624890E+02</pdfrwt>
<totfact> 0.25113872E+05</totfact>
</mgrwt>
</event>
<event>
 8    1  0.2433467E-024  0.7817246E+02  0.7818608E-02  0.1334319E+00
          2   -1    0    0  501    0  0.00000000000E+00  0.00000000000E+00  0.22730669183E+03  0.22730669184E+03  0.25500000000E-02 0. -1.
         -1   -1    0    0    0  501 -0.00000000000E+00 -0.00000000000E+00 -0.67210208129E+01  0.67210227026E+01  0.50400000000E-02 0.  1.
         24    2    1    2    0    0 -0.17763568394E-14  0.00000000000E+00  0.22058567102E+03  0.23402771455E+03  0.78172456261E+02 0.  0.
         66    2    3    3    0    0  0.10275293843E+02 -0.72912322395E+01  0.22105150216E+03  0.22141930886E+03  0.19999996804E+01 0.  0.
        -13    1    3    3    0    0 -0.10275293843E+02  0.72912322395E+01 -0.46583114596E+00  0.12608405682E+02  0.10566000000E+00 0.  1.
         13    1    4    4    0    0  0.53701030422E+01 -0.35015722729E+01  0.10746302376E+03  0.10765412976E+03  0.10566000000E+00 0. -1.
        -13    1    4    4    0    0  0.21011536782E+01 -0.87058604059E+00  0.44558995169E+02  0.44617126547E+02  0.10566000000E+00 0.  1.
        -14    1    4    4    0    0  0.28040371230E+01 -0.29190739261E+01  0.69029483231E+02  0.69148052553E+02  0.00000000000E+00 0.  1.
<mgrwt>
<rscale>  0 0.78172456E+02</rscale>
<asrwt>0</asrwt>
<pdfrwt beam="1">  1        2 0.34970261E-01 0.78172456E+02</pdfrwt>
<pdfrwt beam="2">  1       -1 0.10340033E-02 0.78172456E+02</pdfrwt>
<totfact> 0.24518002E+05</totfact>
</mgrwt>
</event>
<event>
 8    1  0.2433467E-024  0.7977602E+02  0.7818608E-02  0.1329688E+00
         -1   -1    0    0    0  501 -0.00000000000E+00  0.00000000000E+00  0.31491961463E+02  0.31491961866E+02  0.50400000000E-02 0.  1.
          2   -1    0    0  501    0  0.00000000000E+00 -0.00000000000E+00 -0.50522516384E+02  0.50522516448E+02  0.25500000000E-02 0. -1.
         24    2    1    2    0    0  0.00000000000E+00  0.00000000000E+00 -0.19030554920E+02  0.82014478314E+02  0.79776015397E+02 0.  0.
         66    2    3    3    0    0  0.22060049381E+02 -0.70686500249E+01 -0.42872801768E+02  0.48771802570E+02  0.20000006602E+01 0.  0.
        -13    1    3    3    0    0 -0.22060049381E+02  0.70686500249E+01  0.23842246848E+02  0.33242675744E+02  0.10566000000E+00 0.  1.
         13    1    4    4    0    0  0.68920847855E+01 -0.29449595973E+01 -0.14469107707E+02  0.16295393877E+02  0.10566000000E+00 0.  1.
        -13    1    4    4    0    0  0.58363630159E+01 -0.13420164843E+01 -0.10043871708E+02  0.11694214998E+02  0.10566000000E+00 0. -1.
         14    1    4    4    0    0  0.93316015793E+01 -0.27816739433E+01 -0.18359822353E+02  0.20782193696E+02  0.00000000000E+00 0. -1.
<mgrwt>
<rscale>  0 0.79776015E+02</rscale>
<asrwt>0</asrwt>
<pdfrwt beam="1">  1        2 0.77726949E-02 0.79776015E+02</pdfrwt>
<pdfrwt beam="2">  1       -1 0.48449172E-02 0.79776015E+02</pdfrwt>
<totfact> 0.15092303E+05</totfact>
</mgrwt>
</event>
<event>
 8    1  0.2433467E-024  0.8185315E+02  0.7818608E-02  0.1323873E+00
         -1   -1    0    0    0  501 -0.00000000000E+00  0.00000000000E+00  0.14479897195E+02  0.14479898072E+02  0.50400000000E-02 0.  1.
          2   -1    0    0  501    0  0.00000000000E+00 -0.00000000000E+00 -0.11567653776E+03  0.11567653779E+03  0.25500000000E-02 0. -1.
         24    2    1    2    0    0  0.00000000000E+00  0.00000000000E+00 -0.10119664057E+03  0.13015643586E+03  0.81853147371E+02 0.  0.
         66    2    3    3    0    0 -0.11529375954E+02  0.28280973363E+02 -0.93891419769E+02  0.98753929925E+02  0.20000012851E+01 0.  0.
        -13    1    3    3    0    0  0.11529375954E+02 -0.28280973363E+02 -0.73052207980E+01  0.31402505938E+02  0.10566000000E+00 0.  1.
         13    1    4    4    0    0 -0.34262750140E+01  0.78090226290E+01 -0.24488039124E+02  0.25930588483E+02  0.10566000000E+00 0. -1.
        -13    1    4    4    0    0 -0.30685680133E+01  0.63145870201E+01 -0.22985523035E+02  0.24034049848E+02  0.10566000000E+00 0.  1.
         14    1    4    4    0    0 -0.50345329262E+01  0.14157363714E+02 -0.46417857611E+02  0.48789291594E+02  0.00000000000E+00 0. -1.
<mgrwt>
<rscale>  0 0.81853147E+02</rscale>
<asrwt>0</asrwt>
<pdfrwt beam="1">  1        2 0.17796390E-01 0.81853147E+02</pdfrwt>
<pdfrwt beam="2">  1       -1 0.22276766E-02 0.81853147E+02</pdfrwt>
<totfact> 0.17386514E+05</totfact>
</mgrwt>
</event>
<event>
 8    1  0.2433467E-024  0.7952112E+02  0.7818608E-02  0.1330416E+00
          2   -1    0    0  501    0  0.00000000000E+00  0.00000000000E+00  0.25924933521E+02  0.25924933647E+02  0.25500000000E-02 0. -1.
         -1   -1    0    0    0  501 -0.00000000000E+00 -0.00000000000E+00 -0.60979992790E+02  0.60979992998E+02  0.50400000000E-02 0.  1.
         24    2    1    2    0    0  0.00000000000E+00  0.00000000000E+00 -0.35055059269E+02  0.86904926645E+02  0.79521123576E+02 0.  0.
         66    2    3    3    0    0  0.16013444604E+02  0.34383184087E+02 -0.45956043648E+01  0.38259029458E+02  0.19999998797E+01 0.  0.
        -13    1    3    3    0    0 -0.16013444604E+02 -0.34383184087E+02 -0.30459454904E+02  0.48645897187E+02  0.10566000000E+00 0.  1.
         13    1    4    4    0    0  0.13037023781E+02  0.28154554174E+02 -0.34860625182E+01  0.31221894652E+02  0.10566000000E+00 0. -1.
        -13    1    4    4    0    0  0.21001554367E+01  0.51270161331E+01 -0.88179890157E+00  0.56112102639E+01  0.10566000000E+00 0.  1.
         14    1    4    4    0    0  0.87626538644E+00  0.11016137806E+01 -0.22774294506E+00  0.14259245416E+01  0.00000000000E+00 0. -1.
<mgrwt>
<rscale>  0 0.79521124E+02</rscale>
<asrwt>0</asrwt>
<pdfrwt beam="1">  1        2 0.39884513E-02 0.79521124E+02</pdfrwt>
<pdfrwt beam="2">  1       -1 0.93815374E-02 0.79521124E+02</pdfrwt>
<totfact> 0.13297287E+05</totfact>
</mgrwt>
</event>
<event>
 8    1  0.2433467E-024  0.8152684E+02  0.7818608E-02  0.1324773E+00
          2   -1    0    0  501    0  0.00000000000E+00  0.00000000000E+00  0.57943525063E+02  0.57943525119E+02  0.25500000000E-02 0. -1.
         -1   -1    0    0    0  501 -0.00000000000E+00 -0.00000000000E+00 -0.28677171287E+02  0.28677171730E+02  0.50400000000E-02 0.  1.
         24    2    1    2    0    0  0.00000000000E+00  0.00000000000E+00  0.29266353776E+02  0.86620696848E+02  0.81526840115E+02 0.  0.
         66    2    3    3    0    0  0.18426732146E+02 -0.26979560588E+02 -0.11213904239E+02  0.34600473857E+02  0.19999989387E+01 0.  0.
        -13    1    3    3    0    0 -0.18426732146E+02  0.26979560588E+02  0.40480258015E+02  0.52020222991E+02  0.10566000000E+00 0.  1.
         13    1    4    4    0    0  0.76333392189E+01 -0.10768388085E+02 -0.47377713466E+01  0.14024396278E+02  0.10566000000E+00 0. -1.
        -13    1    4    4    0    0  0.94238485526E+01 -0.13519902166E+02 -0.50525333801E+01  0.17237631325E+02  0.10566000000E+00 0.  1.
        -14    1    4    4    0    0  0.13695443743E+01 -0.26912703372E+01 -0.14235995119E+01  0.33384462540E+01  0.00000000000E+00 0.  1.
<mgrwt>
<rscale>  0 0.81526840E+02</rscale>
<asrwt>0</asrwt>
<pdfrwt beam="1">  1        2 0.89143884E-02 0.81526840E+02</pdfrwt>
<pdfrwt beam="2">  1       -1 0.44118726E-02 0.81526840E+02</pdfrwt>
<totfact> 0.14665826E+05</totfact>
</mgrwt>
</event>
<event>
 8    1  0.2433467E-024  0.8113398E+02  0.7818608E-02  0.1325864E+00
         -1   -1    0    0    0  501 -0.00000000000E+00  0.00000000000E+00  0.18617066439E+01  0.18617134660E+01  0.50400000000E-02 0.  1.
          2   -1    0    0  501    0  0.00000000000E+00 -0.00000000000E+00 -0.88396193578E+03  0.88396193579E+03  0.25500000000E-02 0. -1.
         24    2    1    2    0    0  0.00000000000E+00  0.00000000000E+00 -0.88210022914E+03  0.88582364925E+03  0.81133983805E+02 0.  0.
         66    2    3    3    0    0 -0.13675999381E+01  0.33585441224E+02 -0.68880387501E+03  0.68962644266E+03  0.19999982013E+01 0.  0.
        -13    1    3    3    0    0  0.13675999381E+01 -0.33585441224E+02 -0.19329635413E+03  0.19619720659E+03  0.10566000000E+00 0.  1.
         13    1    4    4    0    0 -0.79589377229E+00  0.12645755657E+02 -0.24642788230E+03  0.24675344157E+03  0.10566000000E+00 0. -1.
        -13    1    4    4    0    0 -0.71365663534E+00  0.18566441054E+02 -0.39767555639E+03  0.39810938366E+03  0.10566000000E+00 0.  1.
        -14    1    4    4    0    0  0.14195046950E+00  0.23732445130E+01 -0.44700436316E+02  0.44763617440E+02  0.00000000000E+00 0.  1.
<mgrwt>
<rscale>  0 0.81133984E+02</rscale>
<asrwt>0</asrwt>
<pdfrwt beam="1">  1        2 0.13599381E+00 0.81133984E+02</pdfrwt>
<pdfrwt beam="2">  1       -1 0.28641764E-03 0.81133984E+02</pdfrwt>
<totfact> 0.33621706E+05</totfact>
</mgrwt>
</event>
<event>
 8    1  0.2433467E-024  0.7979586E+02  0.7818608E-02  0.1329632E+00
         -1   -1    0    0    0  501 -0.00000000000E+00  0.00000000000E+00  0.20449477182E+01  0.20449539290E+01  0.50400000000E-02 0.  1.
          2   -1    0    0  501    0  0.00000000000E+00 -0.00000000000E+00 -0.77842693278E+03  0.77842693278E+03  0.25500000000E-02 0. -1.
         24    2    1    2    0    0  0.00000000000E+00  0.00000000000E+00 -0.77638198506E+03  0.78047188671E+03  0.79795859674E+02 0.  0.
         66    2    3    3    0    0  0.35112665128E+02 -0.53740641387E+01 -0.56558923581E+03  0.56670712321E+03  0.20000015341E+01 0.  0.
        -13    1    3    3    0    0 -0.35112665128E+02  0.53740641387E+01 -0.21079274924E+03  0.21376476350E+03  0.10566000000E+00 0.  1.
         13    1    4    4    0    0  0.56524944370E+01 -0.35501473487E+00 -0.91206501385E+02  0.91382240002E+02  0.10566000000E+00 0. -1.
        -13    1    4    4    0    0  0.26986692755E+02 -0.49493419832E+01 -0.43395935403E+03  0.43482583834E+03  0.10566000000E+00 0.  1.
        -14    1    4    4    0    0  0.24734779360E+01 -0.69707420620E-01 -0.40423380395E+02  0.40499044863E+02  0.00000000000E+00 0.  1.
<mgrwt>
<rscale>  0 0.79795860E+02</rscale>
<asrwt>0</asrwt>
<pdfrwt beam="1">  1        2 0.11975775E+00 0.79795860E+02</pdfrwt>
<pdfrwt beam="2">  1       -1 0.31460844E-03 0.79795860E+02</pdfrwt>
<totfact> 0.34425764E+05</totfact>
</mgrwt>
</event>
<event>
 8    1  0.2433467E-024  0.8685262E+02  0.7818608E-02  0.1310658E+00
         -1   -1    0    0    0  501 -0.00000000000E+00  0.00000000000E+00  0.28311803365E+01  0.28311848225E+01  0.50400000000E-02 0.  1.
          2   -1    0    0  501    0  0.00000000000E+00 -0.00000000000E+00 -0.66609777184E+03  0.66609777184E+03  0.25500000000E-02 0. -1.
         24    2    1    2    0    0  0.00000000000E+00  0.00000000000E+00 -0.66326659150E+03  0.66892895666E+03  0.86852620360E+02 0.  0.
         66    2    3    3    0    0 -0.37103032994E+00  0.33449229328E+02 -0.54481151187E+03  0.54584116011E+03  0.19999997056E+01 0.  0.
        -13    1    3    3    0    0  0.37103032994E+00 -0.33449229328E+02 -0.11845507963E+03  0.12308779655E+03  0.10566000000E+00 0.  1.
         13    1    4    4    0    0 -0.10902909453E+00  0.17752473917E+02 -0.29157170384E+03  0.29211167704E+03  0.10566000000E+00 0. -1.
        -13    1    4    4    0    0 -0.25597645834E+00  0.23749860616E+01 -0.32263234257E+02  0.32351716052E+02  0.10566000000E+00 0.  1.
        -14    1    4    4    0    0 -0.60247770691E-02  0.13321769350E+02 -0.22097657377E+03  0.22137776702E+03  0.00000000000E+00 0.  1.
<mgrwt>
<rscale>  0 0.86852620E+02</rscale>
<asrwt>0</asrwt>
<pdfrwt beam="1">  1        2 0.10247646E+00 0.86852620E+02</pdfrwt>
<pdfrwt beam="2">  1       -1 0.43556708E-03 0.86852620E+02</pdfrwt>
<totfact> 0.26675019E+05</totfact>
</mgrwt>
</event>
<event>
 8    1  0.2433467E-024  0.7824080E+02  0.7818608E-02  0.1334119E+00
          2   -1    0    0  501    0  0.00000000000E+00  0.00000000000E+00  0.46633744013E+03  0.46633744014E+03  0.25500000000E-02 0. -1.
         -1   -1    0    0    0  501 -0.00000000000E+00 -0.00000000000E+00 -0.32817541459E+01  0.32817580160E+01  0.50400000000E-02 0.  1.
         24    2    1    2    0    0  0.35527136788E-14  0.88817841970E-15  0.46305568599E+03  0.46961919815E+03  0.78240801067E+02 0.  0.
         66    2    3    3    0    0 -0.17734919459E+02 -0.49733422029E+01  0.43865896282E+03  0.43905005087E+03  0.19999996314E+01 0.  0.
        -13    1    3    3    0    0  0.17734919459E+02  0.49733422029E+01  0.24396723161E+02  0.30569147288E+02  0.10566000000E+00 0.  1.
         13    1    4    4    0    0 -0.12163245080E+02 -0.36895212961E+01  0.30352301012E+03  0.30378904842E+03  0.10566000000E+00 0. -1.
        -13    1    4    4    0    0 -0.18749383994E+01 -0.92209366872E+00  0.45249512959E+02  0.45297850256E+02  0.10566000000E+00 0.  1.
        -14    1    4    4    0    0 -0.36967359799E+01 -0.36172723813E+00  0.89886439741E+02  0.89963152195E+02  0.00000000000E+00 0.  1.
<mgrwt>
<rscale>  0 0.78240801E+02</rscale>
<asrwt>0</asrwt>
<pdfrwt beam="1">  1        2 0.71744237E-01 0.78240801E+02</pdfrwt>
<pdfrwt beam="2">  1       -1 0.50488544E-03 0.78240801E+02</pdfrwt>
<totfact> 0.31545360E+05</totfact>
</mgrwt>
</event>
<event>
 8    1  0.2433467E-024  0.8057120E+02  0.7818608E-02  0.1327438E+00
         -1   -1    0    0    0  501 -0.00000000000E+00  0.00000000000E+00  0.36902646988E+01  0.36902681405E+01  0.50400000000E-02 0.  1.
          2   -1    0    0  501    0  0.00000000000E+00 -0.00000000000E+00 -0.43978651086E+03  0.43978651087E+03  0.25500000000E-02 0. -1.
         24    2    1    2    0    0  0.00000000000E+00 -0.17763568394E-14 -0.43609624616E+03  0.44347677901E+03  0.80571195867E+02 0.  0.
         66    2    3    3    0    0 -0.18620504130E+02 -0.10907212542E+02 -0.40526153827E+03  0.40584061509E+03  0.19999997061E+01 0.  0.
        -13    1    3    3    0    0  0.18620504130E+02  0.10907212542E+02 -0.30834707894E+02  0.37636163917E+02  0.10566000000E+00 0.  1.
         13    1    4    4    0    0 -0.87863426249E+01 -0.58563512721E+01 -0.20721946630E+03  0.20748834918E+03  0.10566000000E+00 0. -1.
        -13    1    4    4    0    0 -0.69589220223E+01 -0.31452157068E+01 -0.13473225959E+03  0.13494855284E+03  0.10566000000E+00 0.  1.
        -14    1    4    4    0    0 -0.28752394825E+01 -0.19056455627E+01 -0.63309812382E+02  0.63403713069E+02  0.00000000000E+00 0.  1.
<mgrwt>
<rscale>  0 0.80571196E+02</rscale>
<asrwt>0</asrwt>
<pdfrwt beam="1">  1        2 0.67659422E-01 0.80571196E+02</pdfrwt>
<pdfrwt beam="2">  1       -1 0.56773365E-03 0.80571196E+02</pdfrwt>
<totfact> 0.28654471E+05</totfact>
</mgrwt>
</event>
<event>
 8    1  0.2433467E-024  0.8009904E+02  0.7818608E-02  0.1328771E+00
          2   -1    0    0  501    0  0.00000000000E+00  0.00000000000E+00  0.13626438843E+03  0.13626438845E+03  0.25500000000E-02 0. -1.
         -1   -1    0    0    0  501 -0.00000000000E+00 -0.00000000000E+00 -0.11770968488E+02  0.11770969567E+02  0.50400000000E-02 0.  1.
         24    2    1    2    0    0  0.71054273576E-14 -0.35527136788E-14  0.12449341994E+03  0.14803535802E+03  0.80099036294E+02 0.  0.
         66    2    3    3    0    0  0.37689668368E+02 -0.92715631607E+01  0.80345001017E+02  0.89251286685E+02  0.20000003515E+01 0.  0.
        -13    1    3    3    0    0 -0.37689668368E+02  0.92715631607E+01  0.44148418924E+02  0.58784071334E+02  0.10566000000E+00 0.  1.
         13    1    4    4    0    0  0.27178634303E+02 -0.63521496095E+01  0.57254260744E+02  0.63695286361E+02  0.10566000000E+00 0. -1.
        -13    1    4    4    0    0  0.53318393232E+01 -0.10227636552E+01  0.11859576735E+02  0.13043591547E+02  0.10566000000E+00 0.  1.
        -14    1    4    4    0    0  0.51791947419E+01 -0.18966498960E+01  0.11231163537E+02  0.12512408777E+02  0.00000000000E+00 0.  1.
<mgrwt>
<rscale>  0 0.80099036E+02</rscale>
<asrwt>0</asrwt>
<pdfrwt beam="1">  1        2 0.20963752E-01 0.80099036E+02</pdfrwt>
<pdfrwt beam="2">  1       -1 0.18109183E-02 0.80099036E+02</pdfrwt>
<totfact> 0.19364533E+05</totfact>
</mgrwt>
</event>
<event>
 8    1  0.2433467E-024  0.7994778E+02  0.7818608E-02  0.1329200E+00
          2   -1    0    0  501    0  0.00000000000E+00  0.00000000000E+00  0.11229008774E+04  0.11229008774E+04  0.25500000000E-02 0. -1.
         -1   -1    0    0    0  501 -0.00000000000E+00 -0.00000000000E+00 -0.14230169010E+01  0.14230258262E+01  0.50400000000E-02 0.  1.
         24    2    1    2    0    0  0.00000000000E+00  0.00000000000E+00  0.11214778605E+04  0.11243239032E+04  0.79947781600E+02 0.  0.
         66    2    3    3    0    0 -0.98269087392E+01  0.20691820371E+01  0.11048572517E+04  0.11049047000E+04  0.19999995091E+01 0.  0.
        -13    1    3    3    0    0  0.98269087392E+01 -0.20691820371E+01  0.16620608801E+02  0.19419203141E+02  0.10566000000E+00 0.  1.
         13    1    4    4    0    0 -0.98904013199E+00 -0.15480645135E+00  0.77911601822E+02  0.77918104623E+02  0.10566000000E+00 0. -1.
        -13    1    4    4    0    0 -0.47953794280E+01  0.16030367312E+01  0.53108884971E+03  0.53111292852E+03  0.10566000000E+00 0.  1.
        -14    1    4    4    0    0 -0.40424891792E+01  0.62095175722E+00  0.49585680012E+03  0.49587366690E+03  0.00000000000E+00 0.  1.
<mgrwt>
<rscale>  0 0.79947782E+02</rscale>
<asrwt>0</asrwt>
<pdfrwt beam="1">  1        2 0.17275487E+00 0.79947782E+02</pdfrwt>
<pdfrwt beam="2">  1       -1 0.21892524E-03 0.79947782E+02</pdfrwt>
<totfact> 0.35282361E+05</totfact>
</mgrwt>
</event>
<event>
 8    1  0.2433467E-024  0.7972905E+02  0.7818608E-02  0.1329822E+00
         -1   -1    0    0    0  501 -0.00000000000E+00  0.00000000000E+00  0.54517497567E+01  0.54517520863E+01  0.50400000000E-02 0.  1.
          2   -1    0    0  501    0  0.00000000000E+00 -0.00000000000E+00 -0.29149907874E+03  0.29149907875E+03  0.25500000000E-02 0. -1.
         24    2    1    2    0    0 -0.44408920985E-15  0.00000000000E+00 -0.28604732899E+03  0.29695083084E+03  0.79729050644E+02 0.  0.
         66    2    3    3    0    0 -0.30856766364E+01  0.12236637123E+02 -0.28385410876E+03  0.28414153471E+03  0.19999994139E+01 0.  0.
        -13    1    3    3    0    0  0.30856766364E+01 -0.12236637123E+02 -0.21932202249E+01  0.12809296131E+02  0.10566000000E+00 0.  1.
         13    1    4    4    0    0 -0.23909482446E+01  0.75137172216E+01 -0.18098896512E+03  0.18116067244E+03  0.10566000000E+00 0. -1.
        -13    1    4    4    0    0 -0.11416928842E+00  0.35001592559E+00 -0.42900602174E+01  0.43071250828E+01  0.10566000000E+00 0.  1.
         14    1    4    4    0    0 -0.58055910338E+00  0.43729039762E+01 -0.98575083420E+02  0.98673737182E+02  0.00000000000E+00 0. -1.
<mgrwt>
<rscale>  0 0.79729051E+02</rscale>
<asrwt>0</asrwt>
<pdfrwt beam="1">  1        2 0.44846000E-01 0.79729051E+02</pdfrwt>
<pdfrwt beam="2">  1       -1 0.83873114E-03 0.79729051E+02</pdfrwt>
<totfact> 0.25455902E+05</totfact>
</mgrwt>
</event>
<event>
 8    1  0.2433467E-024  0.7725155E+02  0.7818608E-02  0.1337037E+00
          2   -1    0    0  501    0  0.00000000000E+00  0.00000000000E+00  0.18626120338E+02  0.18626120512E+02  0.25500000000E-02 0. -1.
         -1   -1    0    0    0  501 -0.00000000000E+00 -0.00000000000E+00 -0.80099900275E+02  0.80099900434E+02  0.50400000000E-02 0.  1.
         24    2    1    2    0    0  0.44408920985E-15 -0.71054273576E-14 -0.61473779938E+02  0.98726020946E+02  0.77251547506E+02 0.  0.
         66    2    3    3    0    0 -0.24907886268E+01  0.38157800207E+02 -0.24028437430E+02  0.45206056595E+02  0.20000007171E+01 0.  0.
        -13    1    3    3    0    0  0.24907886268E+01 -0.38157800207E+02 -0.37445342508E+02  0.53519964352E+02  0.10566000000E+00 0.  1.
         13    1    4    4    0    0 -0.11227361748E+01  0.15414932020E+02 -0.92232007959E+01  0.17998868371E+02  0.10566000000E+00 0. -1.
        -13    1    4    4    0    0 -0.10561869176E+01  0.21778642321E+02 -0.13991245296E+02  0.25907352260E+02  0.10566000000E+00 0.  1.
        -14    1    4    4    0    0 -0.31186553440E+00  0.96422586650E+00 -0.81399133795E+00  0.12998359633E+01  0.00000000000E+00 0.  1.
<mgrwt>
<rscale>  0 0.77251548E+02</rscale>
<asrwt>0</asrwt>
<pdfrwt beam="1">  1        2 0.28655570E-02 0.77251548E+02</pdfrwt>
<pdfrwt beam="2">  1       -1 0.12323061E-01 0.77251548E+02</pdfrwt>
<totfact> 0.13531373E+05</totfact>
</mgrwt>
</event>
<event>
 8    1  0.2433467E-024  0.8286182E+02  0.7818608E-02  0.1321121E+00
         -1   -1    0    0    0  501 -0.00000000000E+00  0.00000000000E+00  0.27879535137E+01  0.27879580693E+01  0.50400000000E-02 0.  1.
          2   -1    0    0  501    0  0.00000000000E+00 -0.00000000000E+00 -0.61569142755E+03  0.61569142756E+03  0.25500000000E-02 0. -1.
         24    2    1    2    0    0  0.00000000000E+00  0.00000000000E+00 -0.61290347404E+03  0.61847938563E+03  0.82861824484E+02 0.  0.
         66    2    3    3    0    0 -0.57134223575E+01 -0.36824408209E+02 -0.44136146378E+03  0.44293636331E+03  0.20000002867E+01 0.  0.
        -13    1    3    3    0    0  0.57134223575E+01  0.36824408209E+02 -0.17154201026E+03  0.17554302232E+03  0.10566000000E+00 0.  1.
         13    1    4    4    0    0 -0.16356955671E+01 -0.94711110972E+01 -0.10573675804E+03  0.10617273948E+03  0.10566000000E+00 0. -1.
        -13    1    4    4    0    0 -0.66127579534E+00 -0.54889041249E+01 -0.71435491477E+02  0.71649186742E+02  0.10566000000E+00 0.  1.
         14    1    4    4    0    0 -0.34164509950E+01 -0.21864392987E+02 -0.26418921426E+03  0.26511443709E+03  0.00000000000E+00 0. -1.
<mgrwt>
<rscale>  0 0.82861824E+02</rscale>
<asrwt>0</asrwt>
<pdfrwt beam="1">  1        2 0.94721650E-01 0.82861824E+02</pdfrwt>
<pdfrwt beam="2">  1       -1 0.42891677E-03 0.82861824E+02</pdfrwt>
<totfact> 0.29557044E+05</totfact>
</mgrwt>
</event>
<event>
 8    1  0.2433467E-024  0.8109561E+02  0.7818608E-02  0.1325971E+00
         -1   -1    0    0    0  501 -0.00000000000E+00  0.00000000000E+00  0.11512121915E+03  0.11512121926E+03  0.50400000000E-02 0.  1.
          2   -1    0    0  501    0  0.00000000000E+00 -0.00000000000E+00 -0.14281681290E+02  0.14281681518E+02  0.25500000000E-02 0. -1.
         24    2    1    2    0    0 -0.17763568394E-14 -0.35527136788E-14  0.10083953785E+03  0.12940290077E+03  0.81095612297E+02 0.  0.
         66    2    3    3    0    0  0.14868596755E+02 -0.19098261286E+02 -0.14106002555E+01  0.24327115451E+02  0.19999998699E+01 0.  0.
        -13    1    3    3    0    0 -0.14868596755E+02  0.19098261286E+02  0.10225013811E+03  0.10507578532E+03  0.10566000000E+00 0.  1.
         13    1    4    4    0    0  0.10321491725E+02 -0.12772944443E+02 -0.89482268741E+00  0.16446676651E+02  0.10566000000E+00 0. -1.
        -13    1    4    4    0    0  0.20127497043E+01 -0.27721716799E+01 -0.75466686104E+00  0.35095275041E+01  0.10566000000E+00 0.  1.
        -14    1    4    4    0    0  0.25343553258E+01 -0.35531451626E+01  0.23888929298E+00  0.43709112961E+01  0.00000000000E+00 0.  1.
<mgrwt>
<rscale>  0 0.81095612E+02</rscale>
<asrwt>0</asrwt>
<pdfrwt beam="1">  1        2 0.21971818E-02 0.81095612E+02</pdfrwt>
<pdfrwt beam="2">  1       -1 0.17710956E-01 0.81095612E+02</pdfrwt>
<totfact> 0.11107077E+05</totfact>
</mgrwt>
</event>
<event>
 8    1  0.2433467E-024  0.7958776E+02  0.7818608E-02  0.1330225E+00
          2   -1    0    0  501    0  0.00000000000E+00  0.00000000000E+00  0.10761690479E+04  0.10761690479E+04  0.25500000000E-02 0. -1.
         -1   -1    0    0    0  501 -0.00000000000E+00 -0.00000000000E+00 -0.14714679041E+01  0.14714765355E+01  0.50400000000E-02 0.  1.
         24    2    1    2    0    0  0.22204460493E-15  0.00000000000E+00  0.10746975800E+04  0.10776405245E+04  0.79587759506E+02 0.  0.
         66    2    3    3    0    0 -0.19237401564E+01  0.26846133021E+02  0.93410352721E+03  0.93449334676E+03  0.19999899332E+01 0.  0.
        -13    1    3    3    0    0  0.19237401564E+01 -0.26846133021E+02  0.14059405281E+03  0.14314717770E+03  0.10566000000E+00 0.  1.
         13    1    4    4    0    0 -0.13534854142E+01  0.15294194722E+02  0.53970727191E+03  0.53992563824E+03  0.10566000000E+00 0. -1.
        -13    1    4    4    0    0 -0.84442512136E+00  0.49309094891E+01  0.16900057429E+03  0.16907463499E+03  0.10566000000E+00 0.  1.
        -14    1    4    4    0    0  0.27417037920E+00  0.66210288101E+01  0.22539568101E+03  0.22549307353E+03  0.00000000000E+00 0.  1.
<mgrwt>
<rscale>  0 0.79587760E+02</rscale>
<asrwt>0</asrwt>
<pdfrwt beam="1">  1        2 0.16556478E+00 0.79587760E+02</pdfrwt>
<pdfrwt beam="2">  1       -1 0.22637992E-03 0.79587760E+02</pdfrwt>
<totfact> 0.35745430E+05</totfact>
</mgrwt>
</event>
<event>
 8    1  0.2433467E-024  0.7944301E+02  0.7818608E-02  0.1330640E+00
          2   -1    0    0  501    0  0.00000000000E+00  0.00000000000E+00  0.11850864087E+04  0.11850864087E+04  0.25500000000E-02 0. -1.
         -1   -1    0    0    0  501 -0.00000000000E+00 -0.00000000000E+00 -0.13313730623E+01  0.13313826019E+01  0.50400000000E-02 0.  1.
         24    2    1    2    0    0 -0.35527136788E-14  0.00000000000E+00  0.11837550356E+04  0.11864177913E+04  0.79443005524E+02 0.  0.
         66    2    3    3    0    0 -0.20427626318E+02 -0.92688586233E+01  0.10813536672E+04  0.10815881625E+04  0.19999994728E+01 0.  0.
        -13    1    3    3    0    0  0.20427626318E+02  0.92688586233E+01  0.10240136845E+03  0.10482962884E+03  0.10566000000E+00 0.  1.
         13    1    4    4    0    0 -0.67185274482E+01 -0.28115006383E+01  0.31533044543E+03  0.31541455915E+03  0.10566000000E+00 0. -1.
        -13    1    4    4    0    0 -0.15686339983E+01 -0.51017036356E+00  0.76179785959E+02  0.76197715446E+02  0.10566000000E+00 0.  1.
         14    1    4    4    0    0 -0.12140464872E+02 -0.59471876214E+01  0.68984343578E+03  0.68997588785E+03  0.00000000000E+00 0. -1.
<mgrwt>
<rscale>  0 0.79443006E+02</rscale>
<asrwt>0</asrwt>
<pdfrwt beam="1">  1        2 0.18232114E+00 0.79443006E+02</pdfrwt>
<pdfrwt beam="2">  1       -1 0.20482718E-03 0.79443006E+02</pdfrwt>
<totfact> 0.35725722E+05</totfact>
</mgrwt>
</event>
<event>
 8    1  0.2455293E-024  0.8139939E+02  0.7818608E-02  0.1325126E+00
          2   -1    0    0  501    0  0.00000000000E+00  0.00000000000E+00  0.70136040852E+02  0.70136040899E+02  0.25500000000E-02 0. -1.
         -1   -1    0    0    0  501 -0.00000000000E+00 -0.00000000000E+00 -0.23617888691E+02  0.23617889229E+02  0.50400000000E-02 0.  1.
         24    2    1    2    0    0  0.00000000000E+00  0.00000000000E+00  0.46518152161E+02  0.93753930128E+02  0.81399391484E+02 0.  0.
         66    2    3    3    0    0  0.16839055964E+02 -0.28171985739E+02  0.50945595510E+02  0.60635536373E+02  0.19999957824E+01 0.  0.
        -13    1    3    3    0    0 -0.16839055964E+02  0.28171985739E+02 -0.44274433489E+01  0.33118393755E+02  0.10566000000E+00 0.  1.
         13    1    4    4    0    0  0.75536039271E+01 -0.11302222897E+02  0.21304642839E+02  0.25272438450E+02  0.10566000000E+00 0. -1.
        -13    1    4    4    0    0  0.54962254880E+01 -0.92251177762E+01  0.17213856375E+02  0.20288896173E+02  0.10566000000E+00 0.  1.
        -14    1    4    4    0    0  0.37892265489E+01 -0.76446450663E+01  0.12427096296E+02  0.15074201749E+02  0.00000000000E+00 0.  1.
<mgrwt>
<rscale>  0 0.81399391E+02</rscale>
<asrwt>0</asrwt>
<pdfrwt beam="1">  1        2 0.10790160E-01 0.81399391E+02</pdfrwt>
<pdfrwt beam="2">  1       -1 0.36335215E-02 0.81399391E+02</pdfrwt>
<totfact> 0.15412634E+05</totfact>
</mgrwt>
</event>
<event>
 8    1  0.2433467E-024  0.7892697E+02  0.7818608E-02  0.1332124E+00
         -1   -1    0    0    0  501 -0.00000000000E+00  0.00000000000E+00  0.21345210878E+02  0.21345211473E+02  0.50400000000E-02 0.  1.
          2   -1    0    0  501    0  0.00000000000E+00 -0.00000000000E+00 -0.72960935334E+02  0.72960935378E+02  0.25500000000E-02 0. -1.
         24    2    1    2    0    0 -0.35527136788E-14  0.88817841970E-15 -0.51615724456E+02  0.94306146851E+02  0.78926968286E+02 0.  0.
         66    2    3    3    0    0  0.19905846351E+02 -0.74703530297E+01 -0.65512815444E+02  0.68905572147E+02  0.19999980506E+01 0.  0.
        -13    1    3    3    0    0 -0.19905846351E+02  0.74703530297E+01  0.13897090987E+02  0.25400574704E+02  0.10566000000E+00 0.  1.
         13    1    4    4    0    0  0.77780548346E+01 -0.24280496817E+01 -0.26375301354E+02  0.27605456849E+02  0.10566000000E+00 0. -1.
        -13    1    4    4    0    0  0.12126673266E+02 -0.50093771376E+01 -0.39122019190E+02  0.41263708187E+02  0.10566000000E+00 0.  1.
        -14    1    4    4    0    0  0.11182503059E-02 -0.32926210463E-01 -0.15494899137E-01  0.36407110823E-01  0.00000000000E+00 0.  1.
<mgrwt>
<rscale>  0 0.78926968E+02</rscale>
<asrwt>0</asrwt>
<pdfrwt beam="1">  1        2 0.11224759E-01 0.78926968E+02</pdfrwt>
<pdfrwt beam="2">  1       -1 0.32838787E-02 0.78926968E+02</pdfrwt>
<totfact> 0.16917927E+05</totfact>
</mgrwt>
</event>
<event>
 8    1  0.2433467E-024  0.8511573E+02  0.7818608E-02  0.1315130E+00
         -1   -1    0    0    0  501 -0.00000000000E+00  0.00000000000E+00  0.47941820581E+01  0.47941847074E+01  0.50400000000E-02 0.  1.
          2   -1    0    0  501    0  0.00000000000E+00 -0.00000000000E+00 -0.37778530868E+03  0.37778530869E+03  0.25500000000E-02 0. -1.
         24    2    1    2    0    0  0.00000000000E+00 -0.17763568394E-14 -0.37299112663E+03  0.38257949340E+03  0.85115734318E+02 0.  0.
         66    2    3    3    0    0 -0.15604359184E+00 -0.15090515653E+02 -0.36534382703E+03  0.36566085376E+03  0.20000016733E+01 0.  0.
        -13    1    3    3    0    0  0.15604359184E+00  0.15090515653E+02 -0.76472995920E+01  0.16918639642E+02  0.10566000000E+00 0.  1.
         13    1    4    4    0    0 -0.16720308816E+00 -0.19125405960E+01 -0.50854819238E+02  0.50891154164E+02  0.10566000000E+00 0. -1.
        -13    1    4    4    0    0 -0.83645926601E+00 -0.61422947731E+01 -0.14305397752E+03  0.14318826452E+03  0.10566000000E+00 0.  1.
         14    1    4    4    0    0  0.84761876233E+00 -0.70356802835E+01 -0.17143503028E+03  0.17158143507E+03  0.00000000000E+00 0. -1.
<mgrwt>
<rscale>  0 0.85115734E+02</rscale>
<asrwt>0</asrwt>
<pdfrwt beam="1">  1        2 0.58120794E-01 0.85115734E+02</pdfrwt>
<pdfrwt beam="2">  1       -1 0.73756697E-03 0.85115734E+02</pdfrwt>
<totfact> 0.23537118E+05</totfact>
</mgrwt>
</event>
<event>
 8    1  0.2433467E-024  0.8485833E+02  0.7818608E-02  0.1315803E+00
         -1   -1    0    0    0  501 -0.00000000000E+00  0.00000000000E+00  0.11391848534E+02  0.11391849649E+02  0.50400000000E-02 0.  1.
          2   -1    0    0  501    0  0.00000000000E+00 -0.00000000000E+00 -0.15802824980E+03  0.15802824982E+03  0.25500000000E-02 0. -1.
         24    2    1    2    0    0  0.00000000000E+00 -0.11102230246E-15 -0.14663640127E+03  0.16942009947E+03  0.84858328573E+02 0.  0.
         66    2    3    3    0    0 -0.21776757298E+02 -0.91550900643E+00 -0.14598232442E+03  0.14761403849E+03  0.19999997187E+01 0.  0.
        -13    1    3    3    0    0  0.21776757298E+02  0.91550900643E+00 -0.65407684441E+00  0.21806060986E+02  0.10566000000E+00 0.  1.
         13    1    4    4    0    0 -0.31719790471E+01  0.20301069286E+00 -0.22064405707E+02  0.22292416371E+02  0.10566000000E+00 0. -1.
        -13    1    4    4    0    0 -0.10083760622E+02 -0.11538023263E+01 -0.63622026569E+02  0.64426601003E+02  0.10566000000E+00 0.  1.
        -14    1    4    4    0    0 -0.85210176288E+01  0.35282626996E-01 -0.60295892147E+02  0.60895021111E+02  0.00000000000E+00 0.  1.
<mgrwt>
<rscale>  0 0.84858329E+02</rscale>
<asrwt>0</asrwt>
<pdfrwt beam="1">  1        2 0.24312037E-01 0.84858329E+02</pdfrwt>
<pdfrwt beam="2">  1       -1 0.17525923E-02 0.84858329E+02</pdfrwt>
<totfact> 0.17415964E+05</totfact>
</mgrwt>
</event>
<event>
 8    1  0.2433467E-024  0.8099460E+02  0.7818608E-02  0.1326252E+00
         -1   -1    0    0    0  501 -0.00000000000E+00  0.00000000000E+00  0.19540808440E+03  0.19540808447E+03  0.50400000000E-02 0.  1.
          2   -1    0    0  501    0  0.00000000000E+00 -0.00000000000E+00 -0.83928530923E+01  0.83928534797E+01  0.25500000000E-02 0. -1.
         24    2    1    2    0    0 -0.88817841970E-15  0.14210854715E-13  0.18701523131E+03  0.20380093795E+03  0.80994602081E+02 0.  0.
         66    2    3    3    0    0  0.60892067042E+01 -0.37527448414E+02  0.12848829310E+03  0.13400981041E+03  0.19999998694E+01 0.  0.
        -13    1    3    3    0    0 -0.60892067042E+01  0.37527448414E+02  0.58526938212E+02  0.69791127539E+02  0.10566000000E+00 0.  1.
         13    1    4    4    0    0  0.21438982584E+01 -0.87906506401E+01  0.31481424563E+02  0.32756115383E+02  0.10566000000E+00 0. -1.
        -13    1    4    4    0    0  0.88608353500E+00 -0.45009433607E+01  0.15455163898E+02  0.16121938169E+02  0.10566000000E+00 0.  1.
        -14    1    4    4    0    0  0.30592249108E+01 -0.24235854413E+02  0.81551704640E+02  0.85131756859E+02  0.00000000000E+00 0.  1.
<mgrwt>
<rscale>  0 0.80994602E+02</rscale>
<asrwt>0</asrwt>
<pdfrwt beam="1">  1        2 0.12912081E-02 0.80994602E+02</pdfrwt>
<pdfrwt beam="2">  1       -1 0.30062784E-01 0.80994602E+02</pdfrwt>
<totfact> 0.97196641E+04</totfact>
</mgrwt>
</event>
<event>
 8    1  0.2433467E-024  0.7932657E+02  0.7818608E-02  0.1330973E+00
          2   -1    0    0  501    0  0.00000000000E+00  0.00000000000E+00  0.39836602750E+02  0.39836602831E+02  0.25500000000E-02 0. -1.
         -1   -1    0    0    0  501 -0.00000000000E+00 -0.00000000000E+00 -0.39490718957E+02  0.39490719279E+02  0.50400000000E-02 0.  1.
         24    2    1    2    0    0  0.00000000000E+00  0.71054273576E-14  0.34588379238E+00  0.79327322110E+02  0.79326568044E+02 0.  0.
         66    2    3    3    0    0  0.22733173672E+01 -0.26350509992E+02  0.29697115968E+02  0.39817534172E+02  0.19999955011E+01 0.  0.
        -13    1    3    3    0    0 -0.22733173672E+01  0.26350509992E+02 -0.29351232176E+02  0.39509787939E+02  0.10566000000E+00 0.  1.
         13    1    4    4    0    0  0.88696091710E+00 -0.91282533563E+01  0.10098782943E+02  0.13642151222E+02  0.10566000000E+00 0. -1.
        -13    1    4    4    0    0  0.11737830275E+01 -0.16569668622E+02  0.19171750658E+02  0.25367279558E+02  0.10566000000E+00 0.  1.
        -14    1    4    4    0    0  0.21257342255E+00 -0.65258801393E+00  0.42658236713E+00  0.80810339180E+00  0.00000000000E+00 0.  1.
<mgrwt>
<rscale>  0 0.79326568E+02</rscale>
<asrwt>0</asrwt>
<pdfrwt beam="1">  1        2 0.61287081E-02 0.79326568E+02</pdfrwt>
<pdfrwt beam="2">  1       -1 0.60754953E-02 0.79326568E+02</pdfrwt>
<totfact> 0.14579881E+05</totfact>
</mgrwt>
</event>
<event>
 8    1  0.2915245E-024  0.7947755E+02  0.7818608E-02  0.1330541E+00
          2   -1    0    0  501    0  0.00000000000E+00  0.00000000000E+00  0.21280670531E+03  0.21280670533E+03  0.25500000000E-02 0. -1.
         -1   -1    0    0    0  501 -0.00000000000E+00 -0.00000000000E+00 -0.74206786930E+01  0.74206804045E+01  0.50400000000E-02 0.  1.
         24    2    1    2    0    0  0.00000000000E+00  0.00000000000E+00  0.20538602662E+03  0.22022738573E+03  0.79477553409E+02 0.  0.
         66    2    3    3    0    0 -0.20937094077E+02 -0.31115325866E+02  0.13895441873E+03  0.14394045957E+03  0.20000012241E+01 0.  0.
        -13    1    3    3    0    0  0.20937094077E+02  0.31115325866E+02  0.66431607884E+02  0.76286926156E+02  0.10566000000E+00 0.  1.
         13    1    4    4    0    0 -0.83693376480E+01 -0.12450535631E+02  0.55916279710E+02  0.57893895626E+02  0.10566000000E+00 0. -1.
        -13    1    4    4    0    0 -0.11746494892E+02 -0.17420030863E+02  0.75907144854E+02  0.78761306627E+02  0.10566000000E+00 0.  1.
        -14    1    4    4    0    0 -0.82126153688E+00 -0.12447593715E+01  0.71309941690E+01  0.72852573217E+01  0.00000000000E+00 0.  1.
<mgrwt>
<rscale>  0 0.79477553E+02</rscale>
<asrwt>0</asrwt>
<pdfrwt beam="1">  1        2 0.32739488E-01 0.79477553E+02</pdfrwt>
<pdfrwt beam="2">  1       -1 0.11416432E-02 0.79477553E+02</pdfrwt>
<totfact> 0.22934448E+05</totfact>
</mgrwt>
</event>
<event>
 8    1  0.2433467E-024  0.7776978E+02  0.7818608E-02  0.1335502E+00
          2   -1    0    0  501    0  0.00000000000E+00  0.00000000000E+00  0.32870185109E+02  0.32870185208E+02  0.25500000000E-02 0. -1.
         -1   -1    0    0    0  501 -0.00000000000E+00 -0.00000000000E+00 -0.46000185577E+02  0.46000185853E+02  0.50400000000E-02 0.  1.
         24    2    1    2    0    0  0.35527136788E-14  0.00000000000E+00 -0.13130000468E+02  0.78870371062E+02  0.77769778958E+02 0.  0.
         66    2    3    3    0    0  0.25762720157E+02  0.19041322436E+02  0.15736018667E+02  0.35747895080E+02  0.20000022928E+01 0.  0.
        -13    1    3    3    0    0 -0.25762720157E+02 -0.19041322436E+02 -0.28866019135E+02  0.43122475981E+02  0.10566000000E+00 0.  1.
         13    1    4    4    0    0  0.10902837314E+02  0.87839419986E+01  0.60294479928E+01  0.15244504113E+02  0.10566000000E+00 0. -1.
        -13    1    4    4    0    0  0.63673008451E+01  0.42697974191E+01  0.42715921751E+01  0.87767507540E+01  0.10566000000E+00 0.  1.
         14    1    4    4    0    0  0.84925819983E+01  0.59875830185E+01  0.54349784994E+01  0.11726640213E+02  0.00000000000E+00 0. -1.
<mgrwt>
<rscale>  0 0.77769779E+02</rscale>
<asrwt>0</asrwt>
<pdfrwt beam="1">  1        2 0.50569516E-02 0.77769779E+02</pdfrwt>
<pdfrwt beam="2">  1       -1 0.70769517E-02 0.77769779E+02</pdfrwt>
<totfact> 0.14822855E+05</totfact>
</mgrwt>
</event>
<event>
 8    1  0.2433467E-024  0.7639591E+02  0.7818608E-02  0.1339602E+00
         -1   -1    0    0    0  501 -0.00000000000E+00  0.00000000000E+00  0.24325024006E+01  0.24325076218E+01  0.50400000000E-02 0.  1.
          2   -1    0    0  501    0  0.00000000000E+00 -0.00000000000E+00 -0.59982767868E+03  0.59982767868E+03  0.25500000000E-02 0. -1.
         24    2    1    2    0    0 -0.35527136788E-14 -0.17763568394E-14 -0.59739517628E+03  0.60226018630E+03  0.76395911991E+02 0.  0.
         66    2    3    3    0    0  0.19357250657E+02  0.15414485241E+02 -0.52803235246E+03  0.52861562100E+03  0.20000008609E+01 0.  0.
        -13    1    3    3    0    0 -0.19357250657E+02 -0.15414485241E+02 -0.69362823813E+02  0.73644565309E+02  0.10566000000E+00 0.  1.
         13    1    4    4    0    0  0.44959858379E+01  0.31393759571E+01 -0.11064160733E+03  0.11077746164E+03  0.10566000000E+00 0. -1.
        -13    1    4    4    0    0  0.87664445054E+01  0.66730987121E+01 -0.25067448981E+03  0.25091650365E+03  0.10566000000E+00 0.  1.
        -14    1    4    4    0    0  0.60948203137E+01  0.56020105722E+01 -0.16671625532E+03  0.16692165571E+03  0.00000000000E+00 0.  1.
<mgrwt>
<rscale>  0 0.76395912E+02</rscale>
<asrwt>0</asrwt>
<pdfrwt beam="1">  1        2 0.92281064E-01 0.76395912E+02</pdfrwt>
<pdfrwt beam="2">  1       -1 0.37423202E-03 0.76395912E+02</pdfrwt>
<totfact> 0.36249687E+05</totfact>
</mgrwt>
</event>
<event>
 8    1  0.2433467E-024  0.7926286E+02  0.7818608E-02  0.1331156E+00
         -1   -1    0    0    0  501 -0.00000000000E+00  0.00000000000E+00  0.48351242605E+01  0.48351268873E+01  0.50400000000E-02 0.  1.
          2   -1    0    0  501    0  0.00000000000E+00 -0.00000000000E+00 -0.32484169145E+03  0.32484169146E+03  0.25500000000E-02 0. -1.
         24    2    1    2    0    0  0.00000000000E+00  0.00000000000E+00 -0.32000656719E+03  0.32967681835E+03  0.79262863380E+02 0.  0.
         66    2    3    3    0    0  0.16895327886E+02 -0.33659546700E+02 -0.21108423736E+03  0.21442707957E+03  0.20000008288E+01 0.  0.
        -13    1    3    3    0    0 -0.16895327886E+02  0.33659546700E+02 -0.10892232983E+03  0.11524973878E+03  0.10566000000E+00 0.  1.
         13    1    4    4    0    0  0.51120073390E+01 -0.11071834799E+02 -0.66945045676E+02  0.68046810722E+02  0.10566000000E+00 0. -1.
        -13    1    4    4    0    0  0.36538899746E+01 -0.84682868394E+01 -0.51871457679E+02  0.52685121996E+02  0.10566000000E+00 0.  1.
         14    1    4    4    0    0  0.81294305721E+01 -0.14119425062E+02 -0.92267734007E+02  0.93695146856E+02  0.00000000000E+00 0. -1.
<mgrwt>
<rscale>  0 0.79262863E+02</rscale>
<asrwt>0</asrwt>
<pdfrwt beam="1">  1        2 0.49975628E-01 0.79262863E+02</pdfrwt>
<pdfrwt beam="2">  1       -1 0.74386573E-03 0.79262863E+02</pdfrwt>
<totfact> 0.26881475E+05</totfact>
</mgrwt>
</event>
<event>
 8    1  0.2433467E-024  0.7987363E+02  0.7818608E-02  0.1329410E+00
          2   -1    0    0  501    0  0.00000000000E+00  0.00000000000E+00  0.48036366833E+02  0.48036366900E+02  0.25500000000E-02 0. -1.
         -1   -1    0    0    0  501 -0.00000000000E+00 -0.00000000000E+00 -0.33202955300E+02  0.33202955682E+02  0.50400000000E-02 0.  1.
         24    2    1    2    0    0  0.35527136788E-14  0.71054273576E-14  0.14833411533E+02  0.81239322583E+02  0.79873634173E+02 0.  0.
         66    2    3    3    0    0 -0.19902143169E+02 -0.32599174722E+02  0.19201380693E+02  0.42795964068E+02  0.20000061904E+01 0.  0.
        -13    1    3    3    0    0  0.19902143169E+02  0.32599174722E+02 -0.43679691594E+01  0.38443358514E+02  0.10566000000E+00 0.  1.
         13    1    4    4    0    0 -0.12885769477E+01 -0.13738034097E+01  0.10059906303E+01  0.21379774420E+01  0.10566000000E+00 0.  1.
        -13    1    4    4    0    0 -0.71646049632E+01 -0.12401886268E+02  0.68591380559E+01  0.15880720581E+02  0.10566000000E+00 0.  1.
         14    1    4    4    0    0 -0.11448961258E+02 -0.18823485044E+02  0.11336252006E+02  0.24777266045E+02  0.00000000000E+00 0. -1.
<mgrwt>
<rscale>  0 0.79873634E+02</rscale>
<asrwt>0</asrwt>
<pdfrwt beam="1">  1        2 0.73902103E-02 0.79873634E+02</pdfrwt>
<pdfrwt beam="2">  1       -1 0.51081470E-02 0.79873634E+02</pdfrwt>
<totfact> 0.14878390E+05</totfact>
</mgrwt>
</event>
<event>
 8    1  0.2433467E-024  0.8062647E+02  0.7818608E-02  0.1327283E+00
         -1   -1    0    0    0  501 -0.00000000000E+00  0.00000000000E+00  0.73241265839E+02  0.73241266012E+02  0.50400000000E-02 0.  1.
          2   -1    0    0  501    0  0.00000000000E+00 -0.00000000000E+00 -0.22189087063E+02  0.22189087209E+02  0.25500000000E-02 0. -1.
         24    2    1    2    0    0  0.00000000000E+00 -0.35527136788E-14  0.51052178776E+02  0.95430353222E+02  0.80626468100E+02 0.  0.
         66    2    3    3    0    0  0.19387085785E+02 -0.22114138986E+02 -0.70507189093E+01  0.30308527988E+02  0.19999983249E+01 0.  0.
        -13    1    3    3    0    0 -0.19387085785E+02  0.22114138986E+02  0.58102897686E+02  0.65121825234E+02  0.10566000000E+00 0.  1.
         13    1    4    4    0    0  0.15828024922E+02 -0.18272742251E+02 -0.57168637475E+01  0.24841762768E+02  0.10566000000E+00 0. -1.
        -13    1    4    4    0    0  0.43119971466E+00 -0.83489764159E+00 -0.41177942125E+00  0.10313649176E+01  0.10566000000E+00 0.  1.
        -14    1    4    4    0    0  0.31278611487E+01 -0.30064990939E+01 -0.92207574058E+00  0.44354003020E+01  0.00000000000E+00 0.  1.
<mgrwt>
<rscale>  0 0.80626468E+02</rscale>
<asrwt>0</asrwt>
<pdfrwt beam="1">  1        2 0.34137058E-02 0.80626468E+02</pdfrwt>
<pdfrwt beam="2">  1       -1 0.11267887E-01 0.80626468E+02</pdfrwt>
<totfact> 0.12398040E+05</totfact>
</mgrwt>
</event>
<event>
 8    1  0.2433467E-024  0.8198585E+02  0.7818608E-02  0.1323509E+00
          2   -1    0    0  501    0  0.00000000000E+00  0.00000000000E+00  0.92881779687E+03  0.92881779687E+03  0.25500000000E-02 0. -1.
         -1   -1    0    0    0  501 -0.00000000000E+00 -0.00000000000E+00 -0.18091993795E+01  0.18092063996E+01  0.50400000000E-02 0.  1.
         24    2    1    2    0    0  0.00000000000E+00  0.00000000000E+00  0.92700859749E+03  0.93062700327E+03  0.81985848779E+02 0.  0.
         66    2    3    3    0    0 -0.51159212809E+01  0.13488386798E+02  0.89903114255E+03  0.89914910026E+03  0.19999999009E+01 0.  0.
        -13    1    3    3    0    0  0.51159212809E+01 -0.13488386798E+02  0.27977454943E+02  0.31477903013E+02  0.10566000000E+00 0.  1.
         13    1    4    4    0    0 -0.12705234733E+01  0.45237670287E+01  0.25632009668E+03  0.25636318344E+03  0.10566000000E+00 0. -1.
        -13    1    4    4    0    0 -0.27511829522E+01  0.63215212808E+01  0.48369753433E+03  0.48374667598E+03  0.10566000000E+00 0.  1.
        -14    1    4    4    0    0 -0.10942148554E+01  0.26430984886E+01  0.15901351154E+03  0.15903924084E+03  0.00000000000E+00 0.  1.
<mgrwt>
<rscale>  0 0.81985849E+02</rscale>
<asrwt>0</asrwt>
<pdfrwt beam="1">  1        2 0.14289498E+00 0.81985849E+02</pdfrwt>
<pdfrwt beam="2">  1       -1 0.27833903E-03 0.81985849E+02</pdfrwt>
<totfact> 0.32892520E+05</totfact>
</mgrwt>
</event>
<event>
 8    1  0.2433467E-024  0.7947328E+02  0.7818608E-02  0.1330553E+00
          2   -1    0    0  501    0  0.00000000000E+00  0.00000000000E+00  0.40068192237E+03  0.40068192238E+03  0.25500000000E-02 0. -1.
         -1   -1    0    0    0  501 -0.00000000000E+00 -0.00000000000E+00 -0.39407819695E+01  0.39407851924E+01  0.50400000000E-02 0.  1.
         24    2    1    2    0    0  0.00000000000E+00  0.00000000000E+00  0.39674114040E+03  0.40462270757E+03  0.79473284790E+02 0.  0.
         66    2    3    3    0    0  0.17094464358E+02  0.35842265684E+02  0.20016170556E+03  0.20407252909E+03  0.20000091952E+01 0.  0.
        -13    1    3    3    0    0 -0.17094464358E+02 -0.35842265684E+02  0.19657943484E+03  0.20055017848E+03  0.10566000000E+00 0.  1.
         13    1    4    4    0    0  0.14180635405E+02  0.28627772665E+02  0.15854524254E+03  0.16173201565E+03  0.10566000000E+00 0. -1.
        -13    1    4    4    0    0  0.22244446730E+01  0.50293540222E+01  0.30064178531E+02  0.30563189473E+02  0.10566000000E+00 0.  1.
         14    1    4    4    0    0  0.68938427993E+00  0.21851389966E+01  0.11552284486E+02  0.11777323973E+02  0.00000000000E+00 0. -1.
<mgrwt>
<rscale>  0 0.79473285E+02</rscale>
<asrwt>0</asrwt>
<pdfrwt beam="1">  1        2 0.61643380E-01 0.79473285E+02</pdfrwt>
<pdfrwt beam="2">  1       -1 0.60627433E-03 0.79473285E+02</pdfrwt>
<totfact> 0.28762321E+05</totfact>
</mgrwt>
</event>
<event>
 8    1  0.2433467E-024  0.8108155E+02  0.7818608E-02  0.1326010E+00
          2   -1    0    0  501    0  0.00000000000E+00  0.00000000000E+00  0.43735988100E+02  0.43735988175E+02  0.25500000000E-02 0. -1.
         -1   -1    0    0    0  501 -0.00000000000E+00 -0.00000000000E+00 -0.37578992393E+02  0.37578992731E+02  0.50400000000E-02 0.  1.
         24    2    1    2    0    0  0.35527136788E-14 -0.35527136788E-14  0.61569957070E+01  0.81314980906E+02  0.81081548601E+02 0.  0.
         66    2    3    3    0    0  0.24006560289E+02 -0.17681761171E+02  0.30592715973E+02  0.42765334941E+02  0.19999967551E+01 0.  0.
        -13    1    3    3    0    0 -0.24006560289E+02  0.17681761171E+02 -0.24435720266E+02  0.38549645964E+02  0.10566000000E+00 0.  1.
         13    1    4    4    0    0  0.15001381680E+02 -0.10558929828E+02  0.19876506689E+02  0.27048458988E+02  0.10566000000E+00 0. -1.
        -13    1    4    4    0    0  0.68852647694E+01 -0.51312518182E+01  0.79262461960E+01  0.11686451941E+02  0.10566000000E+00 0.  1.
         14    1    4    4    0    0  0.21199138401E+01 -0.19915795249E+01  0.27899630879E+01  0.40304240131E+01  0.00000000000E+00 0. -1.
<mgrwt>
<rscale>  0 0.81081549E+02</rscale>
<asrwt>0</asrwt>
<pdfrwt beam="1">  1        2 0.67286135E-02 0.81081549E+02</pdfrwt>
<pdfrwt beam="2">  1       -1 0.57813835E-02 0.81081549E+02</pdfrwt>
<totfact> 0.13994130E+05</totfact>
</mgrwt>
</event>
<event>
 8    1  0.2433467E-024  0.8078682E+02  0.7818608E-02  0.1326833E+00
          2   -1    0    0  501    0  0.00000000000E+00  0.00000000000E+00  0.73240063310E+03  0.73240063310E+03  0.25500000000E-02 0. -1.
         -1   -1    0    0    0  501 -0.00000000000E+00 -0.00000000000E+00 -0.22277773315E+01  0.22277830326E+01  0.50400000000E-02 0.  1.
         24    2    1    2    0    0 -0.35527136788E-14  0.00000000000E+00  0.73017285577E+03  0.73462841613E+03  0.80786821294E+02 0.  0.
         66    2    3    3    0    0  0.24347895588E+02 -0.12809101737E+02  0.63394730990E+03  0.63454714942E+03  0.19999986813E+01 0.  0.
        -13    1    3    3    0    0 -0.24347895588E+02  0.12809101737E+02  0.96225545865E+02  0.10008126672E+03  0.10566000000E+00 0.  1.
         13    1    4    4    0    0  0.49423395484E+01 -0.29987453621E+01  0.12760347968E+03  0.12773440564E+03  0.10566000000E+00 0. -1.
        -13    1    4    4    0    0  0.91462217591E+01 -0.49312229847E+01  0.25811281685E+03  0.25832190716E+03  0.10566000000E+00 0.  1.
        -14    1    4    4    0    0  0.10259334281E+02 -0.48791333898E+01  0.24823101338E+03  0.24849083662E+03  0.00000000000E+00 0.  1.
<mgrwt>
<rscale>  0 0.80786821E+02</rscale>
<asrwt>0</asrwt>
<pdfrwt beam="1">  1        2 0.11267701E+00 0.80786821E+02</pdfrwt>
<pdfrwt beam="2">  1       -1 0.34273544E-03 0.80786821E+02</pdfrwt>
<totfact> 0.32937734E+05</totfact>
</mgrwt>
</event>
<event>
 8    1  0.2433467E-024  0.8005079E+02  0.7818608E-02  0.1328907E+00
          2   -1    0    0  501    0  0.00000000000E+00  0.00000000000E+00  0.10421911858E+04  0.10421911858E+04  0.25500000000E-02 0. -1.
         -1   -1    0    0    0  501 -0.00000000000E+00 -0.00000000000E+00 -0.15371727227E+01  0.15371809851E+01  0.50400000000E-02 0.  1.
         24    2    1    2    0    0  0.00000000000E+00  0.00000000000E+00  0.10406540131E+04  0.10437283668E+04  0.80050788281E+02 0.  0.
         66    2    3    3    0    0  0.84653790228E+01 -0.24709549325E+02  0.91565039580E+03  0.91602503885E+03  0.20000006905E+01 0.  0.
        -13    1    3    3    0    0 -0.84653790228E+01  0.24709549325E+02  0.12500361726E+03  0.12770332792E+03  0.10566000000E+00 0.  1.
         13    1    4    4    0    0  0.24787710350E+01 -0.87554755966E+01  0.31791236377E+03  0.31804258341E+03  0.10566000000E+00 0. -1.
        -13    1    4    4    0    0  0.17795566503E+01 -0.46814915708E+01  0.15479956222E+03  0.15488059534E+03  0.10566000000E+00 0.  1.
        -14    1    4    4    0    0  0.42070513375E+01 -0.11272582157E+02  0.44293846981E+03  0.44310186010E+03  0.00000000000E+00 0.  1.
<mgrwt>
<rscale>  0 0.80050788E+02</rscale>
<asrwt>0</asrwt>
<pdfrwt beam="1">  1        2 0.16033666E+00 0.80050788E+02</pdfrwt>
<pdfrwt beam="2">  1       -1 0.23648941E-03 0.80050788E+02</pdfrwt>
<totfact> 0.35212295E+05</totfact>
</mgrwt>
</event>
<event>
 8    1  0.2433467E-024  0.8129613E+02  0.7818608E-02  0.1325413E+00
         -1   -1    0    0    0  501 -0.00000000000E+00  0.00000000000E+00  0.66691328657E+01  0.66691347701E+01  0.50400000000E-02 0.  1.
          2   -1    0    0  501    0  0.00000000000E+00 -0.00000000000E+00 -0.24774809075E+03  0.24774809076E+03  0.25500000000E-02 0. -1.
         24    2    1    2    0    0 -0.17763568394E-14  0.00000000000E+00 -0.24107895788E+03  0.25441722553E+03  0.81296129756E+02 0.  0.
         66    2    3    3    0    0  0.93057638255E+01  0.16205866285E+02 -0.23349320988E+03  0.23424838622E+03  0.20000110962E+01 0.  0.
        -13    1    3    3    0    0 -0.93057638255E+01 -0.16205866285E+02 -0.75857480049E+01  0.20168839313E+02  0.10566000000E+00 0.  1.
         13    1    4    4    0    0  0.50604935861E+01  0.97056923341E+01 -0.13109919950E+03  0.13155538884E+03  0.10566000000E+00 0. -1.
        -13    1    4    4    0    0  0.15212597427E+01  0.19135910099E+01 -0.27093571626E+02  0.27203838870E+02  0.10566000000E+00 0.  1.
         14    1    4    4    0    0  0.27240104967E+01  0.45865829408E+01 -0.75300438747E+02  0.75489158505E+02  0.00000000000E+00 0. -1.
<mgrwt>
<rscale>  0 0.81296130E+02</rscale>
<asrwt>0</asrwt>
<pdfrwt beam="1">  1        2 0.38115084E-01 0.81296130E+02</pdfrwt>
<pdfrwt beam="2">  1       -1 0.10260208E-02 0.81296130E+02</pdfrwt>
<totfact> 0.22805949E+05</totfact>
</mgrwt>
</event>
<event>
 8    1  0.2433467E-024  0.8195118E+02  0.7818608E-02  0.1323604E+00
          2   -1    0    0  501    0  0.00000000000E+00  0.00000000000E+00  0.28008773165E+03  0.28008773166E+03  0.25500000000E-02 0. -1.
         -1   -1    0    0    0  501 -0.00000000000E+00 -0.00000000000E+00 -0.59945461364E+01  0.59945482551E+01  0.50400000000E-02 0.  1.
         24    2    1    2    0    0  0.00000000000E+00  0.00000000000E+00  0.27409318551E+03  0.28608227991E+03  0.81951183867E+02 0.  0.
         66    2    3    3    0    0  0.38911134257E+02 -0.79780410461E+01  0.10234702156E+03  0.10980272493E+03  0.20000181449E+01 0.  0.
        -13    1    3    3    0    0 -0.38911134257E+02  0.79780410461E+01  0.17174616395E+03  0.17627955498E+03  0.10566000000E+00 0.  1.
         13    1    4    4    0    0  0.19622011330E+02 -0.38798779429E+01  0.49005189710E+02  0.52930110184E+02  0.10566000000E+00 0. -1.
        -13    1    4    4    0    0  0.10049980577E+02 -0.23844202237E+01  0.28128102275E+02  0.29964793859E+02  0.10566000000E+00 0.  1.
        -14    1    4    4    0    0  0.92391423502E+01 -0.17137428794E+01  0.25213729576E+02  0.26907820892E+02  0.00000000000E+00 0.  1.
<mgrwt>
<rscale>  0 0.81951184E+02</rscale>
<asrwt>0</asrwt>
<pdfrwt beam="1">  1        2 0.43090430E-01 0.81951184E+02</pdfrwt>
<pdfrwt beam="2">  1       -1 0.92223782E-03 0.81951184E+02</pdfrwt>
<totfact> 0.23342304E+05</totfact>
</mgrwt>
</event>
<event>
 8    1  0.2433467E-024  0.7996003E+02  0.7818608E-02  0.1329165E+00
         -1   -1    0    0    0  501 -0.00000000000E+00  0.00000000000E+00  0.69227433954E+02  0.69227434137E+02  0.50400000000E-02 0.  1.
          2   -1    0    0  501    0  0.00000000000E+00 -0.00000000000E+00 -0.23089136227E+02  0.23089136368E+02  0.25500000000E-02 0. -1.
         24    2    1    2    0    0 -0.22204460493E-15  0.00000000000E+00  0.46138297726E+02  0.92316570505E+02  0.79960031721E+02 0.  0.
         66    2    3    3    0    0  0.18703694798E+01  0.19721622043E+02 -0.16976558090E+02  0.26165706212E+02  0.19999997595E+01 0.  0.
        -13    1    3    3    0    0 -0.18703694798E+01 -0.19721622043E+02  0.63114855816E+02  0.66150864293E+02  0.10566000000E+00 0.  1.
         13    1    4    4    0    0  0.21715220643E+01  0.14383072493E+02 -0.11982404046E+02  0.18846152211E+02  0.10566000000E+00 0. -1.
        -13    1    4    4    0    0 -0.70270818028E-01  0.15341654325E+01 -0.14728471863E+01  0.21305033283E+01  0.10566000000E+00 0. -1.
         14    1    4    4    0    0 -0.23088176654E+00  0.38043841174E+01 -0.35213068577E+01  0.51890506732E+01  0.00000000000E+00 0. -1.
<mgrwt>
<rscale>  0 0.79960032E+02</rscale>
<asrwt>0</asrwt>
<pdfrwt beam="1">  1        2 0.35521750E-02 0.79960032E+02</pdfrwt>
<pdfrwt beam="2">  1       -1 0.10650374E-01 0.79960032E+02</pdfrwt>
<totfact> 0.12795993E+05</totfact>
</mgrwt>
</event>
<event>
 8    1  0.2433467E-024  0.7973814E+02  0.7818608E-02  0.1329796E+00
         -1   -1    0    0    0  501 -0.00000000000E+00  0.00000000000E+00  0.37240722628E+02  0.37240722969E+02  0.50400000000E-02 0.  1.
          2   -1    0    0  501    0  0.00000000000E+00 -0.00000000000E+00 -0.42682913306E+02  0.42682913382E+02  0.25500000000E-02 0. -1.
         24    2    1    2    0    0  0.00000000000E+00  0.00000000000E+00 -0.54421906779E+01  0.79923636351E+02  0.79738135219E+02 0.  0.
         66    2    3    3    0    0  0.20524309057E+02 -0.59883045080E+01 -0.36422895575E+02  0.42281608070E+02  0.20000014606E+01 0.  0.
        -13    1    3    3    0    0 -0.20524309057E+02  0.59883045080E+01  0.30980704897E+02  0.37642028281E+02  0.10566000000E+00 0.  1.
         13    1    4    4    0    0  0.85476285024E+01 -0.31178336998E+01 -0.14287130336E+02  0.16938597855E+02  0.10566000000E+00 0. -1.
        -13    1    4    4    0    0  0.46148605349E+01 -0.88573625805E+00 -0.78399417660E+01  0.91409691721E+01  0.10566000000E+00 0.  1.
         14    1    4    4    0    0  0.73618200194E+01 -0.19847345501E+01 -0.14295823472E+02  0.16202041044E+02  0.00000000000E+00 0. -1.
<mgrwt>
<rscale>  0 0.79738135E+02</rscale>
<asrwt>0</asrwt>
<pdfrwt beam="1">  1        2 0.65666020E-02 0.79738135E+02</pdfrwt>
<pdfrwt beam="2">  1       -1 0.57293420E-02 0.79738135E+02</pdfrwt>
<totfact> 0.14579192E+05</totfact>
</mgrwt>
</event>
<event>
 8    1  0.2433467E-024  0.7905809E+02  0.7818608E-02  0.1331746E+00
          2   -1    0    0  501    0  0.00000000000E+00  0.00000000000E+00  0.81345658571E+02  0.81345658611E+02  0.25500000000E-02 0. -1.
         -1   -1    0    0    0  501 -0.00000000000E+00 -0.00000000000E+00 -0.19208713166E+02  0.19208713828E+02  0.50400000000E-02 0.  1.
         24    2    1    2    0    0 -0.71054273576E-14  0.00000000000E+00  0.62136945405E+02  0.10055437244E+03  0.79058091505E+02 0.  0.
         66    2    3    3    0    0  0.33072166808E+02  0.20195731571E+02  0.40850095882E+02  0.56341513250E+02  0.19999976704E+01 0.  0.
        -13    1    3    3    0    0 -0.33072166808E+02 -0.20195731571E+02  0.21286849523E+02  0.44212859189E+02  0.10566000000E+00 0.  1.
         13    1    4    4    0    0  0.18086263887E+02  0.11721383454E+02  0.22887192280E+02  0.31437851485E+02  0.10566000000E+00 0. -1.
        -13    1    4    4    0    0  0.38359987925E+00  0.30245224779E+00  0.35656078728E+00  0.61394288022E+00  0.10566000000E+00 0.  1.
        -14    1    4    4    0    0  0.14602303041E+02  0.81718958686E+01  0.17606342815E+02  0.24289718885E+02  0.00000000000E+00 0.  1.
<mgrwt>
<rscale>  0 0.79058092E+02</rscale>
<asrwt>0</asrwt>
<pdfrwt beam="1">  1        2 0.12514717E-01 0.79058092E+02</pdfrwt>
<pdfrwt beam="2">  1       -1 0.29551867E-02 0.79058092E+02</pdfrwt>
<totfact> 0.17310909E+05</totfact>
</mgrwt>
</event>
<event>
 8    1  0.2433467E-024  0.8444417E+02  0.7818608E-02  0.1316893E+00
          2   -1    0    0  501    0  0.00000000000E+00  0.00000000000E+00  0.15384444108E+04  0.15384444108E+04  0.25500000000E-02 0. -1.
         -1   -1    0    0    0  501 -0.00000000000E+00 -0.00000000000E+00 -0.11587654099E+01  0.11587763705E+01  0.50400000000E-02 0.  1.
         24    2    1    2    0    0  0.35527136788E-14  0.00000000000E+00  0.15372856454E+04  0.15396031871E+04  0.84444173449E+02 0.  0.
         66    2    3    3    0    0 -0.19564294318E+02  0.13256790892E+02  0.14064689515E+04  0.14066689077E+04  0.19999998740E+01 0.  0.
        -13    1    3    3    0    0  0.19564294318E+02 -0.13256790892E+02  0.13081669382E+03  0.13293427949E+03  0.10566000000E+00 0.  1.
         13    1    4    4    0    0 -0.51965474599E+01  0.30645610941E+01  0.38624609138E+03  0.38629321754E+03  0.10566000000E+00 0. -1.
        -13    1    4    4    0    0 -0.79588617295E+01  0.57556114709E+01  0.53341491099E+03  0.53350534110E+03  0.10566000000E+00 0.  1.
        -14    1    4    4    0    0 -0.64088851291E+01  0.44366183266E+01  0.48680794916E+03  0.48687034903E+03  0.00000000000E+00 0.  1.
<mgrwt>
<rscale>  0 0.84444173E+02</rscale>
<asrwt>0</asrwt>
<pdfrwt beam="1">  1        2 0.23668388E+00 0.84444173E+02</pdfrwt>
<pdfrwt beam="2">  1       -1 0.17827235E-03 0.84444173E+02</pdfrwt>
<totfact> 0.28592646E+05</totfact>
</mgrwt>
</event>
<event>
 8    1  0.2433467E-024  0.8092509E+02  0.7818608E-02  0.1326446E+00
          2   -1    0    0  501    0  0.00000000000E+00  0.00000000000E+00  0.39322283142E+02  0.39322283225E+02  0.25500000000E-02 0. -1.
         -1   -1    0    0    0  501 -0.00000000000E+00 -0.00000000000E+00 -0.41635870416E+02  0.41635870721E+02  0.50400000000E-02 0.  1.
         24    2    1    2    0    0 -0.35527136788E-14  0.00000000000E+00 -0.23135872731E+01  0.80958153946E+02  0.80925088843E+02 0.  0.
         66    2    3    3    0    0  0.19542880220E+02  0.14363094379E+02  0.31212945558E+02  0.39578663674E+02  0.20000000859E+01 0.  0.
        -13    1    3    3    0    0 -0.19542880220E+02 -0.14363094379E+02 -0.33526532831E+02  0.41379490272E+02  0.10566000000E+00 0.  1.
         13    1    4    4    0    0  0.37057055610E+01  0.29229835453E+01  0.66689313241E+01  0.81707952827E+01  0.10566000000E+00 0. -1.
        -13    1    4    4    0    0  0.21103837233E+00  0.41721366297E-01  0.46030621689E+00  0.51896407960E+00  0.10566000000E+00 0.  1.
         14    1    4    4    0    0  0.15626136287E+02  0.11398389467E+02  0.24083708017E+02  0.30888904311E+02  0.00000000000E+00 0. -1.
<mgrwt>
<rscale>  0 0.80925089E+02</rscale>
<asrwt>0</asrwt>
<pdfrwt beam="1">  1        2 0.60495820E-02 0.80925089E+02</pdfrwt>
<pdfrwt beam="2">  1       -1 0.64055186E-02 0.80925089E+02</pdfrwt>
<totfact> 0.13760189E+05</totfact>
</mgrwt>
</event>
<event>
 8    1  0.2433467E-024  0.7964586E+02  0.7818608E-02  0.1330059E+00
         -1   -1    0    0    0  501 -0.00000000000E+00  0.00000000000E+00  0.77124886494E+02  0.77124886659E+02  0.50400000000E-02 0.  1.
          2   -1    0    0  501    0  0.00000000000E+00 -0.00000000000E+00 -0.20562309614E+02  0.20562309773E+02  0.25500000000E-02 0. -1.
         24    2    1    2    0    0  0.00000000000E+00  0.17763568394E-14  0.56562576880E+02  0.97687196431E+02  0.79645861433E+02 0.  0.
         66    2    3    3    0    0  0.35037624329E+02  0.13896093784E+02  0.43964194059E+02  0.57944688272E+02  0.19999996268E+01 0.  0.
        -13    1    3    3    0    0 -0.35037624329E+02 -0.13896093784E+02  0.12598382820E+02  0.39742508160E+02  0.10566000000E+00 0.  1.
         13    1    4    4    0    0  0.66409396417E+01  0.24159290053E+01  0.82440966745E+01  0.10858871318E+02  0.10566000000E+00 0. -1.
        -13    1    4    4    0    0  0.12736771553E+02  0.42745214248E+01  0.16053632727E+02  0.20933876152E+02  0.10566000000E+00 0.  1.
         14    1    4    4    0    0  0.15659913135E+02  0.72056433538E+01  0.19666464658E+02  0.26151940801E+02  0.00000000000E+00 0. -1.
<mgrwt>
<rscale>  0 0.79645861E+02</rscale>
<asrwt>0</asrwt>
<pdfrwt beam="1">  1        2 0.31634322E-02 0.79645861E+02</pdfrwt>
<pdfrwt beam="2">  1       -1 0.11865367E-01 0.79645861E+02</pdfrwt>
<totfact> 0.12645143E+05</totfact>
</mgrwt>
</event>
<event>
 8    1  0.2433467E-024  0.8111785E+02  0.7818608E-02  0.1325909E+00
          2   -1    0    0  501    0  0.00000000000E+00  0.00000000000E+00  0.71257604122E+03  0.71257604123E+03  0.25500000000E-02 0. -1.
         -1   -1    0    0    0  501 -0.00000000000E+00 -0.00000000000E+00 -0.23085598584E+01  0.23085653600E+01  0.50400000000E-02 0.  1.
         24    2    1    2    0    0 -0.17763568394E-14  0.00000000000E+00  0.71026748136E+03  0.71488460659E+03  0.81117850389E+02 0.  0.
         66    2    3    3    0    0 -0.12103918238E+02 -0.31012911907E+02  0.55913817201E+03  0.56013194958E+03  0.19999992364E+01 0.  0.
        -13    1    3    3    0    0  0.12103918238E+02  0.31012911907E+02  0.15112930936E+03  0.15475265701E+03  0.10566000000E+00 0.  1.
         13    1    4    4    0    0 -0.59984021280E+01 -0.13359686777E+02  0.25276368328E+03  0.25318758423E+03  0.10566000000E+00 0. -1.
        -13    1    4    4    0    0 -0.17516010908E+01 -0.56700932310E+01  0.92631574465E+02  0.92821537456E+02  0.10566000000E+00 0.  1.
         14    1    4    4    0    0 -0.43539150188E+01 -0.11983131900E+02  0.21374291426E+03  0.21412282789E+03  0.00000000000E+00 0. -1.
<mgrwt>
<rscale>  0 0.81117850E+02</rscale>
<asrwt>0</asrwt>
<pdfrwt beam="1">  1        2 0.10962704E+00 0.81117850E+02</pdfrwt>
<pdfrwt beam="2">  1       -1 0.35516363E-03 0.81117850E+02</pdfrwt>
<totfact> 0.32395670E+05</totfact>
</mgrwt>
</event>
<event>
 8    1  0.2433467E-024  0.7985152E+02  0.7818608E-02  0.1329473E+00
          2   -1    0    0  501    0  0.00000000000E+00  0.00000000000E+00  0.26819461396E+02  0.26819461517E+02  0.25500000000E-02 0. -1.
         -1   -1    0    0    0  501 -0.00000000000E+00 -0.00000000000E+00 -0.59436927946E+02  0.59436928160E+02  0.50400000000E-02 0.  1.
         24    2    1    2    0    0  0.00000000000E+00 -0.17763568394E-14 -0.32617466550E+02  0.86256389677E+02  0.79851522440E+02 0.  0.
         66    2    3    3    0    0 -0.19487594787E+02  0.14179602292E+02  0.18031630868E+02  0.30165662235E+02  0.19999986372E+01 0.  0.
        -13    1    3    3    0    0  0.19487594787E+02 -0.14179602292E+02 -0.50649097418E+02  0.56090727443E+02  0.10566000000E+00 0.  1.
         13    1    4    4    0    0 -0.81412482474E+01  0.67672149576E+01  0.72339431146E+01  0.12822488773E+02  0.10566000000E+00 0. -1.
        -13    1    4    4    0    0 -0.79107081318E+01  0.53054516852E+01  0.79668590110E+01  0.12418096765E+02  0.10566000000E+00 0.  1.
        -14    1    4    4    0    0 -0.34356384080E+01  0.21069356491E+01  0.28308287425E+01  0.49250766968E+01  0.00000000000E+00 0.  1.
<mgrwt>
<rscale>  0 0.79851522E+02</rscale>
<asrwt>0</asrwt>
<pdfrwt beam="1">  1        2 0.41260710E-02 0.79851522E+02</pdfrwt>
<pdfrwt beam="2">  1       -1 0.91441428E-02 0.79851522E+02</pdfrwt>
<totfact> 0.13230529E+05</totfact>
</mgrwt>
</event>
<event>
 8    1  0.2433467E-024  0.7961723E+02  0.7818608E-02  0.1330141E+00
         -1   -1    0    0    0  501 -0.00000000000E+00  0.00000000000E+00  0.77887767741E+01  0.77887784047E+01  0.50400000000E-02 0.  1.
          2   -1    0    0  501    0  0.00000000000E+00 -0.00000000000E+00 -0.20346270061E+03  0.20346270063E+03  0.25500000000E-02 0. -1.
         24    2    1    2    0    0  0.00000000000E+00  0.17763568394E-14 -0.19567392384E+03  0.21125147903E+03  0.79617227554E+02 0.  0.
         66    2    3    3    0    0 -0.28896120454E+02  0.10554083899E+02 -0.16483140118E+03  0.16768949065E+03  0.19999985380E+01 0.  0.
        -13    1    3    3    0    0  0.28896120454E+02 -0.10554083899E+02 -0.30842522658E+02  0.43561988386E+02  0.10566000000E+00 0.  1.
         13    1    4    4    0    0 -0.89501939613E+01  0.32655348340E+01 -0.49098764910E+02  0.50014693535E+02  0.10566000000E+00 0. -1.
        -13    1    4    4    0    0 -0.59521586388E+01  0.14740900788E+01 -0.32241737140E+02  0.32819840217E+02  0.10566000000E+00 0.  1.
         14    1    4    4    0    0 -0.13993767853E+02  0.58144589862E+01 -0.83490899131E+02  0.84854956895E+02  0.00000000000E+00 0. -1.
<mgrwt>
<rscale>  0 0.79617228E+02</rscale>
<asrwt>0</asrwt>
<pdfrwt beam="1">  1        2 0.31301950E-01 0.79617228E+02</pdfrwt>
<pdfrwt beam="2">  1       -1 0.11982736E-02 0.79617228E+02</pdfrwt>
<totfact> 0.22473117E+05</totfact>
</mgrwt>
</event>
<event>
 8    1  0.2433467E-024  0.7978292E+02  0.7818608E-02  0.1329669E+00
          2   -1    0    0  501    0  0.00000000000E+00  0.00000000000E+00  0.64356688804E+03  0.64356688804E+03  0.25500000000E-02 0. -1.
         -1   -1    0    0    0  501 -0.00000000000E+00 -0.00000000000E+00 -0.24726673937E+01  0.24726725302E+01  0.50400000000E-02 0.  1.
         24    2    1    2    0    0  0.00000000000E+00  0.71054273576E-14  0.64109422064E+03  0.64603956057E+03  0.79782918486E+02 0.  0.
         66    2    3    3    0    0 -0.46128845541E+01 -0.37555592634E+02  0.42240984210E+03  0.42410585464E+03  0.20000006121E+01 0.  0.
        -13    1    3    3    0    0  0.46128845541E+01  0.37555592634E+02  0.21868437855E+03  0.22193370593E+03  0.10566000000E+00 0.  1.
         13    1    4    4    0    0 -0.15943200983E+01 -0.94460211031E+01  0.10333038793E+03  0.10377354868E+03  0.10566000000E+00 0. -1.
        -13    1    4    4    0    0 -0.22337697877E+01 -0.24851272058E+02  0.28179718095E+03  0.28289969566E+03  0.10566000000E+00 0.  1.
        -14    1    4    4    0    0 -0.78479466813E+00 -0.32582994732E+01  0.37282273216E+02  0.37432610305E+02  0.00000000000E+00 0.  1.
<mgrwt>
<rscale>  0 0.79782918E+02</rscale>
<asrwt>0</asrwt>
<pdfrwt beam="1">  1        2 0.99010243E-01 0.79782918E+02</pdfrwt>
<pdfrwt beam="2">  1       -1 0.38041095E-03 0.79782918E+02</pdfrwt>
<totfact> 0.33006195E+05</totfact>
</mgrwt>
</event>
<event>
 8    1  0.2433467E-024  0.7878010E+02  0.7818608E-02  0.1332549E+00
         -1   -1    0    0    0  501 -0.00000000000E+00  0.00000000000E+00  0.38232102134E+03  0.38232102138E+03  0.50400000000E-02 0.  1.
          2   -1    0    0  501    0  0.00000000000E+00 -0.00000000000E+00 -0.40583068547E+01  0.40583076559E+01  0.25500000000E-02 0. -1.
         24    2    1    2    0    0  0.00000000000E+00  0.35527136788E-14  0.37826271449E+03  0.38637932903E+03  0.78780103651E+02 0.  0.
         66    2    3    3    0    0  0.35765557860E+02 -0.16174213568E+02  0.17471122944E+03  0.17907762006E+03  0.20000000294E+01 0.  0.
        -13    1    3    3    0    0 -0.35765557860E+02  0.16174213568E+02  0.20355148505E+03  0.20730170897E+03  0.10566000000E+00 0.  1.
         13    1    4    4    0    0  0.16569891405E+02 -0.71284638383E+01  0.79367725883E+02  0.81391789351E+02  0.10566000000E+00 0. -1.
        -13    1    4    4    0    0  0.10129467397E+02 -0.40294082351E+01  0.48739633732E+02  0.49944021672E+02  0.10566000000E+00 0.  1.
        -14    1    4    4    0    0  0.90661990587E+01 -0.50163414948E+01  0.46603869828E+02  0.47741809039E+02  0.00000000000E+00 0.  1.
<mgrwt>
<rscale>  0 0.78780104E+02</rscale>
<asrwt>0</asrwt>
<pdfrwt beam="1">  1        2 0.62435475E-03 0.78780104E+02</pdfrwt>
<pdfrwt beam="2">  1       -1 0.58818639E-01 0.78780104E+02</pdfrwt>
<totfact> 0.80671350E+04</totfact>
</mgrwt>
</event>
<event>
 8    1  0.2433467E-024  0.8348863E+02  0.7818608E-02  0.1319433E+00
          2   -1    0    0  501    0  0.00000000000E+00  0.00000000000E+00  0.23545477541E+03  0.23545477542E+03  0.25500000000E-02 0. -1.
         -1   -1    0    0    0  501 -0.00000000000E+00 -0.00000000000E+00 -0.74009440650E+01  0.74009457811E+01  0.50400000000E-02 0.  1.
         24    2    1    2    0    0  0.00000000000E+00  0.00000000000E+00  0.22805383134E+03  0.24285572120E+03  0.83488629949E+02 0.  0.
         66    2    3    3    0    0  0.11374789499E+02 -0.96275208134E+01  0.22744425586E+03  0.22794070396E+03  0.20000006806E+01 0.  0.
        -13    1    3    3    0    0 -0.11374789499E+02  0.96275208134E+01  0.60957548180E+00  0.14915017247E+02  0.10566000000E+00 0.  1.
         13    1    4    4    0    0  0.52574451321E+01 -0.47377044093E+01  0.98268929875E+02  0.98523501334E+02  0.10566000000E+00 0. -1.
        -13    1    4    4    0    0  0.24971735318E+01 -0.15774644095E+01  0.41973042460E+02  0.42076973834E+02  0.10566000000E+00 0.  1.
         14    1    4    4    0    0  0.36201708352E+01 -0.33123519947E+01  0.87202283525E+02  0.87340228787E+02  0.00000000000E+00 0. -1.
<mgrwt>
<rscale>  0 0.83488630E+02</rscale>
<asrwt>0</asrwt>
<pdfrwt beam="1">  1        2 0.36223806E-01 0.83488630E+02</pdfrwt>
<pdfrwt beam="2">  1       -1 0.11386071E-02 0.83488630E+02</pdfrwt>
<totfact> 0.20875583E+05</totfact>
</mgrwt>
</event>
<event>
 8    1  0.2433467E-024  0.7902300E+02  0.7818608E-02  0.1331847E+00
         -1   -1    0    0    0  501 -0.00000000000E+00  0.00000000000E+00  0.74015344502E+02  0.74015344674E+02  0.50400000000E-02 0.  1.
          2   -1    0    0  501    0  0.00000000000E+00 -0.00000000000E+00 -0.21092366935E+02  0.21092367089E+02  0.25500000000E-02 0. -1.
         24    2    1    2    0    0  0.00000000000E+00  0.00000000000E+00  0.52922977567E+02  0.95107711763E+02  0.79023004765E+02 0.  0.
         66    2    3    3    0    0 -0.32163921070E+02 -0.22397236155E+02  0.32250371655E+02  0.50796067636E+02  0.20000023551E+01 0.  0.
        -13    1    3    3    0    0  0.32163921070E+02  0.22397236155E+02  0.20672605912E+02  0.44311644127E+02  0.10566000000E+00 0.  1.
         13    1    4    4    0    0 -0.22699087280E+02 -0.15559140921E+02  0.22260193206E+02  0.35395801943E+02  0.10566000000E+00 0. -1.
        -13    1    4    4    0    0 -0.42440811890E+01 -0.29007975289E+01  0.37747352036E+01  0.63786081033E+01  0.10566000000E+00 0.  1.
        -14    1    4    4    0    0 -0.52207526004E+01 -0.39372977057E+01  0.62154432455E+01  0.90216575903E+01  0.00000000000E+00 0.  1.
<mgrwt>
<rscale>  0 0.79023005E+02</rscale>
<asrwt>0</asrwt>
<pdfrwt beam="1">  1        2 0.32449796E-02 0.79023005E+02</pdfrwt>
<pdfrwt beam="2">  1       -1 0.11386976E-01 0.79023005E+02</pdfrwt>
<totfact> 0.12998032E+05</totfact>
</mgrwt>
</event>
<event>
 8    1  0.2433467E-024  0.7944371E+02  0.7818608E-02  0.1330638E+00
         -1   -1    0    0    0  501 -0.00000000000E+00  0.00000000000E+00  0.65875648256E+01  0.65875667536E+01  0.50400000000E-02 0.  1.
          2   -1    0    0  501    0  0.00000000000E+00 -0.00000000000E+00 -0.23951573084E+03  0.23951573085E+03  0.25500000000E-02 0. -1.
         24    2    1    2    0    0 -0.71054273576E-14 -0.35527136788E-14 -0.23292816601E+03  0.24610329760E+03  0.79443706926E+02 0.  0.
         66    2    3    3    0    0  0.33145166727E+02  0.21795300395E+02 -0.12111524600E+03  0.12746191594E+03  0.20000014369E+01 0.  0.
        -13    1    3    3    0    0 -0.33145166727E+02 -0.21795300395E+02 -0.11181292001E+03  0.11864138166E+03  0.10566000000E+00 0.  1.
         13    1    4    4    0    0  0.18939374908E+02  0.12309052429E+02 -0.66348705497E+02  0.70088334114E+02  0.10566000000E+00 0. -1.
        -13    1    4    4    0    0  0.47041440629E+01  0.31893303466E+01 -0.19379691643E+02  0.20196148435E+02  0.10566000000E+00 0.  1.
         14    1    4    4    0    0  0.95016477568E+01  0.62969176194E+01 -0.35386848857E+02  0.37177433392E+02  0.00000000000E+00 0. -1.
<mgrwt>
<rscale>  0 0.79443707E+02</rscale>
<asrwt>0</asrwt>
<pdfrwt beam="1">  1        2 0.36848567E-01 0.79443707E+02</pdfrwt>
<pdfrwt beam="2">  1       -1 0.10134718E-02 0.79443707E+02</pdfrwt>
<totfact> 0.23940942E+05</totfact>
</mgrwt>
</event>
<event>
 8    1  0.2433467E-024  0.7897095E+02  0.7818608E-02  0.1331997E+00
          2   -1    0    0  501    0  0.00000000000E+00  0.00000000000E+00  0.16177039974E+03  0.16177039976E+03  0.25500000000E-02 0. -1.
         -1   -1    0    0    0  501 -0.00000000000E+00 -0.00000000000E+00 -0.96377492291E+01  0.96377505469E+01  0.50400000000E-02 0.  1.
         24    2    1    2    0    0  0.35527136788E-14 -0.35527136788E-14  0.15213265051E+03  0.17140815030E+03  0.78970948076E+02 0.  0.
         66    2    3    3    0    0 -0.20222924633E+02  0.30926034713E+02  0.10616799553E+03  0.11243233344E+03  0.20000058476E+01 0.  0.
        -13    1    3    3    0    0  0.20222924633E+02 -0.30926034713E+02  0.45964654974E+02  0.58975816863E+02  0.10566000000E+00 0.  1.
         13    1    4    4    0    0 -0.12941130799E+02  0.19955677799E+02  0.65470880366E+02  0.69657370628E+02  0.10566000000E+00 0. -1.
        -13    1    4    4    0    0 -0.27468694804E+01  0.43123619451E+01  0.15747675674E+02  0.16557240430E+02  0.10566000000E+00 0.  1.
         14    1    4    4    0    0 -0.45349243534E+01  0.66579949690E+01  0.24949439493E+02  0.26217722383E+02  0.00000000000E+00 0. -1.
<mgrwt>
<rscale>  0 0.78970948E+02</rscale>
<asrwt>0</asrwt>
<pdfrwt beam="1">  1        2 0.24887752E-01 0.78970948E+02</pdfrwt>
<pdfrwt beam="2">  1       -1 0.14827309E-02 0.78970948E+02</pdfrwt>
<totfact> 0.21244864E+05</totfact>
</mgrwt>
</event>
<event>
 8    1  0.2433467E-024  0.7906017E+02  0.7818608E-02  0.1331740E+00
         -1   -1    0    0    0  501 -0.00000000000E+00  0.00000000000E+00  0.11410941921E+02  0.11410943034E+02  0.50400000000E-02 0.  1.
          2   -1    0    0  501    0  0.00000000000E+00 -0.00000000000E+00 -0.13694115035E+03  0.13694115037E+03  0.25500000000E-02 0. -1.
         24    2    1    2    0    0  0.00000000000E+00  0.00000000000E+00 -0.12553020843E+03  0.14835209341E+03  0.79060169430E+02 0.  0.
         66    2    3    3    0    0 -0.86335158452E+01 -0.79536508983E+01 -0.13358532908E+03  0.13411501888E+03  0.19999961241E+01 0.  0.
        -13    1    3    3    0    0  0.86335158452E+01  0.79536508983E+01  0.80551206512E+01  0.14237074531E+02  0.10566000000E+00 0.  1.
         13    1    4    4    0    0 -0.54235317303E+01 -0.58663404462E+01 -0.95781061616E+02  0.96113742904E+02  0.10566000000E+00 0. -1.
        -13    1    4    4    0    0 -0.88678926421E+00 -0.33222682153E+00 -0.92719635185E+01  0.93207961776E+01  0.10566000000E+00 0. -1.
         14    1    4    4    0    0 -0.23231948507E+01 -0.17550836306E+01 -0.28532303943E+02  0.28680479793E+02  0.00000000000E+00 0. -1.
<mgrwt>
<rscale>  0 0.79060169E+02</rscale>
<asrwt>0</asrwt>
<pdfrwt beam="1">  1        2 0.21067868E-01 0.79060169E+02</pdfrwt>
<pdfrwt beam="2">  1       -1 0.17555297E-02 0.79060169E+02</pdfrwt>
<totfact> 0.20079133E+05</totfact>
</mgrwt>
</event>
<event>
 8    1  0.2433467E-024  0.8047939E+02  0.7818608E-02  0.1327696E+00
          2   -1    0    0  501    0  0.00000000000E+00  0.00000000000E+00  0.44601090615E+02  0.44601090688E+02  0.25500000000E-02 0. -1.
         -1   -1    0    0    0  501 -0.00000000000E+00 -0.00000000000E+00 -0.36304782441E+02  0.36304782791E+02  0.50400000000E-02 0.  1.
         24    2    1    2    0    0  0.00000000000E+00  0.00000000000E+00  0.82963081739E+01  0.80905873479E+02  0.80479386393E+02 0.  0.
         66    2    3    3    0    0 -0.20873719822E+02 -0.18014410679E+02  0.33580351268E+02  0.43495645325E+02  0.19999998991E+01 0.  0.
        -13    1    3    3    0    0  0.20873719822E+02  0.18014410679E+02 -0.25284043094E+02  0.37410228154E+02  0.10566000000E+00 0.  1.
         13    1    4    4    0    0 -0.37512122071E+01 -0.38998713924E+01  0.73734526006E+01  0.91465598554E+01  0.10566000000E+00 0. -1.
        -13    1    4    4    0    0 -0.50531493557E+01 -0.39858229221E+01  0.81159008244E+01  0.10358576785E+02  0.10566000000E+00 0.  1.
         14    1    4    4    0    0 -0.12069358259E+02 -0.10128716365E+02  0.18090997843E+02  0.23990508685E+02  0.00000000000E+00 0. -1.
<mgrwt>
<rscale>  0 0.80479386E+02</rscale>
<asrwt>0</asrwt>
<pdfrwt beam="1">  1        2 0.68617063E-02 0.80479386E+02</pdfrwt>
<pdfrwt beam="2">  1       -1 0.55853512E-02 0.80479386E+02</pdfrwt>
<totfact> 0.14343943E+05</totfact>
</mgrwt>
</event>
<event>
 8    1  0.2433467E-024  0.8475460E+02  0.7818608E-02  0.1316076E+00
         -1   -1    0    0    0  501 -0.00000000000E+00  0.00000000000E+00  0.29839146472E+01  0.29839189036E+01  0.50400000000E-02 0.  1.
          2   -1    0    0  501    0  0.00000000000E+00 -0.00000000000E+00 -0.60183841375E+03  0.60183841376E+03  0.25500000000E-02 0. -1.
         24    2    1    2    0    0 -0.88817841970E-15  0.00000000000E+00 -0.59885449910E+03  0.60482233266E+03  0.84754604520E+02 0.  0.
         66    2    3    3    0    0 -0.60172455530E+01 -0.23055714148E+02 -0.54946686863E+03  0.54998692068E+03  0.20000000646E+01 0.  0.
        -13    1    3    3    0    0  0.60172455530E+01  0.23055714148E+02 -0.49387630472E+02  0.54835411976E+02  0.10566000000E+00 0.  1.
         13    1    4    4    0    0 -0.24629122441E+01 -0.99975572730E+01 -0.25321978756E+03  0.25342906120E+03  0.10566000000E+00 0. -1.
        -13    1    4    4    0    0 -0.87835488436E+00 -0.33431606575E+01 -0.85794879018E+02  0.85864548332E+02  0.10566000000E+00 0.  1.
        -14    1    4    4    0    0 -0.26759784245E+01 -0.97149962176E+01 -0.21045220206E+03  0.21069331115E+03  0.00000000000E+00 0.  1.
<mgrwt>
<rscale>  0 0.84754605E+02</rscale>
<asrwt>0</asrwt>
<pdfrwt beam="1">  1        2 0.92590429E-01 0.84754605E+02</pdfrwt>
<pdfrwt beam="2">  1       -1 0.45906460E-03 0.84754605E+02</pdfrwt>
<totfact> 0.27688789E+05</totfact>
</mgrwt>
</event>
<event>
 8    1  0.2433467E-024  0.8281653E+02  0.7818608E-02  0.1321243E+00
          2   -1    0    0  501    0  0.00000000000E+00  0.00000000000E+00  0.14567250842E+04  0.14567250842E+04  0.25500000000E-02 0. -1.
         -1   -1    0    0    0  501 -0.00000000000E+00 -0.00000000000E+00 -0.11770488815E+01  0.11770596718E+01  0.50400000000E-02 0.  1.
         24    2    1    2    0    0  0.00000000000E+00  0.00000000000E+00  0.14555480353E+04  0.14579021438E+04  0.82816532122E+02 0.  0.
         66    2    3    3    0    0  0.83572865799E+01  0.14961337560E+02  0.13913223326E+04  0.13914293080E+04  0.19999995379E+01 0.  0.
        -13    1    3    3    0    0 -0.83572865799E+01 -0.14961337560E+02  0.64225702680E+02  0.66472835876E+02  0.10566000000E+00 0.  1.
         13    1    4    4    0    0  0.30351421784E+01  0.60524580824E+01  0.56223173965E+03  0.56227251806E+03  0.10566000000E+00 0. -1.
        -13    1    4    4    0    0  0.10824546613E+01  0.10660748564E+01  0.97875249690E+02  0.97887097667E+02  0.10566000000E+00 0.  1.
        -14    1    4    4    0    0  0.42396897401E+01  0.78428046207E+01  0.73121534326E+03  0.73126969223E+03  0.00000000000E+00 0.  1.
<mgrwt>
<rscale>  0 0.82816532E+02</rscale>
<asrwt>0</asrwt>
<pdfrwt beam="1">  1        2 0.22411179E+00 0.82816532E+02</pdfrwt>
<pdfrwt beam="2">  1       -1 0.18108508E-03 0.82816532E+02</pdfrwt>
<totfact> 0.30705159E+05</totfact>
</mgrwt>
</event>
<event>
 8    1  0.2717360E-024  0.8010274E+02  0.7818608E-02  0.1328760E+00
         -1   -1    0    0    0  501 -0.00000000000E+00  0.00000000000E+00  0.41846125571E+01  0.41846155922E+01  0.50400000000E-02 0.  1.
          2   -1    0    0  501    0  0.00000000000E+00 -0.00000000000E+00 -0.38333578059E+03  0.38333578060E+03  0.25500000000E-02 0. -1.
         24    2    1    2    0    0  0.00000000000E+00  0.00000000000E+00 -0.37915116803E+03  0.38752039619E+03  0.80102741795E+02 0.  0.
         66    2    3    3    0    0 -0.34073496296E+02  0.11614143849E+02 -0.27435007467E+03  0.27670897159E+03  0.20000004538E+01 0.  0.
        -13    1    3    3    0    0  0.34073496296E+02 -0.11614143849E+02 -0.10480109337E+03  0.11081142460E+03  0.10566000000E+00 0.  1.
         13    1    4    4    0    0 -0.23161075886E+02  0.83536990159E+01 -0.18445032334E+03  0.18608641183E+03  0.10566000000E+00 0. -1.
        -13    1    4    4    0    0 -0.31241870201E+01  0.13134514755E+01 -0.25572443203E+02  0.25796253889E+02  0.10566000000E+00 0.  1.
        -14    1    4    4    0    0 -0.77882333894E+01  0.19469933572E+01 -0.64327308119E+02  0.64826305866E+02  0.00000000000E+00 0.  1.
<mgrwt>
<rscale>  0 0.80102742E+02</rscale>
<asrwt>0</asrwt>
<pdfrwt beam="1">  1        2 0.58974708E-01 0.80102742E+02</pdfrwt>
<pdfrwt beam="2">  1       -1 0.64378708E-03 0.80102742E+02</pdfrwt>
<totfact> 0.27740990E+05</totfact>
</mgrwt>
</event>
<event>
 8    1  0.2433467E-024  0.8087307E+02  0.7818608E-02  0.1326592E+00
         -1   -1    0    0    0  501 -0.00000000000E+00  0.00000000000E+00  0.81460102056E+01  0.81460117648E+01  0.50400000000E-02 0.  1.
          2   -1    0    0  501    0  0.00000000000E+00 -0.00000000000E+00 -0.20072564933E+03  0.20072564935E+03  0.25500000000E-02 0. -1.
         24    2    1    2    0    0  0.00000000000E+00  0.00000000000E+00 -0.19257963913E+03  0.20887166112E+03  0.80873069746E+02 0.  0.
         66    2    3    3    0    0  0.33839634111E+02  0.10231393668E+02 -0.14691336496E+03  0.15112028006E+03  0.19999971616E+01 0.  0.
        -13    1    3    3    0    0 -0.33839634111E+02 -0.10231393668E+02 -0.45666274165E+02  0.57751381051E+02  0.10566000000E+00 0.  1.
         13    1    4    4    0    0  0.39931472578E+01  0.86385823127E+00 -0.19117485788E+02  0.19549447638E+02  0.10566000000E+00 0. -1.
        -13    1    4    4    0    0  0.20566231017E+02  0.67760017056E+01 -0.87901445395E+02  0.90529328529E+02  0.10566000000E+00 0.  1.
         14    1    4    4    0    0  0.92802558358E+01  0.25915337307E+01 -0.39894433780E+02  0.41041503896E+02  0.00000000000E+00 0. -1.
<mgrwt>
<rscale>  0 0.80873070E+02</rscale>
<asrwt>0</asrwt>
<pdfrwt beam="1">  1        2 0.30880865E-01 0.80873070E+02</pdfrwt>
<pdfrwt beam="2">  1       -1 0.12532326E-02 0.80873070E+02</pdfrwt>
<totfact> 0.21462425E+05</totfact>
</mgrwt>
</event>
<event>
 8    1  0.2433467E-024  0.8043807E+02  0.7818608E-02  0.1327813E+00
          2   -1    0    0  501    0  0.00000000000E+00  0.00000000000E+00  0.24070597120E+03  0.24070597122E+03  0.25500000000E-02 0. -1.
         -1   -1    0    0    0  501 -0.00000000000E+00 -0.00000000000E+00 -0.67201095587E+01  0.67201114487E+01  0.50400000000E-02 0.  1.
         24    2    1    2    0    0  0.00000000000E+00  0.88817841970E-15  0.23398586165E+03  0.24742608267E+03  0.80438068933E+02 0.  0.
         66    2    3    3    0    0  0.38719982152E+02  0.77818976200E+01  0.14003644836E+03  0.14551289231E+03  0.20000024696E+01 0.  0.
        -13    1    3    3    0    0 -0.38719982152E+02 -0.77818976200E+01  0.93949413285E+02  0.10191319036E+03  0.10566000000E+00 0.  1.
         13    1    4    4    0    0  0.18299473257E+02  0.36028065713E+01  0.63530168657E+02  0.66211361792E+02  0.10566000000E+00 0. -1.
        -13    1    4    4    0    0  0.52412952019E+01  0.13610395192E+01  0.18602185665E+02  0.19374624629E+02  0.10566000000E+00 0.  1.
         14    1    4    4    0    0  0.15179213693E+02  0.28180515295E+01  0.57904094038E+02  0.59926905887E+02  0.00000000000E+00 0. -1.
<mgrwt>
<rscale>  0 0.80438069E+02</rscale>
<asrwt>0</asrwt>
<pdfrwt beam="1">  1        2 0.37031690E-01 0.80438069E+02</pdfrwt>
<pdfrwt beam="2">  1       -1 0.10338631E-02 0.80438069E+02</pdfrwt>
<totfact> 0.23211290E+05</totfact>
</mgrwt>
</event>
<event>
 8    1  0.2433467E-024  0.8348837E+02  0.7818608E-02  0.1319434E+00
         -1   -1    0    0    0  501 -0.00000000000E+00  0.00000000000E+00  0.36546004238E+01  0.36546038991E+01  0.50400000000E-02 0.  1.
          2   -1    0    0  501    0  0.00000000000E+00 -0.00000000000E+00 -0.47681716708E+03  0.47681716708E+03  0.25500000000E-02 0. -1.
         24    2    1    2    0    0  0.00000000000E+00  0.22204460493E-15 -0.47316256665E+03  0.48047177098E+03  0.83488371823E+02 0.  0.
         66    2    3    3    0    0  0.39250212078E+02 -0.19428170275E+01 -0.31733089905E+03  0.31976124401E+03  0.19999990625E+01 0.  0.
        -13    1    3    3    0    0 -0.39250212078E+02  0.19428170275E+01 -0.15583166761E+03  0.16071052697E+03  0.10566000000E+00 0.  1.
         13    1    4    4    0    0  0.33980522707E+02 -0.12696004896E+01 -0.27164310331E+03  0.27376317238E+03  0.10566000000E+00 0. -1.
        -13    1    4    4    0    0  0.98310334722E+00 -0.22228522014E-01 -0.95684989735E+01  0.96194762301E+01  0.10566000000E+00 0.  1.
        -14    1    4    4    0    0  0.42865860240E+01 -0.65098801591E+00 -0.36119296762E+02  0.36378595406E+02  0.00000000000E+00 0.  1.
<mgrwt>
<rscale>  0 0.83488372E+02</rscale>
<asrwt>0</asrwt>
<pdfrwt beam="1">  1        2 0.73356438E-01 0.83488372E+02</pdfrwt>
<pdfrwt beam="2">  1       -1 0.56224687E-03 0.83488372E+02</pdfrwt>
<totfact> 0.26823690E+05</totfact>
</mgrwt>
</event>
<event>
 8    1  0.2433467E-024  0.7951090E+02  0.7818608E-02  0.1330445E+00
          2   -1    0    0  501    0  0.00000000000E+00  0.00000000000E+00  0.13930504533E+04  0.13930504533E+04  0.25500000000E-02 0. -1.
         -1   -1    0    0    0  501 -0.00000000000E+00 -0.00000000000E+00 -0.11345517648E+01  0.11345629593E+01  0.50400000000E-02 0.  1.
         24    2    1    2    0    0  0.88817841970E-15 -0.35527136788E-14  0.13919159016E+04  0.13941850163E+04  0.79510896249E+02 0.  0.
         66    2    3    3    0    0 -0.66246713202E+01  0.21461713756E+02  0.12710369349E+04  0.12712369494E+04  0.19999981430E+01 0.  0.
        -13    1    3    3    0    0  0.66246713202E+01 -0.21461713756E+02  0.12087896663E+03  0.12294806695E+03  0.10566000000E+00 0.  1.
         13    1    4    4    0    0 -0.20016287915E+01  0.57180166201E+01  0.29733513633E+03  0.29739686732E+03  0.10566000000E+00 0. -1.
        -13    1    4    4    0    0 -0.27208328871E+01  0.94369034721E+01  0.58916454205E+03  0.58924640588E+03  0.10566000000E+00 0.  1.
         14    1    4    4    0    0 -0.19022096416E+01  0.63067936638E+01  0.38453725657E+03  0.38459367616E+03  0.00000000000E+00 0. -1.
<mgrwt>
<rscale>  0 0.79510896E+02</rscale>
<asrwt>0</asrwt>
<pdfrwt beam="1">  1        2 0.21431494E+00 0.79510896E+02</pdfrwt>
<pdfrwt beam="2">  1       -1 0.17454770E-03 0.79510896E+02</pdfrwt>
<totfact> 0.34607959E+05</totfact>
</mgrwt>
</event>
<event>
 8    1  0.2433467E-024  0.7981261E+02  0.7818608E-02  0.1329584E+00
          2   -1    0    0  501    0  0.00000000000E+00  0.00000000000E+00  0.27154848444E+02  0.27154848564E+02  0.25500000000E-02 0. -1.
         -1   -1    0    0    0  501 -0.00000000000E+00 -0.00000000000E+00 -0.58645628439E+02  0.58645628656E+02  0.50400000000E-02 0.  1.
         24    2    1    2    0    0  0.00000000000E+00 -0.35527136788E-14 -0.31490779995E+02  0.85800477220E+02  0.79812609696E+02 0.  0.
         66    2    3    3    0    0 -0.21477027528E+02  0.23500337115E+02  0.10067259257E+02  0.33449638197E+02  0.20000076413E+01 0.  0.
        -13    1    3    3    0    0  0.21477027528E+02 -0.23500337115E+02 -0.41558039252E+02  0.52350839023E+02  0.10566000000E+00 0.  1.
         13    1    4    4    0    0 -0.13378397101E+02  0.13988004427E+02  0.56511785695E+01  0.20164145410E+02  0.10566000000E+00 0. -1.
        -13    1    4    4    0    0 -0.11895646800E+01  0.11079203419E+01  0.84163468365E+00  0.18335933541E+01  0.10566000000E+00 0.  1.
         14    1    4    4    0    0 -0.69090657464E+01  0.84044123467E+01  0.35744460038E+01  0.11451899433E+02  0.00000000000E+00 0. -1.
<mgrwt>
<rscale>  0 0.79812610E+02</rscale>
<asrwt>0</asrwt>
<pdfrwt beam="1">  1        2 0.41776690E-02 0.79812610E+02</pdfrwt>
<pdfrwt beam="2">  1       -1 0.90224044E-02 0.79812610E+02</pdfrwt>
<totfact> 0.13281143E+05</totfact>
</mgrwt>
</event>
<event>
 8    1  0.2433467E-024  0.7935700E+02  0.7818608E-02  0.1330886E+00
          2   -1    0    0  501    0  0.00000000000E+00  0.00000000000E+00  0.25313706206E+02  0.25313706334E+02  0.25500000000E-02 0. -1.
         -1   -1    0    0    0  501 -0.00000000000E+00 -0.00000000000E+00 -0.62194899546E+02  0.62194899750E+02  0.50400000000E-02 0.  1.
         24    2    1    2    0    0  0.00000000000E+00  0.00000000000E+00 -0.36881193340E+02  0.87508606084E+02  0.79357001686E+02 0.  0.
         66    2    3    3    0    0  0.17591381575E+02 -0.15878521561E+02  0.16606512248E+02  0.29006213263E+02  0.20000015430E+01 0.  0.
        -13    1    3    3    0    0 -0.17591381575E+02  0.15878521561E+02 -0.53487705588E+02  0.58502392821E+02  0.10566000000E+00 0.  1.
         13    1    4    4    0    0  0.81002287238E+01 -0.74555077810E+01  0.82221560976E+01  0.13740935797E+02  0.10566000000E+00 0. -1.
        -13    1    4    4    0    0  0.10912728303E+01 -0.70925772652E+00  0.48801125701E+00  0.13940021289E+01  0.10566000000E+00 0.  1.
        -14    1    4    4    0    0  0.83998800209E+01 -0.77137560535E+01  0.78963448931E+01  0.13871275338E+02  0.00000000000E+00 0.  1.
<mgrwt>
<rscale>  0 0.79357002E+02</rscale>
<asrwt>0</asrwt>
<pdfrwt beam="1">  1        2 0.38944164E-02 0.79357002E+02</pdfrwt>
<pdfrwt beam="2">  1       -1 0.95684461E-02 0.79357002E+02</pdfrwt>
<totfact> 0.13312687E+05</totfact>
</mgrwt>
</event>
<event>
 8    1  0.2433467E-024  0.7524471E+02  0.7818608E-02  0.1343115E+00
          2   -1    0    0  501    0  0.00000000000E+00  0.00000000000E+00  0.50449598189E+03  0.50449598190E+03  0.25500000000E-02 0. -1.
         -1   -1    0    0    0  501 -0.00000000000E+00 -0.00000000000E+00 -0.28056528111E+01  0.28056573379E+01  0.50400000000E-02 0.  1.
         24    2    1    2    0    0  0.00000000000E+00  0.00000000000E+00  0.50169032908E+03  0.50730163924E+03  0.75244713293E+02 0.  0.
         66    2    3    3    0    0  0.33599050283E+02 -0.95748060646E+01  0.34465200739E+03  0.34642398779E+03  0.20000069601E+01 0.  0.
        -13    1    3    3    0    0 -0.33599050283E+02  0.95748060646E+01  0.15703832170E+03  0.16087765145E+03  0.10566000000E+00 0.  1.
         13    1    4    4    0    0  0.89997452028E+01 -0.18844644587E+01  0.89187730314E+02  0.89660520981E+02  0.10566000000E+00 0. -1.
        -13    1    4    4    0    0  0.16659829467E+02 -0.53079469946E+01  0.16822743769E+03  0.16913369320E+03  0.10566000000E+00 0.  1.
        -14    1    4    4    0    0  0.79394756133E+01 -0.23823946114E+01  0.87236839386E+02  0.87629773612E+02  0.00000000000E+00 0.  1.
<mgrwt>
<rscale>  0 0.75244713E+02</rscale>
<asrwt>0</asrwt>
<pdfrwt beam="1">  1        2 0.77614782E-01 0.75244713E+02</pdfrwt>
<pdfrwt beam="2">  1       -1 0.43163916E-03 0.75244713E+02</pdfrwt>
<totfact> 0.35808361E+05</totfact>
</mgrwt>
</event>
<event>
 8    1  0.2433467E-024  0.7933831E+02  0.7818608E-02  0.1330940E+00
          2   -1    0    0  501    0  0.00000000000E+00  0.00000000000E+00  0.79869957164E+03  0.79869957164E+03  0.25500000000E-02 0. -1.
         -1   -1    0    0    0  501 -0.00000000000E+00 -0.00000000000E+00 -0.19702518183E+01  0.19702582646E+01  0.50400000000E-02 0.  1.
         24    2    1    2    0    0  0.00000000000E+00 -0.35527136788E-14  0.79672931982E+03  0.80066982990E+03  0.79338310180E+02 0.  0.
         66    2    3    3    0    0  0.11943241153E+02 -0.20812389334E+02  0.71708479241E+03  0.71748895188E+03  0.20000009714E+01 0.  0.
        -13    1    3    3    0    0 -0.11943241153E+02  0.20812389334E+02  0.79644527405E+02  0.83180878023E+02  0.10566000000E+00 0.  1.
         13    1    4    4    0    0  0.12873252243E+00 -0.24107542718E+00  0.15614677011E+02  0.15617425896E+02  0.10566000000E+00 0. -1.
        -13    1    4    4    0    0  0.79426918624E+00 -0.17327823915E+01  0.56943181712E+02  0.56975174470E+02  0.10566000000E+00 0.  1.
         14    1    4    4    0    0  0.11020239444E+02 -0.18838531516E+02  0.64452693369E+03  0.64489635152E+03  0.00000000000E+00 0. -1.
<mgrwt>
<rscale>  0 0.79338310E+02</rscale>
<asrwt>0</asrwt>
<pdfrwt beam="1">  1        2 0.12287690E+00 0.79338310E+02</pdfrwt>
<pdfrwt beam="2">  1       -1 0.30311607E-03 0.79338310E+02</pdfrwt>
<totfact> 0.35104957E+05</totfact>
</mgrwt>
</event>
<event>
 8    1  0.2433467E-024  0.7885168E+02  0.7818608E-02  0.1332342E+00
         -1   -1    0    0    0  501 -0.00000000000E+00  0.00000000000E+00  0.13131824307E+01  0.13131921024E+01  0.50400000000E-02 0.  1.
          2   -1    0    0  501    0  0.00000000000E+00 -0.00000000000E+00 -0.11836826471E+04  0.11836826472E+04  0.25500000000E-02 0. -1.
         24    2    1    2    0    0  0.17763568394E-14 -0.17763568394E-14 -0.11823694647E+04  0.11849958393E+04  0.78851683251E+02 0.  0.
         66    2    3    3    0    0  0.13843912818E+02 -0.89064533617E+01 -0.11295245845E+04  0.11296463012E+04  0.19999984537E+01 0.  0.
        -13    1    3    3    0    0 -0.13843912818E+02  0.89064533617E+01 -0.52844880265E+02  0.55349538099E+02  0.10566000000E+00 0.  1.
         13    1    4    4    0    0  0.77254049851E+01 -0.52033461306E+01 -0.67393112689E+03  0.67399549824E+03  0.10566000000E+00 0. -1.
        -13    1    4    4    0    0  0.47565086620E+01 -0.23429016785E+01 -0.33692839559E+03  0.33697012995E+03  0.10566000000E+00 0.  1.
         14    1    4    4    0    0  0.13619991710E+01 -0.13602055526E+01 -0.11866506197E+03  0.11868067296E+03  0.00000000000E+00 0. -1.
<mgrwt>
<rscale>  0 0.78851683E+02</rscale>
<asrwt>0</asrwt>
<pdfrwt beam="1">  1        2 0.18210417E+00 0.78851683E+02</pdfrwt>
<pdfrwt beam="2">  1       -1 0.20202976E-03 0.78851683E+02</pdfrwt>
<totfact> 0.36428887E+05</totfact>
</mgrwt>
</event>
<event>
 8    1  0.2433467E-024  0.7581095E+02  0.7818608E-02  0.1341378E+00
         -1   -1    0    0    0  501 -0.00000000000E+00  0.00000000000E+00  0.31057745887E+02  0.31057746296E+02  0.50400000000E-02 0.  1.
          2   -1    0    0  501    0  0.00000000000E+00 -0.00000000000E+00 -0.46263017018E+02  0.46263017088E+02  0.25500000000E-02 0. -1.
         24    2    1    2    0    0  0.00000000000E+00 -0.17763568394E-14 -0.15205271131E+02  0.77320763385E+02  0.75810950266E+02 0.  0.
         66    2    3    3    0    0  0.59254039200E+00 -0.12772224138E+02 -0.43973861957E+02  0.45838644719E+02  0.20000001706E+01 0.  0.
        -13    1    3    3    0    0 -0.59254039200E+00  0.12772224138E+02  0.28768590826E+02  0.31482118666E+02  0.10566000000E+00 0.  1.
         13    1    4    4    0    0 -0.40732996872E+00 -0.72336811099E+01 -0.23101549798E+02  0.24211254144E+02  0.10566000000E+00 0. -1.
        -13    1    4    4    0    0  0.56223665829E+00 -0.27352299234E+01 -0.91891244155E+01  0.96046220307E+01  0.10566000000E+00 0.  1.
         14    1    4    4    0    0  0.43763370243E+00 -0.28033131052E+01 -0.11683187743E+02  0.12022768544E+02  0.00000000000E+00 0. -1.
<mgrwt>
<rscale>  0 0.75810950E+02</rscale>
<asrwt>0</asrwt>
<pdfrwt beam="1">  1        2 0.71173873E-02 0.75810950E+02</pdfrwt>
<pdfrwt beam="2">  1       -1 0.47781148E-02 0.75810950E+02</pdfrwt>
<totfact> 0.17025709E+05</totfact>
</mgrwt>
</event>
<event>
 8    1  0.2433467E-024  0.7999536E+02  0.7818608E-02  0.1329065E+00
          2   -1    0    0  501    0  0.00000000000E+00  0.00000000000E+00  0.33770429733E+03  0.33770429734E+03  0.25500000000E-02 0. -1.
         -1   -1    0    0    0  501 -0.00000000000E+00 -0.00000000000E+00 -0.47373216247E+01  0.47373243057E+01  0.50400000000E-02 0.  1.
         24    2    1    2    0    0  0.22204460493E-15 -0.17763568394E-14  0.33296697570E+03  0.34244162164E+03  0.79995358145E+02 0.  0.
         66    2    3    3    0    0  0.15728058023E+01 -0.11135931959E+02  0.33078845606E+03  0.33098562712E+03  0.19999997986E+01 0.  0.
        -13    1    3    3    0    0 -0.15728058023E+01  0.11135931959E+02  0.21785196461E+01  0.11455994526E+02  0.10566000000E+00 0.  1.
         13    1    4    4    0    0  0.10144905845E+01 -0.92131553726E+01  0.26797273040E+03  0.26813300212E+03  0.10566000000E+00 0. -1.
        -13    1    4    4    0    0  0.59052169183E+00 -0.68456834118E+00  0.28642454679E+02  0.28656914065E+02  0.10566000000E+00 0.  1.
        -14    1    4    4    0    0 -0.32206474041E-01 -0.12382082452E+01  0.34173270977E+02  0.34195710933E+02  0.00000000000E+00 0.  1.
<mgrwt>
<rscale>  0 0.79995358E+02</rscale>
<asrwt>0</asrwt>
<pdfrwt beam="1">  1        2 0.51954523E-01 0.79995358E+02</pdfrwt>
<pdfrwt beam="2">  1       -1 0.72881870E-03 0.79995358E+02</pdfrwt>
<totfact> 0.26610849E+05</totfact>
</mgrwt>
</event>
<event>
 8    1  0.2433467E-024  0.7820072E+02  0.7818608E-02  0.1334236E+00
         -1   -1    0    0    0  501 -0.00000000000E+00  0.00000000000E+00  0.56781803354E+01  0.56781825722E+01  0.50400000000E-02 0.  1.
          2   -1    0    0  501    0  0.00000000000E+00 -0.00000000000E+00 -0.26924783086E+03  0.26924783087E+03  0.25500000000E-02 0. -1.
         24    2    1    2    0    0 -0.71054273576E-14  0.00000000000E+00 -0.26356965052E+03  0.27492601344E+03  0.78200717328E+02 0.  0.
         66    2    3    3    0    0  0.38368248122E+02 -0.53807602133E+01 -0.14971353347E+03  0.15465838854E+03  0.19999996237E+01 0.  0.
        -13    1    3    3    0    0 -0.38368248122E+02  0.53807602133E+01 -0.11385611705E+03  0.12026762490E+03  0.10566000000E+00 0.  1.
         13    1    4    4    0    0  0.18247218789E+02 -0.29789736816E+01 -0.70463622740E+02  0.72848943516E+02  0.10566000000E+00 0. -1.
        -13    1    4    4    0    0  0.10852942013E+02 -0.92705181706E+00 -0.44626880468E+02  0.45937080880E+02  0.10566000000E+00 0.  1.
        -14    1    4    4    0    0  0.92680873195E+01 -0.14747347146E+01 -0.34623030261E+02  0.35872364147E+02  0.00000000000E+00 0.  1.
<mgrwt>
<rscale>  0 0.78200717E+02</rscale>
<asrwt>0</asrwt>
<pdfrwt beam="1">  1        2 0.41422733E-01 0.78200717E+02</pdfrwt>
<pdfrwt beam="2">  1       -1 0.87356659E-03 0.78200717E+02</pdfrwt>
<totfact> 0.26022270E+05</totfact>
</mgrwt>
</event>
<event>
 8    1  0.2433467E-024  0.8108502E+02  0.7818608E-02  0.1326000E+00
          2   -1    0    0  501    0  0.00000000000E+00  0.00000000000E+00  0.62901285448E+02  0.62901285500E+02  0.25500000000E-02 0. -1.
         -1   -1    0    0    0  501 -0.00000000000E+00 -0.00000000000E+00 -0.26131346666E+02  0.26131347152E+02  0.50400000000E-02 0.  1.
         24    2    1    2    0    0  0.00000000000E+00  0.00000000000E+00  0.36769938783E+02  0.89032632652E+02  0.81085024998E+02 0.  0.
         66    2    3    3    0    0 -0.37397310684E+02  0.38892696859E+01  0.34975981624E+02  0.51390705079E+02  0.20000032311E+01 0.  0.
        -13    1    3    3    0    0  0.37397310684E+02 -0.38892696859E+01  0.17939571586E+01  0.37641927573E+02  0.10566000000E+00 0.  1.
         13    1    4    4    0    0 -0.40545594577E+01  0.24930509091E+00  0.33107435960E+01  0.52415448694E+01  0.10566000000E+00 0. -1.
        -13    1    4    4    0    0 -0.24219101101E+02  0.20152355556E+01  0.23116066090E+02  0.33540866238E+02  0.10566000000E+00 0.  1.
        -14    1    4    4    0    0 -0.91236501249E+01  0.16247290394E+01  0.85491719382E+01  0.12608293972E+02  0.00000000000E+00 0.  1.
<mgrwt>
<rscale>  0 0.81085025E+02</rscale>
<asrwt>0</asrwt>
<pdfrwt beam="1">  1        2 0.96771208E-02 0.81085025E+02</pdfrwt>
<pdfrwt beam="2">  1       -1 0.40202072E-02 0.81085025E+02</pdfrwt>
<totfact> 0.15172315E+05</totfact>
</mgrwt>
</event>
<event>
 8    1  0.2433467E-024  0.8744520E+02  0.7818608E-02  0.1309159E+00
         -1   -1    0    0    0  501 -0.00000000000E+00  0.00000000000E+00  0.24158812054E+02  0.24158812579E+02  0.50400000000E-02 0.  1.
          2   -1    0    0  501    0  0.00000000000E+00 -0.00000000000E+00 -0.79129127111E+02  0.79129127152E+02  0.25500000000E-02 0. -1.
         24    2    1    2    0    0  0.00000000000E+00  0.00000000000E+00 -0.54970315057E+02  0.10328793973E+03  0.87445199734E+02 0.  0.
         66    2    3    3    0    0 -0.20178897666E+02  0.85323640688E+01 -0.72160837635E+02  0.75439880946E+02  0.20000003375E+01 0.  0.
        -13    1    3    3    0    0  0.20178897666E+02 -0.85323640688E+01  0.17190522577E+02  0.27848058786E+02  0.10566000000E+00 0.  1.
         13    1    4    4    0    0 -0.15479377918E+02  0.57639107987E+01 -0.55579960105E+02  0.57982557185E+02  0.10566000000E+00 0. -1.
        -13    1    4    4    0    0 -0.15772167382E+01  0.81357377183E+00 -0.54840454764E+01  0.57650181045E+01  0.10566000000E+00 0. -1.
         14    1    4    4    0    0 -0.31223030098E+01  0.19548794983E+01 -0.11096832053E+02  0.11692305656E+02  0.00000000000E+00 0. -1.
<mgrwt>
<rscale>  0 0.87445200E+02</rscale>
<asrwt>0</asrwt>
<pdfrwt beam="1">  1        2 0.12173712E-01 0.87445200E+02</pdfrwt>
<pdfrwt beam="2">  1       -1 0.37167404E-02 0.87445200E+02</pdfrwt>
<totfact> 0.13079047E+05</totfact>
</mgrwt>
</event>
<event>
 8    1  0.2433467E-024  0.7786107E+02  0.7818608E-02  0.1335233E+00
         -1   -1    0    0    0  501 -0.00000000000E+00  0.00000000000E+00  0.30095197127E+01  0.30095239329E+01  0.50400000000E-02 0.  1.
          2   -1    0    0  501    0  0.00000000000E+00 -0.00000000000E+00 -0.50359712178E+03  0.50359712179E+03  0.25500000000E-02 0. -1.
         24    2    1    2    0    0  0.00000000000E+00 -0.35527136788E-14 -0.50058760207E+03  0.50660664572E+03  0.77861069499E+02 0.  0.
         66    2    3    3    0    0 -0.23949322493E+02  0.26606276380E+02 -0.34958836470E+03  0.35142209481E+03  0.19999995180E+01 0.  0.
        -13    1    3    3    0    0  0.23949322493E+02 -0.26606276380E+02 -0.15099923737E+03  0.15518455091E+03  0.10566000000E+00 0.  1.
         13    1    4    4    0    0 -0.48973439311E+01  0.48403517274E+01 -0.70189571413E+02  0.70526591309E+02  0.10566000000E+00 0. -1.
        -13    1    4    4    0    0 -0.18743071054E+02  0.21622343781E+02 -0.27648985028E+03  0.27796668314E+03  0.10566000000E+00 0.  1.
        -14    1    4    4    0    0 -0.30890750722E+00  0.14358087145E+00 -0.29089430039E+01  0.29288203623E+01  0.00000000000E+00 0.  1.
<mgrwt>
<rscale>  0 0.77861069E+02</rscale>
<asrwt>0</asrwt>
<pdfrwt beam="1">  1        2 0.77476414E-01 0.77861069E+02</pdfrwt>
<pdfrwt beam="2">  1       -1 0.46300376E-03 0.77861069E+02</pdfrwt>
<totfact> 0.32751216E+05</totfact>
</mgrwt>
</event>
<event>
 8    1  0.2433467E-024  0.8013882E+02  0.7818608E-02  0.1328658E+00
         -1   -1    0    0    0  501 -0.00000000000E+00  0.00000000000E+00  0.76518092262E+00  0.76519752086E+00  0.50400000000E-02 0.  1.
          2   -1    0    0  501    0  0.00000000000E+00 -0.00000000000E+00 -0.20982492260E+04  0.20982492260E+04  0.25500000000E-02 0. -1.
         24    2    1    2    0    0  0.00000000000E+00  0.00000000000E+00 -0.20974840451E+04  0.20990144235E+04  0.80138822059E+02 0.  0.
         66    2    3    3    0    0  0.58128156077E+01 -0.10609664578E+02 -0.20492365778E+04  0.20492732628E+04  0.20000017371E+01 0.  0.
        -13    1    3    3    0    0 -0.58128156077E+01  0.10609664578E+02 -0.48247467277E+02  0.49741160727E+02  0.10566000000E+00 0.  1.
         13    1    4    4    0    0  0.31092240967E+01 -0.66768109056E+01 -0.11700534490E+04  0.11700766350E+04  0.10566000000E+00 0. -1.
        -13    1    4    4    0    0  0.15095273424E+01 -0.16503755776E+01 -0.47641246423E+03  0.47641772601E+03  0.10566000000E+00 0.  1.
        -14    1    4    4    0    0  0.11940641686E+01 -0.22824780950E+01 -0.40277066458E+03  0.40277890180E+03  0.00000000000E+00 0.  1.
<mgrwt>
<rscale>  0 0.80138822E+02</rscale>
<asrwt>0</asrwt>
<pdfrwt beam="1">  1        2 0.32280297E+00 0.80138822E+02</pdfrwt>
<pdfrwt beam="2">  1       -1 0.11772310E-03 0.80138822E+02</pdfrwt>
<totfact> 0.26355531E+05</totfact>
</mgrwt>
</event>
<event>
 8    1  0.2433467E-024  0.7927052E+02  0.7818608E-02  0.1331134E+00
          2   -1    0    0  501    0  0.00000000000E+00  0.00000000000E+00  0.28774994390E+03  0.28774994392E+03  0.25500000000E-02 0. -1.
         -1   -1    0    0    0  501 -0.00000000000E+00 -0.00000000000E+00 -0.54594394076E+01  0.54594417340E+01  0.50400000000E-02 0.  1.
         24    2    1    2    0    0 -0.17763568394E-14  0.00000000000E+00  0.28229050450E+03  0.29320938565E+03  0.79270517243E+02 0.  0.
         66    2    3    3    0    0 -0.12128975541E+02 -0.20902066436E+02  0.25731852116E+03  0.25845856487E+03  0.19999985806E+01 0.  0.
        -13    1    3    3    0    0  0.12128975541E+02  0.20902066436E+02  0.24971983338E+02  0.34750820779E+02  0.10566000000E+00 0.  1.
         13    1    4    4    0    0 -0.46059405633E+01 -0.84656002035E+01  0.97478571457E+02  0.97953887787E+02  0.10566000000E+00 0. -1.
        -13    1    4    4    0    0 -0.75489342933E+01 -0.12156567512E+02  0.15704248132E+03  0.15769312174E+03  0.10566000000E+00 0.  1.
         14    1    4    4    0    0  0.25899315267E-01 -0.27989872117E+00  0.27974683833E+01  0.28115553390E+01  0.00000000000E+00 0. -1.
<mgrwt>
<rscale>  0 0.79270517E+02</rscale>
<asrwt>0</asrwt>
<pdfrwt beam="1">  1        2 0.44269226E-01 0.79270517E+02</pdfrwt>
<pdfrwt beam="2">  1       -1 0.83991387E-03 0.79270517E+02</pdfrwt>
<totfact> 0.25722866E+05</totfact>
</mgrwt>
</event>
<event>
 8    1  0.2433467E-024  0.7825101E+02  0.7818608E-02  0.1334089E+00
          2   -1    0    0  501    0  0.00000000000E+00  0.00000000000E+00  0.84339063099E+02  0.84339063137E+02  0.25500000000E-02 0. -1.
         -1   -1    0    0    0  501 -0.00000000000E+00 -0.00000000000E+00 -0.18150605349E+02  0.18150606048E+02  0.50400000000E-02 0.  1.
         24    2    1    2    0    0 -0.35527136788E-14 -0.35527136788E-14  0.66188457750E+02  0.10248966919E+03  0.78251008623E+02 0.  0.
         66    2    3    3    0    0  0.22425306580E+02  0.30567372402E+02  0.45647176672E+02  0.59371065044E+02  0.19999988722E+01 0.  0.
        -13    1    3    3    0    0 -0.22425306580E+02 -0.30567372402E+02  0.20541281078E+02  0.43118604142E+02  0.10566000000E+00 0.  1.
         13    1    4    4    0    0  0.10070439607E+02  0.13842898197E+02  0.19260503795E+02  0.25768541962E+02  0.10566000000E+00 0. -1.
        -13    1    4    4    0    0  0.62481946422E+01  0.79769406916E+01  0.12519081691E+02  0.16106212761E+02  0.10566000000E+00 0.  1.
         14    1    4    4    0    0  0.61066723314E+01  0.87475335135E+01  0.13867591186E+02  0.17496310321E+02  0.00000000000E+00 0. -1.
<mgrwt>
<rscale>  0 0.78251009E+02</rscale>
<asrwt>0</asrwt>
<pdfrwt beam="1">  1        2 0.12975240E-01 0.78251009E+02</pdfrwt>
<pdfrwt beam="2">  1       -1 0.27924009E-02 0.78251009E+02</pdfrwt>
<totfact> 0.17962138E+05</totfact>
</mgrwt>
</event>
<event>
 8    1  0.2433467E-024  0.8313440E+02  0.7818608E-02  0.1320385E+00
         -1   -1    0    0    0  501 -0.00000000000E+00  0.00000000000E+00  0.88708109343E+02  0.88708109486E+02  0.50400000000E-02 0.  1.
          2   -1    0    0  501    0  0.00000000000E+00 -0.00000000000E+00 -0.19477722295E+02  0.19477722462E+02  0.25500000000E-02 0. -1.
         24    2    1    2    0    0  0.00000000000E+00  0.00000000000E+00  0.69230387048E+02  0.10818583195E+03  0.83134395670E+02 0.  0.
         66    2    3    3    0    0  0.19184410415E+02 -0.65880738946E+01 -0.12544025613E+02  0.23933175903E+02  0.20000024028E+01 0.  0.
        -13    1    3    3    0    0 -0.19184410415E+02  0.65880738946E+01  0.81774412661E+02  0.84252656045E+02  0.10566000000E+00 0.  1.
         13    1    4    4    0    0  0.46899879103E+01 -0.14020866066E+01 -0.29371113110E+01  0.57096077221E+01  0.10566000000E+00 0. -1.
        -13    1    4    4    0    0  0.95327297460E+01 -0.25856350381E+01 -0.63754658100E+01  0.11756537470E+02  0.10566000000E+00 0.  1.
        -14    1    4    4    0    0  0.49616927585E+01 -0.26003522499E+01 -0.32314484920E+01  0.64670307104E+01  0.00000000000E+00 0.  1.
<mgrwt>
<rscale>  0 0.83134396E+02</rscale>
<asrwt>0</asrwt>
<pdfrwt beam="1">  1        2 0.29965726E-02 0.83134396E+02</pdfrwt>
<pdfrwt beam="2">  1       -1 0.13647402E-01 0.83134396E+02</pdfrwt>
<totfact> 0.11051320E+05</totfact>
</mgrwt>
</event>
<event>
 8    1  0.2433467E-024  0.7859192E+02  0.7818608E-02  0.1333096E+00
         -1   -1    0    0    0  501 -0.00000000000E+00  0.00000000000E+00  0.57951226523E+01  0.57951248440E+01  0.50400000000E-02 0.  1.
          2   -1    0    0  501    0  0.00000000000E+00 -0.00000000000E+00 -0.26646063826E+03  0.26646063827E+03  0.25500000000E-02 0. -1.
         24    2    1    2    0    0  0.00000000000E+00  0.35527136788E-14 -0.26066551560E+03  0.27225576311E+03  0.78591917669E+02 0.  0.
         66    2    3    3    0    0 -0.17403806789E+02  0.16633596702E+02 -0.23789546723E+03  0.23911884568E+03  0.20000001209E+01 0.  0.
        -13    1    3    3    0    0  0.17403806789E+02 -0.16633596702E+02 -0.22770048374E+02  0.33136917434E+02  0.10566000000E+00 0.  1.
         13    1    4    4    0    0 -0.26788841379E+01  0.20274783248E+01 -0.31021924132E+02  0.31203493867E+02  0.10566000000E+00 0. -1.
        -13    1    4    4    0    0 -0.65447035725E+01  0.65988066079E+01 -0.85857467510E+02  0.86359094974E+02  0.10566000000E+00 0.  1.
         14    1    4    4    0    0 -0.81802190787E+01  0.80073117690E+01 -0.12101607559E+03  0.12155625684E+03  0.00000000000E+00 0. -1.
<mgrwt>
<rscale>  0 0.78591918E+02</rscale>
<asrwt>0</asrwt>
<pdfrwt beam="1">  1        2 0.40993935E-01 0.78591918E+02</pdfrwt>
<pdfrwt beam="2">  1       -1 0.89155771E-03 0.78591918E+02</pdfrwt>
<totfact> 0.25587878E+05</totfact>
</mgrwt>
</event>
<event>
 8    1  0.2433467E-024  0.7926296E+02  0.7818608E-02  0.1331156E+00
         -1   -1    0    0    0  501 -0.00000000000E+00  0.00000000000E+00  0.11586821032E+01  0.11586930646E+01  0.50400000000E-02 0.  1.
          2   -1    0    0  501    0  0.00000000000E+00 -0.00000000000E+00 -0.13555459689E+04  0.13555459689E+04  0.25500000000E-02 0. -1.
         24    2    1    2    0    0  0.35527136788E-14 -0.17763568394E-14 -0.13543872868E+04  0.13567046620E+04  0.79262962133E+02 0.  0.
         66    2    3    3    0    0 -0.17524012283E+02  0.10421956408E+02 -0.12588142070E+04  0.12589809037E+04  0.19999957710E+01 0.  0.
        -13    1    3    3    0    0  0.17524012283E+02 -0.10421956408E+02 -0.95573079834E+02  0.97723758292E+02  0.10566000000E+00 0.  1.
         13    1    4    4    0    0 -0.39986712947E+01  0.16114161726E+01 -0.25741050632E+03  0.25744662740E+03  0.10566000000E+00 0. -1.
        -13    1    4    4    0    0 -0.10927852283E+01  0.82106584714E+00 -0.10101854596E+03  0.10102784824E+03  0.10566000000E+00 0.  1.
         14    1    4    4    0    0 -0.12432555760E+02  0.79894743881E+01 -0.90038515470E+03  0.90050642804E+03  0.00000000000E+00 0. -1.
<mgrwt>
<rscale>  0 0.79262962E+02</rscale>
<asrwt>0</asrwt>
<pdfrwt beam="1">  1        2 0.20854427E+00 0.79262962E+02</pdfrwt>
<pdfrwt beam="2">  1       -1 0.17826071E-03 0.79262962E+02</pdfrwt>
<totfact> 0.35137202E+05</totfact>
</mgrwt>
</event>
<event>
 8    1  0.2433467E-024  0.8815434E+02  0.7818608E-02  0.1307384E+00
          2   -1    0    0  501    0  0.00000000000E+00  0.00000000000E+00  0.33725406356E+02  0.33725406452E+02  0.25500000000E-02 0. -1.
         -1   -1    0    0    0  501 -0.00000000000E+00 -0.00000000000E+00 -0.57606331902E+02  0.57606332123E+02  0.50400000000E-02 0.  1.
         24    2    1    2    0    0  0.00000000000E+00  0.35527136788E-14 -0.23880925547E+02  0.91331738575E+02  0.88154341164E+02 0.  0.
         66    2    3    3    0    0  0.33522695508E+02  0.28054240903E+02 -0.17619377311E+02  0.47172597990E+02  0.19999993798E+01 0.  0.
        -13    1    3    3    0    0 -0.33522695508E+02 -0.28054240903E+02 -0.62615482356E+01  0.44159140584E+02  0.10566000000E+00 0.  1.
         13    1    4    4    0    0  0.46036559375E+01  0.35772156576E+01 -0.25030700693E+01  0.63456003388E+01  0.10566000000E+00 0. -1.
        -13    1    4    4    0    0  0.19184371561E+02  0.16467583758E+02 -0.10923344197E+02  0.27541823459E+02  0.10566000000E+00 0.  1.
        -14    1    4    4    0    0  0.97346680102E+01  0.80094414883E+01 -0.41929630453E+01  0.13285174192E+02  0.00000000000E+00 0.  1.
<mgrwt>
<rscale>  0 0.88154341E+02</rscale>
<asrwt>0</asrwt>
<pdfrwt beam="1">  1        2 0.51885241E-02 0.88154341E+02</pdfrwt>
<pdfrwt beam="2">  1       -1 0.88625126E-02 0.88154341E+02</pdfrwt>
<totfact> 0.10484893E+05</totfact>
</mgrwt>
</event>
<event>
 8    1  0.2602659E-024  0.7689161E+02  0.7818608E-02  0.1338111E+00
         -1   -1    0    0    0  501 -0.00000000000E+00  0.00000000000E+00  0.19559218833E+01  0.19559283768E+01  0.50400000000E-02 0.  1.
          2   -1    0    0  501    0  0.00000000000E+00 -0.00000000000E+00 -0.75569357513E+03  0.75569357514E+03  0.25500000000E-02 0. -1.
         24    2    1    2    0    0  0.00000000000E+00  0.35527136788E-14 -0.75373765325E+03  0.75764950352E+03  0.76891613643E+02 0.  0.
         66    2    3    3    0    0 -0.12190829189E+02  0.19513771622E+02 -0.68029504697E+03  0.68068697250E+03  0.19999992936E+01 0.  0.
        -13    1    3    3    0    0  0.12190829189E+02 -0.19513771622E+02 -0.73442606282E+02  0.76962531018E+02  0.10566000000E+00 0.  1.
         13    1    4    4    0    0 -0.86169134251E+01  0.13844536447E+02 -0.47876564695E+03  0.47904329475E+03  0.10566000000E+00 0. -1.
        -13    1    4    4    0    0 -0.20997145199E+01  0.41777185478E+01 -0.14491819717E+03  0.14499364527E+03  0.10566000000E+00 0.  1.
        -14    1    4    4    0    0 -0.14742012436E+01  0.14915166277E+01 -0.56611202854E+02  0.56650032478E+02  0.00000000000E+00 0.  1.
<mgrwt>
<rscale>  0 0.76891614E+02</rscale>
<asrwt>0</asrwt>
<pdfrwt beam="1">  1        2 0.11626032E+00 0.76891614E+02</pdfrwt>
<pdfrwt beam="2">  1       -1 0.30091216E-03 0.76891614E+02</pdfrwt>
<totfact> 0.37684523E+05</totfact>
</mgrwt>
</event>
<event>
 8    1  0.2433467E-024  0.8994084E+02  0.7818608E-02  0.1302995E+00
          2   -1    0    0  501    0  0.00000000000E+00  0.00000000000E+00  0.93464859522E+03  0.93464859522E+03  0.25500000000E-02 0. -1.
         -1   -1    0    0    0  501 -0.00000000000E+00 -0.00000000000E+00 -0.21637394591E+01  0.21637453289E+01  0.50400000000E-02 0.  1.
         24    2    1    2    0    0  0.00000000000E+00  0.00000000000E+00  0.93248485576E+03  0.93681234055E+03  0.89940842713E+02 0.  0.
         66    2    3    3    0    0 -0.38350816790E+02  0.55218963361E+01  0.70377535270E+03  0.70484397106E+03  0.19999982582E+01 0.  0.
        -13    1    3    3    0    0  0.38350816790E+02 -0.55218963361E+01  0.22870950306E+03  0.23196836949E+03  0.10566000000E+00 0.  1.
         13    1    4    4    0    0 -0.18932508519E+02  0.28842869059E+01  0.33854701784E+03  0.33908826792E+03  0.10566000000E+00 0. -1.
        -13    1    4    4    0    0 -0.15922137807E+02  0.17102551353E+01  0.30035910740E+03  0.30078571110E+03  0.10566000000E+00 0. -1.
         14    1    4    4    0    0 -0.34961704644E+01  0.92735429488E+00  0.64869227461E+02  0.64969992037E+02  0.00000000000E+00 0. -1.
<mgrwt>
<rscale>  0 0.89940843E+02</rscale>
<asrwt>0</asrwt>
<pdfrwt beam="1">  1        2 0.14379241E+00 0.89940843E+02</pdfrwt>
<pdfrwt beam="2">  1       -1 0.33288272E-03 0.89940843E+02</pdfrwt>
<totfact> 0.25832901E+05</totfact>
</mgrwt>
</event>
<event>
 8    1  0.2433467E-024  0.8111756E+02  0.7818608E-02  0.1325910E+00
          2   -1    0    0  501    0  0.00000000000E+00  0.00000000000E+00  0.52555421639E+03  0.52555421639E+03  0.25500000000E-02 0. -1.
         -1   -1    0    0    0  501 -0.00000000000E+00 -0.00000000000E+00 -0.31300550797E+01  0.31300591374E+01  0.50400000000E-02 0.  1.
         24    2    1    2    0    0 -0.35527136788E-14  0.00000000000E+00  0.52242416131E+03  0.52868427553E+03  0.81117562066E+02 0.  0.
         66    2    3    3    0    0  0.22447238929E+02 -0.56646184470E+01  0.47822261554E+03  0.47878683822E+03  0.20000008091E+01 0.  0.
        -13    1    3    3    0    0 -0.22447238929E+02  0.56646184470E+01  0.44201545768E+02  0.49897437309E+02  0.10566000000E+00 0.  1.
         13    1    4    4    0    0  0.91905278828E+01 -0.25216845848E+01  0.18663256360E+03  0.18687575995E+03  0.10566000000E+00 0.  1.
        -13    1    4    4    0    0  0.11239781521E+02 -0.22634412387E+01  0.25018646571E+03  0.25044906597E+03  0.10566000000E+00 0. -1.
        -14    1    4    4    0    0  0.20169295255E+01 -0.87949262352E+00  0.41403586228E+02  0.41462012306E+02  0.00000000000E+00 0.  1.
<mgrwt>
<rscale>  0 0.81117562E+02</rscale>
<asrwt>0</asrwt>
<pdfrwt beam="1">  1        2 0.80854527E-01 0.81117562E+02</pdfrwt>
<pdfrwt beam="2">  1       -1 0.48154706E-03 0.81117562E+02</pdfrwt>
<totfact> 0.29832969E+05</totfact>
</mgrwt>
</event>
<event>
 8    1  0.2433467E-024  0.7902245E+02  0.7818608E-02  0.1331849E+00
          2   -1    0    0  501    0  0.00000000000E+00  0.00000000000E+00  0.31643169462E+02  0.31643169565E+02  0.25500000000E-02 0. -1.
         -1   -1    0    0    0  501 -0.00000000000E+00 -0.00000000000E+00 -0.49335661560E+02  0.49335661817E+02  0.50400000000E-02 0.  1.
         24    2    1    2    0    0  0.00000000000E+00  0.00000000000E+00 -0.17692492098E+02  0.80978831382E+02  0.79022445263E+02 0.  0.
         66    2    3    3    0    0 -0.29775166663E+01  0.10811681949E+02  0.29945336414E+02  0.32038746160E+02  0.20000026230E+01 0.  0.
        -13    1    3    3    0    0  0.29775166663E+01 -0.10811681949E+02 -0.47637828513E+02  0.48940085222E+02  0.10566000000E+00 0.  1.
         13    1    4    4    0    0 -0.18821514664E+01  0.49660514084E+01  0.14987960663E+02  0.15901392694E+02  0.10566000000E+00 0. -1.
        -13    1    4    4    0    0  0.85909280532E-01  0.77918818705E+00  0.28913449100E+01  0.29975913764E+01  0.10566000000E+00 0.  1.
         14    1    4    4    0    0 -0.11812744804E+01  0.50664423535E+01  0.12066030841E+02  0.13139762090E+02  0.00000000000E+00 0. -1.
<mgrwt>
<rscale>  0 0.79022445E+02</rscale>
<asrwt>0</asrwt>
<pdfrwt beam="1">  1        2 0.48681799E-02 0.79022445E+02</pdfrwt>
<pdfrwt beam="2">  1       -1 0.75901018E-02 0.79022445E+02</pdfrwt>
<totfact> 0.14072824E+05</totfact>
</mgrwt>
</event>
<event>
 8    1  0.2433467E-024  0.7180777E+02  0.7818608E-02  0.1354051E+00
         -1   -1    0    0    0  501 -0.00000000000E+00  0.00000000000E+00  0.16963371820E+01  0.16963446691E+01  0.50400000000E-02 0.  1.
          2   -1    0    0  501    0  0.00000000000E+00 -0.00000000000E+00 -0.75992326911E+03  0.75992326912E+03  0.25500000000E-02 0. -1.
         24    2    1    2    0    0  0.17763568394E-14  0.00000000000E+00 -0.75822693193E+03  0.76161961379E+03  0.71807769765E+02 0.  0.
         66    2    3    3    0    0  0.13254937077E+02 -0.25283738799E+02 -0.60986613234E+03  0.61053718984E+03  0.20000010706E+01 0.  0.
        -13    1    3    3    0    0 -0.13254937077E+02  0.25283738799E+02 -0.14836079959E+03  0.15108242394E+03  0.10566000000E+00 0.  1.
         13    1    4    4    0    0  0.69799730452E+01 -0.12408735642E+02 -0.29996955840E+03  0.30030724912E+03  0.10566000000E+00 0. -1.
        -13    1    4    4    0    0  0.20295928489E+00 -0.16559612479E+00 -0.79440821337E+01  0.79491018065E+01  0.10566000000E+00 0. -1.
        -14    1    4    4    0    0  0.60720047468E+01 -0.12709407032E+02 -0.30195249181E+03  0.30228083892E+03  0.00000000000E+00 0.  1.
<mgrwt>
<rscale>  0 0.71807770E+02</rscale>
<asrwt>0</asrwt>
<pdfrwt beam="1">  1        2 0.11691100E+00 0.71807770E+02</pdfrwt>
<pdfrwt beam="2">  1       -1 0.26097613E-03 0.71807770E+02</pdfrwt>
<totfact> 0.45002381E+05</totfact>
</mgrwt>
</event>
<event>
 8    1  0.2433467E-024  0.8128971E+02  0.7818608E-02  0.1325431E+00
          2   -1    0    0  501    0  0.00000000000E+00  0.00000000000E+00  0.62710666969E+03  0.62710666970E+03  0.25500000000E-02 0. -1.
         -1   -1    0    0    0  501 -0.00000000000E+00 -0.00000000000E+00 -0.26343246286E+01  0.26343294499E+01  0.50400000000E-02 0.  1.
         24    2    1    2    0    0  0.00000000000E+00  0.00000000000E+00  0.62447234506E+03  0.62974099915E+03  0.81289705731E+02 0.  0.
         66    2    3    3    0    0  0.70171820244E+01 -0.80961656150E+01  0.61596075757E+03  0.61605717560E+03  0.19999990312E+01 0.  0.
        -13    1    3    3    0    0 -0.70171820244E+01  0.80961656150E+01  0.85115874887E+01  0.13683823546E+02  0.10566000000E+00 0.  1.
         13    1    4    4    0    0  0.18489262545E+01 -0.17737466078E+01  0.18327841202E+03  0.18329635071E+03  0.10566000000E+00 0. -1.
        -13    1    4    4    0    0  0.20043608760E+01 -0.16514332249E+01  0.13435665787E+03  0.13438179703E+03  0.10566000000E+00 0.  1.
        -14    1    4    4    0    0  0.31638948939E+01 -0.46709857823E+01  0.29832568767E+03  0.29837902786E+03  0.00000000000E+00 0.  1.
<mgrwt>
<rscale>  0 0.81289706E+02</rscale>
<asrwt>0</asrwt>
<pdfrwt beam="1">  1        2 0.96478080E-01 0.81289706E+02</pdfrwt>
<pdfrwt beam="2">  1       -1 0.40528053E-03 0.81289706E+02</pdfrwt>
<totfact> 0.31224946E+05</totfact>
</mgrwt>
</event>
<event>
 8    1  0.2433467E-024  0.7989963E+02  0.7818608E-02  0.1329337E+00
          2   -1    0    0  501    0  0.00000000000E+00  0.00000000000E+00  0.16249905916E+03  0.16249905918E+03  0.25500000000E-02 0. -1.
         -1   -1    0    0    0  501 -0.00000000000E+00 -0.00000000000E+00 -0.98215192874E+01  0.98215205806E+01  0.50400000000E-02 0.  1.
         24    2    1    2    0    0  0.00000000000E+00  0.00000000000E+00  0.15267753987E+03  0.17232057976E+03  0.79899630960E+02 0.  0.
         66    2    3    3    0    0 -0.12703124293E+02 -0.22157551521E+02  0.14256827062E+03  0.14485178028E+03  0.20000013834E+01 0.  0.
        -13    1    3    3    0    0  0.12703124293E+02  0.22157551521E+02  0.10109269252E+02  0.27468799484E+02  0.10566000000E+00 0.  1.
         13    1    4    4    0    0 -0.61480635479E+01 -0.10012029631E+02  0.63014734942E+02  0.64100759797E+02  0.10566000000E+00 0. -1.
        -13    1    4    4    0    0 -0.40470213277E+01 -0.86224315925E+01  0.55695748873E+02  0.56504445088E+02  0.10566000000E+00 0.  1.
        -14    1    4    4    0    0 -0.25080394174E+01 -0.35230902975E+01  0.23857786807E+02  0.24246575393E+02  0.00000000000E+00 0.  1.
<mgrwt>
<rscale>  0 0.79899631E+02</rscale>
<asrwt>0</asrwt>
<pdfrwt beam="1">  1        2 0.24999854E-01 0.79899631E+02</pdfrwt>
<pdfrwt beam="2">  1       -1 0.15110032E-02 0.79899631E+02</pdfrwt>
<totfact> 0.20627884E+05</totfact>
</mgrwt>
</event>
<event>
 8    1  0.2433467E-024  0.7885682E+02  0.7818608E-02  0.1332327E+00
         -1   -1    0    0    0  501 -0.00000000000E+00  0.00000000000E+00  0.29784158886E+01  0.29784201529E+01  0.50400000000E-02 0.  1.
          2   -1    0    0  501    0  0.00000000000E+00 -0.00000000000E+00 -0.52195476062E+03  0.52195476062E+03  0.25500000000E-02 0. -1.
         24    2    1    2    0    0  0.00000000000E+00  0.00000000000E+00 -0.51897634473E+03  0.52493318078E+03  0.78856818932E+02 0.  0.
         66    2    3    3    0    0 -0.23218866592E+02 -0.65874154334E+00 -0.47152932389E+03  0.47210534099E+03  0.19999986777E+01 0.  0.
        -13    1    3    3    0    0  0.23218866592E+02  0.65874154334E+00 -0.47447020839E+02  0.52827839789E+02  0.10566000000E+00 0.  1.
         13    1    4    4    0    0 -0.10620316599E+02 -0.83288872972E+00 -0.20838740236E+03  0.20865954437E+03  0.10566000000E+00 0. -1.
        -13    1    4    4    0    0 -0.36204188794E+01  0.25416980598E+00 -0.85663477430E+02  0.85740390509E+02  0.10566000000E+00 0.  1.
        -14    1    4    4    0    0 -0.89781311136E+01 -0.80022619596E-01 -0.17747844410E+03  0.17770540611E+03  0.00000000000E+00 0.  1.
<mgrwt>
<rscale>  0 0.78856819E+02</rscale>
<asrwt>0</asrwt>
<pdfrwt beam="1">  1        2 0.80300660E-01 0.78856819E+02</pdfrwt>
<pdfrwt beam="2">  1       -1 0.45821857E-03 0.78856819E+02</pdfrwt>
<totfact> 0.32044279E+05</totfact>
</mgrwt>
</event>
<event>
 8    1  0.2433467E-024  0.7843967E+02  0.7818608E-02  0.1333539E+00
          2   -1    0    0  501    0  0.00000000000E+00  0.00000000000E+00  0.12004269510E+03  0.12004269512E+03  0.25500000000E-02 0. -1.
         -1   -1    0    0    0  501 -0.00000000000E+00 -0.00000000000E+00 -0.12813735420E+02  0.12813736411E+02  0.50400000000E-02 0.  1.
         24    2    1    2    0    0  0.00000000000E+00 -0.35527136788E-14  0.10722895968E+03  0.13285643153E+03  0.78439668579E+02 0.  0.
         66    2    3    3    0    0  0.13686656661E+02  0.30865309633E+02  0.87362694437E+02  0.93681547133E+02  0.19999961231E+01 0.  0.
        -13    1    3    3    0    0 -0.13686656661E+02 -0.30865309633E+02  0.19866265238E+02  0.39174884401E+02  0.10566000000E+00 0.  1.
         13    1    4    4    0    0  0.15420184921E+01  0.34658032996E+01  0.99995007082E+01  0.10695363107E+02  0.10566000000E+00 0. -1.
        -13    1    4    4    0    0  0.23474930560E+01  0.48671479548E+01  0.15924084118E+02  0.16816285912E+02  0.10566000000E+00 0.  1.
        -14    1    4    4    0    0  0.97971451127E+01  0.22532358378E+02  0.61439109612E+02  0.66169898113E+02  0.00000000000E+00 0.  1.
<mgrwt>
<rscale>  0 0.78439669E+02</rscale>
<asrwt>0</asrwt>
<pdfrwt beam="1">  1        2 0.18468108E-01 0.78439669E+02</pdfrwt>
<pdfrwt beam="2">  1       -1 0.19713439E-02 0.78439669E+02</pdfrwt>
<totfact> 0.19695235E+05</totfact>
</mgrwt>
</event>
<event>
 8    1  0.2433467E-024  0.8092738E+02  0.7818608E-02  0.1326440E+00
         -1   -1    0    0    0  501 -0.00000000000E+00  0.00000000000E+00  0.14622559476E+02  0.14622560344E+02  0.50400000000E-02 0.  1.
          2   -1    0    0  501    0  0.00000000000E+00 -0.00000000000E+00 -0.11197152705E+03  0.11197152708E+03  0.25500000000E-02 0. -1.
         24    2    1    2    0    0 -0.35527136788E-14  0.35527136788E-14 -0.97348967574E+02  0.12659408742E+03  0.80927384011E+02 0.  0.
         66    2    3    3    0    0 -0.21782472411E+02  0.18887969460E+02 -0.93061510818E+02  0.97445760814E+02  0.20000025257E+01 0.  0.
        -13    1    3    3    0    0  0.21782472411E+02 -0.18887969460E+02 -0.42874567561E+01  0.29148326610E+02  0.10566000000E+00 0.  1.
         13    1    4    4    0    0 -0.15803397785E+02  0.12841778115E+02 -0.65472965200E+02  0.68566602533E+02  0.10566000000E+00 0. -1.
        -13    1    4    4    0    0 -0.54870379913E+00  0.31453323264E+00 -0.20839841544E+01  0.21804038628E+01  0.10566000000E+00 0. -1.
         14    1    4    4    0    0 -0.54303708270E+01  0.57316581121E+01 -0.25504561463E+02  0.26698754418E+02  0.00000000000E+00 0. -1.
<mgrwt>
<rscale>  0 0.80927384E+02</rscale>
<asrwt>0</asrwt>
<pdfrwt beam="1">  1        2 0.17226388E-01 0.80927384E+02</pdfrwt>
<pdfrwt beam="2">  1       -1 0.22496247E-02 0.80927384E+02</pdfrwt>
<totfact> 0.17752680E+05</totfact>
</mgrwt>
</event>
<event>
 8    1  0.2433467E-024  0.8035511E+02  0.7818608E-02  0.1328047E+00
          2   -1    0    0  501    0  0.00000000000E+00  0.00000000000E+00  0.55462793173E+02  0.55462793232E+02  0.25500000000E-02 0. -1.
         -1   -1    0    0    0  501 -0.00000000000E+00 -0.00000000000E+00 -0.29104841183E+02  0.29104841619E+02  0.50400000000E-02 0.  1.
         24    2    1    2    0    0 -0.44408920985E-15  0.00000000000E+00  0.26357951990E+02  0.84567634851E+02  0.80355107063E+02 0.  0.
         66    2    3    3    0    0  0.35666671787E+01 -0.39978174368E+02  0.12007976578E+02  0.41942425186E+02  0.19999971067E+01 0.  0.
        -13    1    3    3    0    0 -0.35666671787E+01  0.39978174368E+02  0.14349975412E+02  0.42625209665E+02  0.10566000000E+00 0.  1.
         13    1    4    4    0    0  0.21576560290E+01 -0.14615218433E+02  0.39646303511E+01  0.15296716878E+02  0.10566000000E+00 0. -1.
        -13    1    4    4    0    0  0.98317094745E+00 -0.16656227467E+02  0.53037791033E+01  0.17508220223E+02  0.10566000000E+00 0.  1.
         14    1    4    4    0    0  0.42584020221E+00 -0.87067284680E+01  0.27395671237E+01  0.91374880858E+01  0.00000000000E+00 0. -1.
<mgrwt>
<rscale>  0 0.80355107E+02</rscale>
<asrwt>0</asrwt>
<pdfrwt beam="1">  1        2 0.85327375E-02 0.80355107E+02</pdfrwt>
<pdfrwt beam="2">  1       -1 0.44776679E-02 0.80355107E+02</pdfrwt>
<totfact> 0.15105991E+05</totfact>
</mgrwt>
</event>
<event>
 8    1  0.2433467E-024  0.8139173E+02  0.7818608E-02  0.1325148E+00
         -1   -1    0    0    0  501 -0.00000000000E+00  0.00000000000E+00  0.51278652288E+03  0.51278652291E+03  0.50400000000E-02 0.  1.
          2   -1    0    0  501    0  0.00000000000E+00 -0.00000000000E+00 -0.32297125051E+01  0.32297135118E+01  0.25500000000E-02 0. -1.
         24    2    1    2    0    0  0.00000000000E+00  0.00000000000E+00  0.50955681038E+03  0.51601623642E+03  0.81391727135E+02 0.  0.
         66    2    3    3    0    0 -0.24790799138E+02 -0.28185954747E+02  0.35419070734E+03  0.35617985476E+03  0.19999998129E+01 0.  0.
        -13    1    3    3    0    0  0.24790799138E+02  0.28185954747E+02  0.15536610304E+03  0.15983638166E+03  0.10566000000E+00 0.  1.
         13    1    4    4    0    0 -0.17756057381E+02 -0.19888760845E+02  0.25659868550E+03  0.25798010959E+03  0.10566000000E+00 0. -1.
        -13    1    4    4    0    0 -0.58352158713E+01 -0.63808498814E+01  0.77385391090E+02  0.77867033510E+02  0.10566000000E+00 0.  1.
         14    1    4    4    0    0 -0.11995258852E+01 -0.19163440204E+01  0.20206630757E+02  0.20332711657E+02  0.00000000000E+00 0. -1.
<mgrwt>
<rscale>  0 0.81391727E+02</rscale>
<asrwt>0</asrwt>
<pdfrwt beam="1">  1        2 0.49687925E-03 0.81391727E+02</pdfrwt>
<pdfrwt beam="2">  1       -1 0.78890183E-01 0.81391727E+02</pdfrwt>
<totfact> 0.62872474E+04</totfact>
</mgrwt>
</event>
<event>
 8    1  0.2433467E-024  0.8171281E+02  0.7818608E-02  0.1324260E+00
         -1   -1    0    0    0  501 -0.00000000000E+00  0.00000000000E+00  0.30888863195E+01  0.30888904313E+01  0.50400000000E-02 0.  1.
          2   -1    0    0  501    0  0.00000000000E+00 -0.00000000000E+00 -0.54040338744E+03  0.54040338744E+03  0.25500000000E-02 0. -1.
         24    2    1    2    0    0  0.35527136788E-14  0.00000000000E+00 -0.53731450112E+03  0.54349227787E+03  0.81712808040E+02 0.  0.
         66    2    3    3    0    0  0.27714389078E+02  0.20001710598E+02 -0.41740805745E+03  0.41880979239E+03  0.19999977628E+01 0.  0.
        -13    1    3    3    0    0 -0.27714389078E+02 -0.20001710598E+02 -0.11990644367E+03  0.12468248548E+03  0.10566000000E+00 0.  1.
         13    1    4    4    0    0  0.94449595124E+00  0.87506688879E+00 -0.18845941505E+02  0.18890169134E+02  0.10566000000E+00 0.  1.
        -13    1    4    4    0    0  0.16313923185E+02  0.12356832189E+02 -0.24600569832E+03  0.24685552487E+03  0.10566000000E+00 0. -1.
        -14    1    4    4    0    0  0.10455969942E+02  0.67698115206E+01 -0.15255641763E+03  0.15306409839E+03  0.00000000000E+00 0.  1.
<mgrwt>
<rscale>  0 0.81712808E+02</rscale>
<asrwt>0</asrwt>
<pdfrwt beam="1">  1        2 0.83138908E-01 0.81712808E+02</pdfrwt>
<pdfrwt beam="2">  1       -1 0.47521403E-03 0.81712808E+02</pdfrwt>
<totfact> 0.29520360E+05</totfact>
</mgrwt>
</event>
<event>
 8    1  0.2433467E-024  0.8271274E+02  0.7818608E-02  0.1321525E+00
          2   -1    0    0  501    0  0.00000000000E+00  0.00000000000E+00  0.71422300850E+03  0.71422300850E+03  0.25500000000E-02 0. -1.
         -1   -1    0    0    0  501 -0.00000000000E+00 -0.00000000000E+00 -0.23946968062E+01  0.23947021099E+01  0.50400000000E-02 0.  1.
         24    2    1    2    0    0  0.00000000000E+00  0.00000000000E+00  0.71182831169E+03  0.71661771061E+03  0.82712742896E+02 0.  0.
         66    2    3    3    0    0  0.10415511051E+02 -0.30343628265E+02  0.58190414633E+03  0.58279126122E+03  0.19999992398E+01 0.  0.
        -13    1    3    3    0    0 -0.10415511051E+02  0.30343628265E+02  0.12992416536E+03  0.13382644939E+03  0.10566000000E+00 0.  1.
         13    1    4    4    0    0  0.75092776644E+01 -0.20630085954E+02  0.40212664665E+03  0.40272551546E+03  0.10566000000E+00 0. -1.
        -13    1    4    4    0    0  0.14542075096E+00 -0.12141529661E+01  0.25719630602E+02  0.25748900500E+02  0.10566000000E+00 0.  1.
        -14    1    4    4    0    0  0.27608126355E+01 -0.84993893451E+01  0.15405786908E+03  0.15431684526E+03  0.00000000000E+00 0.  1.
<mgrwt>
<rscale>  0 0.82712743E+02</rscale>
<asrwt>0</asrwt>
<pdfrwt beam="1">  1        2 0.10988043E+00 0.82712743E+02</pdfrwt>
<pdfrwt beam="2">  1       -1 0.36841542E-03 0.82712743E+02</pdfrwt>
<totfact> 0.30809089E+05</totfact>
</mgrwt>
</event>
<event>
 8    1  0.2433467E-024  0.7905201E+02  0.7818608E-02  0.1331763E+00
         -1   -1    0    0    0  501 -0.00000000000E+00  0.00000000000E+00  0.19604120607E+02  0.19604121255E+02  0.50400000000E-02 0.  1.
          2   -1    0    0  501    0  0.00000000000E+00 -0.00000000000E+00 -0.79692694377E+02  0.79692694418E+02  0.25500000000E-02 0. -1.
         24    2    1    2    0    0 -0.88817841970E-15 -0.71054273576E-14 -0.60088573770E+02  0.99296815672E+02  0.79052013921E+02 0.  0.
         66    2    3    3    0    0  0.79967102357E+01  0.35247252251E+02 -0.50081693318E+02  0.61793949298E+02  0.19999996017E+01 0.  0.
        -13    1    3    3    0    0 -0.79967102357E+01 -0.35247252251E+02 -0.10006880452E+02  0.37502866374E+02  0.10566000000E+00 0.  1.
         13    1    4    4    0    0  0.19240809704E+01  0.82324933870E+01 -0.11466750325E+02  0.14246879026E+02  0.10566000000E+00 0. -1.
        -13    1    4    4    0    0  0.27720832279E+01  0.12590175648E+02 -0.19439702376E+02  0.23326169012E+02  0.10566000000E+00 0.  1.
        -14    1    4    4    0    0  0.33005460375E+01  0.14424583216E+02 -0.19175240617E+02  0.24220901260E+02  0.00000000000E+00 0.  1.
<mgrwt>
<rscale>  0 0.79052014E+02</rscale>
<asrwt>0</asrwt>
<pdfrwt beam="1">  1        2 0.12260414E-01 0.79052014E+02</pdfrwt>
<pdfrwt beam="2">  1       -1 0.30160187E-02 0.79052014E+02</pdfrwt>
<totfact> 0.17223530E+05</totfact>
</mgrwt>
</event>
<event>
 8    1  0.2433467E-024  0.8521243E+02  0.7818608E-02  0.1314878E+00
          2   -1    0    0  501    0  0.00000000000E+00  0.00000000000E+00  0.38770732126E+02  0.38770732210E+02  0.25500000000E-02 0. -1.
         -1   -1    0    0    0  501 -0.00000000000E+00 -0.00000000000E+00 -0.46821129848E+02  0.46821130120E+02  0.50400000000E-02 0.  1.
         24    2    1    2    0    0  0.00000000000E+00  0.00000000000E+00 -0.80503977222E+01  0.85591862330E+02  0.85212428633E+02 0.  0.
         66    2    3    3    0    0  0.42293931557E+02 -0.43530923610E+01 -0.16592855082E+01  0.42596705172E+02  0.20000008782E+01 0.  0.
        -13    1    3    3    0    0 -0.42293931557E+02  0.43530923610E+01 -0.63911122140E+01  0.42995157157E+02  0.10566000000E+00 0.  1.
         13    1    4    4    0    0  0.26558255303E+02 -0.27156140867E+01 -0.56265818894E+00  0.26702869376E+02  0.10566000000E+00 0. -1.
        -13    1    4    4    0    0  0.16369918232E+01 -0.34979321060E+00  0.13676005715E+00  0.16828442793E+01  0.10566000000E+00 0.  1.
         14    1    4    4    0    0  0.14098684430E+02 -0.12876850637E+01 -0.12333873764E+01  0.14210991517E+02  0.00000000000E+00 0. -1.
<mgrwt>
<rscale>  0 0.85212429E+02</rscale>
<asrwt>0</asrwt>
<pdfrwt beam="1">  1        2 0.59647280E-02 0.85212429E+02</pdfrwt>
<pdfrwt beam="2">  1       -1 0.72032508E-02 0.85212429E+02</pdfrwt>
<totfact> 0.11883001E+05</totfact>
</mgrwt>
</event>
<event>
 8    1  0.2433467E-024  0.7890444E+02  0.7818608E-02  0.1332190E+00
         -1   -1    0    0    0  501 -0.00000000000E+00  0.00000000000E+00  0.59091802074E+02  0.59091802289E+02  0.50400000000E-02 0.  1.
          2   -1    0    0  501    0  0.00000000000E+00 -0.00000000000E+00 -0.26339994968E+02  0.26339995091E+02  0.25500000000E-02 0. -1.
         24    2    1    2    0    0 -0.88817841970E-15  0.17763568394E-14  0.32751807107E+02  0.85431797380E+02  0.78904443062E+02 0.  0.
         66    2    3    3    0    0 -0.76813584051E+01  0.14768816947E+02 -0.22310249944E+02  0.27908215158E+02  0.19999999356E+01 0.  0.
        -13    1    3    3    0    0  0.76813584051E+01 -0.14768816947E+02  0.55062057051E+02  0.57523582223E+02  0.10566000000E+00 0.  1.
         13    1    4    4    0    0 -0.36609117196E+01  0.62050134990E+01 -0.94801921972E+01  0.11907546988E+02  0.10566000000E+00 0. -1.
        -13    1    4    4    0    0 -0.33260930588E+00  0.19369853528E+01 -0.23715835235E+01  0.30819009802E+01  0.10566000000E+00 0.  1.
        -14    1    4    4    0    0 -0.36878373797E+01  0.66268180954E+01 -0.10458474224E+02  0.12918767189E+02  0.00000000000E+00 0.  1.
<mgrwt>
<rscale>  0 0.78904443E+02</rscale>
<asrwt>0</asrwt>
<pdfrwt beam="1">  1        2 0.40523070E-02 0.78904443E+02</pdfrwt>
<pdfrwt beam="2">  1       -1 0.90910465E-02 0.78904443E+02</pdfrwt>
<totfact> 0.13634652E+05</totfact>
</mgrwt>
</event>
<event>
 8    1  0.2433467E-024  0.7913699E+02  0.7818608E-02  0.1331519E+00
          2   -1    0    0  501    0  0.00000000000E+00  0.00000000000E+00  0.29452482888E+03  0.29452482889E+03  0.25500000000E-02 0. -1.
         -1   -1    0    0    0  501 -0.00000000000E+00 -0.00000000000E+00 -0.53159033591E+01  0.53159057483E+01  0.50400000000E-02 0.  1.
         24    2    1    2    0    0  0.71054273576E-14  0.44408920985E-15  0.28920892552E+03  0.29984073464E+03  0.79136992286E+02 0.  0.
         66    2    3    3    0    0 -0.36584903201E+02 -0.31209925456E+01  0.20031255369E+03  0.20365980189E+03  0.20000003750E+01 0.  0.
        -13    1    3    3    0    0  0.36584903201E+02  0.31209925456E+01  0.88896371828E+02  0.96180932751E+02  0.10566000000E+00 0.  1.
         13    1    4    4    0    0 -0.59353540093E+01 -0.60156832717E+00  0.30802059347E+02  0.31374644790E+02  0.10566000000E+00 0. -1.
        -13    1    4    4    0    0 -0.54310987530E+00  0.13088885751E+00  0.35332039427E+01  0.35786581796E+01  0.10566000000E+00 0.  1.
        -14    1    4    4    0    0 -0.30106439316E+02 -0.26503130760E+01  0.16597729040E+03  0.16870649892E+03  0.00000000000E+00 0.  1.
<mgrwt>
<rscale>  0 0.79136992E+02</rscale>
<asrwt>0</asrwt>
<pdfrwt beam="1">  1        2 0.45311530E-01 0.79136992E+02</pdfrwt>
<pdfrwt beam="2">  1       -1 0.81783116E-03 0.79136992E+02</pdfrwt>
<totfact> 0.26055279E+05</totfact>
</mgrwt>
</event>
<event>
 8    1  0.2433467E-024  0.7919948E+02  0.7818608E-02  0.1331339E+00
         -1   -1    0    0    0  501 -0.00000000000E+00  0.00000000000E+00  0.39598383768E+02  0.39598384089E+02  0.50400000000E-02 0.  1.
          2   -1    0    0  501    0  0.00000000000E+00 -0.00000000000E+00 -0.39601095944E+02  0.39601096026E+02  0.25500000000E-02 0. -1.
         24    2    1    2    0    0 -0.35527136788E-14 -0.22204460493E-15 -0.27121763012E-02  0.79199480115E+02  0.79199480069E+02 0.  0.
         66    2    3    3    0    0 -0.31648524004E+02 -0.17658427776E+01 -0.23694967689E+02  0.39625733671E+02  0.20000007160E+01 0.  0.
        -13    1    3    3    0    0  0.31648524004E+02  0.17658427776E+01  0.23692255513E+02  0.39573746444E+02  0.10566000000E+00 0.  1.
         13    1    4    4    0    0 -0.21470393752E+02 -0.59120289108E+00 -0.15511551163E+02  0.26494276971E+02  0.10566000000E+00 0. -1.
        -13    1    4    4    0    0 -0.15187466783E+01 -0.21477496850E+00 -0.94704005213E+00  0.18057598555E+01  0.10566000000E+00 0.  1.
         14    1    4    4    0    0 -0.86593835734E+01 -0.95986491806E+00 -0.72363764742E+01  0.11325696844E+02  0.00000000000E+00 0. -1.
<mgrwt>
<rscale>  0 0.79199480E+02</rscale>
<asrwt>0</asrwt>
<pdfrwt beam="1">  1        2 0.60924763E-02 0.79199480E+02</pdfrwt>
<pdfrwt beam="2">  1       -1 0.60920591E-02 0.79199480E+02</pdfrwt>
<totfact> 0.14626868E+05</totfact>
</mgrwt>
</event>
<event>
 8    1  0.2433467E-024  0.7729894E+02  0.7818608E-02  0.1336896E+00
          2   -1    0    0  501    0  0.00000000000E+00  0.00000000000E+00  0.19800434676E+02  0.19800434840E+02  0.25500000000E-02 0. -1.
         -1   -1    0    0    0  501 -0.00000000000E+00 -0.00000000000E+00 -0.75441862641E+02  0.75441862809E+02  0.50400000000E-02 0.  1.
         24    2    1    2    0    0  0.00000000000E+00  0.00000000000E+00 -0.55641427965E+02  0.95242297649E+02  0.77298944077E+02 0.  0.
         66    2    3    3    0    0  0.36357392447E+02 -0.77292762473E+01 -0.14906323030E+02  0.40097382788E+02  0.19999858439E+01 0.  0.
        -13    1    3    3    0    0 -0.36357392447E+02  0.77292762473E+01 -0.40735104935E+02  0.55144914860E+02  0.10566000000E+00 0.  1.
         13    1    4    4    0    0  0.48642836164E+01 -0.10196611760E+01 -0.24289350090E+01  0.55327979656E+01  0.10566000000E+00 0. -1.
        -13    1    4    4    0    0  0.24233029403E+02 -0.57160327058E+01 -0.99591320294E+01  0.26816193219E+02  0.10566000000E+00 0.  1.
        -14    1    4    4    0    0  0.72600794275E+01 -0.99358236558E+00 -0.25182559914E+01  0.77483916040E+01  0.00000000000E+00 0.  1.
<mgrwt>
<rscale>  0 0.77298944E+02</rscale>
<asrwt>0</asrwt>
<pdfrwt beam="1">  1        2 0.30462208E-02 0.77298944E+02</pdfrwt>
<pdfrwt beam="2">  1       -1 0.11606440E-01 0.77298944E+02</pdfrwt>
<totfact> 0.13671424E+05</totfact>
</mgrwt>
</event>
<event>
 8    1  0.2433467E-024  0.7921652E+02  0.7818608E-02  0.1331290E+00
          2   -1    0    0  501    0  0.00000000000E+00  0.00000000000E+00  0.29758439139E+03  0.29758439140E+03  0.25500000000E-02 0. -1.
         -1   -1    0    0    0  501 -0.00000000000E+00 -0.00000000000E+00 -0.52718292146E+01  0.52718316238E+01  0.50400000000E-02 0.  1.
         24    2    1    2    0    0  0.00000000000E+00  0.00000000000E+00  0.29231256218E+03  0.30285622303E+03  0.79216524913E+02 0.  0.
         66    2    3    3    0    0  0.32806513977E+02 -0.10856245643E+02  0.22005509419E+03  0.22276079075E+03  0.19999960859E+01 0.  0.
        -13    1    3    3    0    0 -0.32806513977E+02  0.10856245643E+02  0.72257467982E+02  0.80095432279E+02  0.10566000000E+00 0.  1.
         13    1    4    4    0    0  0.88304927301E+01 -0.24178496034E+01  0.58866351568E+02  0.59574173175E+02  0.10566000000E+00 0. -1.
        -13    1    4    4    0    0  0.21488375821E+02 -0.74716142933E+01  0.14135153813E+03  0.14317068070E+03  0.10566000000E+00 0.  1.
         14    1    4    4    0    0  0.24876454262E+01 -0.96678174654E+00  0.19837204498E+02  0.20015936875E+02  0.00000000000E+00 0. -1.
<mgrwt>
<rscale>  0 0.79216525E+02</rscale>
<asrwt>0</asrwt>
<pdfrwt beam="1">  1        2 0.45782202E-01 0.79216525E+02</pdfrwt>
<pdfrwt beam="2">  1       -1 0.81105104E-03 0.79216525E+02</pdfrwt>
<totfact> 0.26084153E+05</totfact>
</mgrwt>
</event>
<event>
 8    1  0.2433467E-024  0.8213225E+02  0.7818608E-02  0.1323107E+00
          2   -1    0    0  501    0  0.00000000000E+00  0.00000000000E+00  0.49646383486E+02  0.49646383551E+02  0.25500000000E-02 0. -1.
         -1   -1    0    0    0  501 -0.00000000000E+00 -0.00000000000E+00 -0.33968769039E+02  0.33968769412E+02  0.50400000000E-02 0.  1.
         24    2    1    2    0    0  0.00000000000E+00  0.35527136788E-14  0.15677614447E+02  0.83615152964E+02  0.82132248297E+02 0.  0.
         66    2    3    3    0    0 -0.28774890075E+02  0.29165005271E+02  0.53853656562E+01  0.41371415197E+02  0.20000002145E+01 0.  0.
        -13    1    3    3    0    0  0.28774890075E+02 -0.29165005271E+02  0.10292248791E+02  0.42243737767E+02  0.10566000000E+00 0.  1.
         13    1    4    4    0    0 -0.17796713619E+02  0.17392976353E+02  0.25056468998E+01  0.25010559219E+02  0.10566000000E+00 0. -1.
        -13    1    4    4    0    0 -0.62112592990E+01  0.64952070214E+01  0.18400150013E+01  0.91741089796E+01  0.10566000000E+00 0.  1.
        -14    1    4    4    0    0 -0.47669171570E+01  0.52768218971E+01  0.10397037551E+01  0.71867469980E+01  0.00000000000E+00 0.  1.
<mgrwt>
<rscale>  0 0.82132248E+02</rscale>
<asrwt>0</asrwt>
<pdfrwt beam="1">  1        2 0.76379051E-02 0.82132248E+02</pdfrwt>
<pdfrwt beam="2">  1       -1 0.52259645E-02 0.82132248E+02</pdfrwt>
<totfact> 0.13880563E+05</totfact>
</mgrwt>
</event>
<event>
 8    1  0.2433467E-024  0.7974669E+02  0.7818608E-02  0.1329772E+00
         -1   -1    0    0    0  501 -0.00000000000E+00  0.00000000000E+00  0.54306682285E+01  0.54306705672E+01  0.50400000000E-02 0.  1.
          2   -1    0    0  501    0  0.00000000000E+00 -0.00000000000E+00 -0.29276015212E+03  0.29276015213E+03  0.25500000000E-02 0. -1.
         24    2    1    2    0    0 -0.35527136788E-14  0.17763568394E-14 -0.28732948389E+03  0.29819082270E+03  0.79746689135E+02 0.  0.
         66    2    3    3    0    0  0.27909278568E+02 -0.14374238384E+02 -0.23552461528E+03  0.23761605786E+03  0.19999976507E+01 0.  0.
        -13    1    3    3    0    0 -0.27909278568E+02  0.14374238384E+02 -0.51804868608E+02  0.60574764835E+02  0.10566000000E+00 0.  1.
         13    1    4    4    0    0  0.16877884419E+02 -0.87238601236E+01 -0.14127626278E+03  0.14254810524E+03  0.10566000000E+00 0. -1.
        -13    1    4    4    0    0  0.25165906248E+01 -0.77166242284E+00 -0.18535302894E+02  0.18721573350E+02  0.10566000000E+00 0.  1.
        -14    1    4    4    0    0  0.85148035246E+01 -0.48787158380E+01 -0.75713049602E+02  0.76346379268E+02  0.00000000000E+00 0.  1.
<mgrwt>
<rscale>  0 0.79746689E+02</rscale>
<asrwt>0</asrwt>
<pdfrwt beam="1">  1        2 0.45040011E-01 0.79746689E+02</pdfrwt>
<pdfrwt beam="2">  1       -1 0.83548783E-03 0.79746689E+02</pdfrwt>
<totfact> 0.25480948E+05</totfact>
</mgrwt>
</event>
<event>
 8    1  0.2433467E-024  0.7893887E+02  0.7818608E-02  0.1332090E+00
          2   -1    0    0  501    0  0.00000000000E+00  0.00000000000E+00  0.13650212936E+03  0.13650212938E+03  0.25500000000E-02 0. -1.
         -1   -1    0    0    0  501 -0.00000000000E+00 -0.00000000000E+00 -0.11412541717E+02  0.11412542830E+02  0.50400000000E-02 0.  1.
         24    2    1    2    0    0  0.88817841970E-15  0.00000000000E+00  0.12508958764E+03  0.14791467221E+03  0.78938870776E+02 0.  0.
         66    2    3    3    0    0  0.77943586455E+01  0.35604435043E+02  0.90841370290E+02  0.97900880342E+02  0.19999985666E+01 0.  0.
        -13    1    3    3    0    0 -0.77943586455E+01 -0.35604435043E+02  0.34248217352E+02  0.50013791870E+02  0.10566000000E+00 0.  1.
         13    1    4    4    0    0  0.84135512270E+00  0.45604688975E+01  0.11933255863E+02  0.12803105660E+02  0.10566000000E+00 0. -1.
        -13    1    4    4    0    0  0.15587997777E+01  0.60956344911E+01  0.17449021320E+02  0.18549019533E+02  0.10566000000E+00 0.  1.
         14    1    4    4    0    0  0.53942037451E+01  0.24948331654E+02  0.61459093107E+02  0.66548755149E+02  0.00000000000E+00 0. -1.
<mgrwt>
<rscale>  0 0.78938871E+02</rscale>
<asrwt>0</asrwt>
<pdfrwt beam="1">  1        2 0.21000327E-01 0.78938871E+02</pdfrwt>
<pdfrwt beam="2">  1       -1 0.17557758E-02 0.78938871E+02</pdfrwt>
<totfact> 0.20140936E+05</totfact>
</mgrwt>
</event>
<event>
 8    1  0.2433467E-024  0.8285681E+02  0.7818608E-02  0.1321134E+00
         -1   -1    0    0    0  501 -0.00000000000E+00  0.00000000000E+00  0.36111566731E+03  0.36111566735E+03  0.50400000000E-02 0.  1.
          2   -1    0    0  501    0  0.00000000000E+00 -0.00000000000E+00 -0.47528052100E+01  0.47528058941E+01  0.25500000000E-02 0. -1.
         24    2    1    2    0    0  0.00000000000E+00  0.71054273576E-14  0.35636286210E+03  0.36586847324E+03  0.82856805553E+02 0.  0.
         66    2    3    3    0    0  0.22253133228E+02  0.33344780930E+02  0.13255957164E+03  0.13850312773E+03  0.20000009738E+01 0.  0.
        -13    1    3    3    0    0 -0.22253133228E+02 -0.33344780930E+02  0.22380329046E+03  0.22736534551E+03  0.10566000000E+00 0.  1.
         13    1    4    4    0    0  0.26429295777E+00  0.63814274315E+00  0.20412266204E+01  0.21575094622E+01  0.10566000000E+00 0. -1.
        -13    1    4    4    0    0  0.12112157594E+00  0.24820753946E+00  0.88481264074E+00  0.93291739378E+00  0.10566000000E+00 0. -1.
         14    1    4    4    0    0  0.21867718695E+02  0.32458430648E+02  0.12963353238E+03  0.13541270088E+03  0.00000000000E+00 0. -1.
<mgrwt>
<rscale>  0 0.82856806E+02</rscale>
<asrwt>0</asrwt>
<pdfrwt beam="1">  1        2 0.73120073E-03 0.82856806E+02</pdfrwt>
<pdfrwt beam="2">  1       -1 0.55556266E-01 0.82856806E+02</pdfrwt>
<totfact> 0.72830099E+04</totfact>
</mgrwt>
</event>
<event>
 8    1  0.2433467E-024  0.7996107E+02  0.7818608E-02  0.1329162E+00
          2   -1    0    0  501    0  0.00000000000E+00  0.00000000000E+00  0.24502120301E+03  0.24502120302E+03  0.25500000000E-02 0. -1.
         -1   -1    0    0    0  501 -0.00000000000E+00 -0.00000000000E+00 -0.65236928251E+01  0.65236947720E+01  0.50400000000E-02 0.  1.
         24    2    1    2    0    0  0.17763568394E-14  0.71054273576E-14  0.23849751018E+03  0.25154489779E+03  0.79961073294E+02 0.  0.
         66    2    3    3    0    0 -0.15782251988E+02 -0.36185940935E+02  0.13869922427E+03  0.14422196998E+03  0.20000031625E+01 0.  0.
        -13    1    3    3    0    0  0.15782251988E+02  0.36185940935E+02  0.99798285909E+02  0.10732292781E+03  0.10566000000E+00 0.  1.
         13    1    4    4    0    0 -0.52576969783E+01 -0.13177488789E+02  0.49232453929E+02  0.51236073934E+02  0.10566000000E+00 0. -1.
        -13    1    4    4    0    0 -0.29839431318E+01 -0.76113013680E+01  0.27242046386E+02  0.28442504820E+02  0.10566000000E+00 0.  1.
         14    1    4    4    0    0 -0.75406118781E+01 -0.15397150778E+02  0.62224723958E+02  0.64543391228E+02  0.00000000000E+00 0. -1.
<mgrwt>
<rscale>  0 0.79961073E+02</rscale>
<asrwt>0</asrwt>
<pdfrwt beam="1">  1        2 0.37695571E-01 0.79961073E+02</pdfrwt>
<pdfrwt beam="2">  1       -1 0.10036452E-02 0.79961073E+02</pdfrwt>
<totfact> 0.23727509E+05</totfact>
</mgrwt>
</event>
<event>
 8    1  0.2433467E-024  0.8014377E+02  0.7818608E-02  0.1328644E+00
         -1   -1    0    0    0  501 -0.00000000000E+00  0.00000000000E+00  0.60304531447E+02  0.60304531658E+02  0.50400000000E-02 0.  1.
          2   -1    0    0  501    0  0.00000000000E+00 -0.00000000000E+00 -0.26627449309E+02  0.26627449431E+02  0.25500000000E-02 0. -1.
         24    2    1    2    0    0  0.00000000000E+00  0.00000000000E+00  0.33677082138E+02  0.86931981088E+02  0.80143767534E+02 0.  0.
         66    2    3    3    0    0  0.30909839210E+02  0.23854823619E+02  0.71908912251E+01  0.39751474064E+02  0.20000009480E+01 0.  0.
        -13    1    3    3    0    0 -0.30909839210E+02 -0.23854823619E+02  0.26486190913E+02  0.47180507024E+02  0.10566000000E+00 0.  1.
         13    1    4    4    0    0  0.17103644526E+02  0.13895969076E+02  0.39257413787E+01  0.22384262821E+02  0.10566000000E+00 0. -1.
        -13    1    4    4    0    0  0.11428361421E+02  0.87239138659E+01  0.27807453533E+01  0.14644378671E+02  0.10566000000E+00 0.  1.
        -14    1    4    4    0    0  0.23778332638E+01  0.12349406773E+01  0.48440449316E+00  0.27228325728E+01  0.00000000000E+00 0.  1.
<mgrwt>
<rscale>  0 0.80143768E+02</rscale>
<asrwt>0</asrwt>
<pdfrwt beam="1">  1        2 0.40965307E-02 0.80143768E+02</pdfrwt>
<pdfrwt beam="2">  1       -1 0.92776201E-02 0.80143768E+02</pdfrwt>
<totfact> 0.13076365E+05</totfact>
</mgrwt>
</event>
<event>
 8    1  0.2433467E-024  0.8028813E+02  0.7818608E-02  0.1328236E+00
          2   -1    0    0  501    0  0.00000000000E+00  0.00000000000E+00  0.15833145607E+04  0.15833145607E+04  0.25500000000E-02 0. -1.
         -1   -1    0    0    0  501 -0.00000000000E+00 -0.00000000000E+00 -0.10178244125E+01  0.10178368908E+01  0.50400000000E-02 0.  1.
         24    2    1    2    0    0  0.17763568394E-14 -0.17763568394E-14  0.15822967363E+04  0.15843323976E+04  0.80288133597E+02 0.  0.
         66    2    3    3    0    0  0.13539443570E+02 -0.12516728656E+02  0.14947440622E+04  0.14948591227E+04  0.20000007958E+01 0.  0.
        -13    1    3    3    0    0 -0.13539443570E+02  0.12516728656E+02  0.87552674080E+02  0.89473274955E+02  0.10566000000E+00 0.  1.
         13    1    4    4    0    0  0.24181412042E+01 -0.21286792722E+01  0.21527774046E+03  0.21530187037E+03  0.10566000000E+00 0.  1.
        -13    1    4    4    0    0  0.53864837136E+01 -0.43494798816E+01  0.56966013083E+03  0.56970220993E+03  0.10566000000E+00 0. -1.
        -14    1    4    4    0    0  0.57348186525E+01 -0.60385695019E+01  0.70980619094E+03  0.70985504236E+03  0.00000000000E+00 0.  1.
<mgrwt>
<rscale>  0 0.80288134E+02</rscale>
<asrwt>0</asrwt>
<pdfrwt beam="1">  1        2 0.24358591E+00 0.80288134E+02</pdfrwt>
<pdfrwt beam="2">  1       -1 0.15658994E-03 0.80288134E+02</pdfrwt>
<totfact> 0.32208186E+05</totfact>
</mgrwt>
</event>
<event>
 8    1  0.2433467E-024  0.8165798E+02  0.7818608E-02  0.1324411E+00
         -1   -1    0    0    0  501 -0.00000000000E+00  0.00000000000E+00  0.57939415058E+02  0.57939415277E+02  0.50400000000E-02 0.  1.
          2   -1    0    0  501    0  0.00000000000E+00 -0.00000000000E+00 -0.28771543954E+02  0.28771544067E+02  0.25500000000E-02 0. -1.
         24    2    1    2    0    0  0.35527136788E-14  0.00000000000E+00  0.29167871104E+02  0.86710959343E+02  0.81657980415E+02 0.  0.
         66    2    3    3    0    0  0.20866577276E+02  0.22391517228E+02 -0.14062503760E+02  0.33742378411E+02  0.19999994675E+01 0.  0.
        -13    1    3    3    0    0 -0.20866577276E+02 -0.22391517228E+02  0.43230374864E+02  0.52968580932E+02  0.10566000000E+00 0.  1.
         13    1    4    4    0    0  0.42831139592E+01  0.41225080160E+01 -0.23149557225E+01  0.63804640554E+01  0.10566000000E+00 0. -1.
        -13    1    4    4    0    0  0.23349532002E+01  0.21049664297E+01 -0.11478153482E+01  0.33483629174E+01  0.10566000000E+00 0.  1.
         14    1    4    4    0    0  0.14248510117E+02  0.16164042782E+02 -0.10599732690E+02  0.24013551439E+02  0.00000000000E+00 0. -1.
<mgrwt>
<rscale>  0 0.81657980E+02</rscale>
<asrwt>0</asrwt>
<pdfrwt beam="1">  1        2 0.44263914E-02 0.81657980E+02</pdfrwt>
<pdfrwt beam="2">  1       -1 0.89137562E-02 0.81657980E+02</pdfrwt>
<totfact> 0.12596244E+05</totfact>
</mgrwt>
</event>
<event>
 8    1  0.2433467E-024  0.8083789E+02  0.7818608E-02  0.1326690E+00
          2   -1    0    0  501    0  0.00000000000E+00  0.00000000000E+00  0.22418898420E+03  0.22418898421E+03  0.25500000000E-02 0. -1.
         -1   -1    0    0    0  501 -0.00000000000E+00 -0.00000000000E+00 -0.72871153476E+01  0.72871170905E+01  0.50400000000E-02 0.  1.
         24    2    1    2    0    0 -0.71054273576E-14  0.00000000000E+00  0.21690186885E+03  0.23147610130E+03  0.80837891880E+02 0.  0.
         66    2    3    3    0    0 -0.36278861695E+02 -0.13270770222E+02  0.14232744325E+03  0.14749023782E+03  0.20000001337E+01 0.  0.
        -13    1    3    3    0    0  0.36278861695E+02  0.13270770222E+02  0.74574425600E+02  0.83985863487E+02  0.10566000000E+00 0.  1.
         13    1    4    4    0    0 -0.99740432834E+00 -0.21465478073E+00  0.36352083980E+01  0.37771412737E+01  0.10566000000E+00 0.  1.
        -13    1    4    4    0    0 -0.10466999574E+01 -0.40863976216E+00  0.32746652772E+01  0.34636922452E+01  0.10566000000E+00 0. -1.
        -14    1    4    4    0    0 -0.34234757409E+02 -0.12647475679E+02  0.13541756958E+03  0.14024940430E+03  0.00000000000E+00 0.  1.
<mgrwt>
<rscale>  0 0.80837892E+02</rscale>
<asrwt>0</asrwt>
<pdfrwt beam="1">  1        2 0.34490612E-01 0.80837892E+02</pdfrwt>
<pdfrwt beam="2">  1       -1 0.11210948E-02 0.80837892E+02</pdfrwt>
<totfact> 0.22337969E+05</totfact>
</mgrwt>
</event>
<event>
 8    1  0.2433467E-024  0.8211718E+02  0.7818608E-02  0.1323148E+00
         -1   -1    0    0    0  501 -0.00000000000E+00  0.00000000000E+00  0.73283012031E+02  0.73283012204E+02  0.50400000000E-02 0.  1.
          2   -1    0    0  501    0  0.00000000000E+00 -0.00000000000E+00 -0.23004076208E+02  0.23004076350E+02  0.25500000000E-02 0. -1.
         24    2    1    2    0    0 -0.88817841970E-15  0.00000000000E+00  0.50278935822E+02  0.96287088554E+02  0.82117184771E+02 0.  0.
         66    2    3    3    0    0 -0.75039602472E+01 -0.37429946540E+02  0.75077360415E+01  0.38957366663E+02  0.19999998597E+01 0.  0.
        -13    1    3    3    0    0  0.75039602472E+01  0.37429946540E+02  0.42771199781E+02  0.57329721891E+02  0.10566000000E+00 0.  1.
         13    1    4    4    0    0 -0.44546777239E+01 -0.21139824965E+02  0.47384308836E+01  0.22117871608E+02  0.10566000000E+00 0. -1.
        -13    1    4    4    0    0 -0.30839104912E+00 -0.15834427590E+01 -0.44493033082E-01  0.16172630200E+01  0.10566000000E+00 0.  1.
        -14    1    4    4    0    0 -0.27408914742E+01 -0.14706678816E+02  0.28137981910E+01  0.15222232035E+02  0.00000000000E+00 0.  1.
<mgrwt>
<rscale>  0 0.82117185E+02</rscale>
<asrwt>0</asrwt>
<pdfrwt beam="1">  1        2 0.35390887E-02 0.82117185E+02</pdfrwt>
<pdfrwt beam="2">  1       -1 0.11274310E-01 0.82117185E+02</pdfrwt>
<totfact> 0.11851463E+05</totfact>
</mgrwt>
</event>
<event>
 8    1  0.2433467E-024  0.8175038E+02  0.7818608E-02  0.1324156E+00
          2   -1    0    0  501    0  0.00000000000E+00  0.00000000000E+00  0.89439049425E+01  0.89439053060E+01  0.25500000000E-02 0. -1.
         -1   -1    0    0    0  501 -0.00000000000E+00 -0.00000000000E+00 -0.18680665599E+03  0.18680665606E+03  0.50400000000E-02 0.  1.
         24    2    1    2    0    0  0.00000000000E+00  0.00000000000E+00 -0.17786275105E+03  0.19575056137E+03  0.81750376539E+02 0.  0.
         66    2    3    3    0    0  0.32057179761E+02 -0.50342271835E+01 -0.29565848936E+02  0.43944802061E+02  0.19999968230E+01 0.  0.
        -13    1    3    3    0    0 -0.32057179761E+02  0.50342271835E+01 -0.14829690211E+03  0.15180575931E+03  0.10566000000E+00 0.  1.
         13    1    4    4    0    0  0.48131072847E+00 -0.78624568024E-01 -0.20810018049E+00  0.54065845111E+00  0.10566000000E+00 0. -1.
        -13    1    4    4    0    0  0.30951901519E+01 -0.55339482918E+00 -0.26767760375E+01  0.41307071918E+01  0.10566000000E+00 0.  1.
         14    1    4    4    0    0  0.28480678881E+02 -0.44022077863E+01 -0.26680972718E+02  0.39273436418E+02  0.00000000000E+00 0. -1.
<mgrwt>
<rscale>  0 0.81750377E+02</rscale>
<asrwt>0</asrwt>
<pdfrwt beam="1">  1        2 0.13759855E-02 0.81750377E+02</pdfrwt>
<pdfrwt beam="2">  1       -1 0.28739483E-01 0.81750377E+02</pdfrwt>
<totfact> 0.96195532E+04</totfact>
</mgrwt>
</event>
<event>
 8    1  0.2433467E-024  0.7881307E+02  0.7818608E-02  0.1332454E+00
         -1   -1    0    0    0  501 -0.00000000000E+00  0.00000000000E+00  0.51991414767E+01  0.51991439196E+01  0.50400000000E-02 0.  1.
          2   -1    0    0  501    0  0.00000000000E+00 -0.00000000000E+00 -0.29867906770E+03  0.29867906771E+03  0.25500000000E-02 0. -1.
         24    2    1    2    0    0  0.00000000000E+00  0.00000000000E+00 -0.29347992622E+03  0.30387821163E+03  0.78813072568E+02 0.  0.
         66    2    3    3    0    0  0.27126804687E+02  0.24848622209E+02 -0.20102713099E+03  0.20437520630E+03  0.20000000422E+01 0.  0.
        -13    1    3    3    0    0 -0.27126804687E+02 -0.24848622209E+02 -0.92452795232E+02  0.99503005324E+02  0.10566000000E+00 0.  1.
         13    1    4    4    0    0  0.71256259781E+01  0.61081837090E+01 -0.51071916503E+02  0.51927220926E+02  0.10566000000E+00 0. -1.
        -13    1    4    4    0    0  0.95457980702E+01  0.10034731486E+02 -0.75309559339E+02  0.76572573345E+02  0.10566000000E+00 0.  1.
        -14    1    4    4    0    0  0.10455380638E+02  0.87057070143E+01 -0.74645655146E+02  0.75875412033E+02  0.00000000000E+00 0.  1.
<mgrwt>
<rscale>  0 0.78813073E+02</rscale>
<asrwt>0</asrwt>
<pdfrwt beam="1">  1        2 0.45950612E-01 0.78813073E+02</pdfrwt>
<pdfrwt beam="2">  1       -1 0.79986834E-03 0.78813073E+02</pdfrwt>
<totfact> 0.26470412E+05</totfact>
</mgrwt>
</event>
<event>
 8    1  0.2433467E-024  0.8023606E+02  0.7818608E-02  0.1328383E+00
          2   -1    0    0  501    0  0.00000000000E+00  0.00000000000E+00  0.12152152262E+04  0.12152152262E+04  0.25500000000E-02 0. -1.
         -1   -1    0    0    0  501 -0.00000000000E+00 -0.00000000000E+00 -0.13244159236E+01  0.13244255133E+01  0.50400000000E-02 0.  1.
         24    2    1    2    0    0  0.00000000000E+00  0.00000000000E+00  0.12138908103E+04  0.12165396517E+04  0.80236057505E+02 0.  0.
         66    2    3    3    0    0 -0.65995880807E+00  0.26837457481E+02  0.10588252032E+04  0.10591673596E+04  0.20000003094E+01 0.  0.
        -13    1    3    3    0    0  0.65995880807E+00 -0.26837457481E+02  0.15506560706E+03  0.15737229212E+03  0.10566000000E+00 0.  1.
         13    1    4    4    0    0 -0.11845918051E+00  0.12001280810E+02  0.43699292199E+03  0.43715771731E+03  0.10566000000E+00 0.  1.
        -13    1    4    4    0    0 -0.87440783694E-01  0.32987410154E+01  0.13170209794E+03  0.13174347461E+03  0.10566000000E+00 0. -1.
        -14    1    4    4    0    0 -0.45405884386E+00  0.11537435656E+02  0.49013018330E+03  0.49026616768E+03  0.00000000000E+00 0.  1.
<mgrwt>
<rscale>  0 0.80236058E+02</rscale>
<asrwt>0</asrwt>
<pdfrwt beam="1">  1        2 0.18695563E+00 0.80236058E+02</pdfrwt>
<pdfrwt beam="2">  1       -1 0.20375764E-03 0.80236058E+02</pdfrwt>
<totfact> 0.34720049E+05</totfact>
</mgrwt>
</event>
<event>
 8    1  0.2433467E-024  0.8026802E+02  0.7818608E-02  0.1328293E+00
          2   -1    0    0  501    0  0.00000000000E+00  0.00000000000E+00  0.29146859873E+02  0.29146859985E+02  0.25500000000E-02 0. -1.
         -1   -1    0    0    0  501 -0.00000000000E+00 -0.00000000000E+00 -0.55262853560E+02  0.55262853789E+02  0.50400000000E-02 0.  1.
         24    2    1    2    0    0 -0.17763568394E-14  0.88817841970E-15 -0.26115993686E+02  0.84409713774E+02  0.80268017624E+02 0.  0.
         66    2    3    3    0    0 -0.12950556579E+02  0.53609235173E+01  0.26453276604E+02  0.30003870710E+02  0.19999994675E+01 0.  0.
        -13    1    3    3    0    0  0.12950556579E+02 -0.53609235173E+01 -0.52569270290E+02  0.54405843064E+02  0.10566000000E+00 0.  1.
         13    1    4    4    0    0 -0.68690810657E+01  0.36735066022E+01  0.15441390842E+02  0.17295277986E+02  0.10566000000E+00 0. -1.
        -13    1    4    4    0    0 -0.26921861030E+01  0.56702825067E+00  0.53129965918E+01  0.59840190400E+01  0.10566000000E+00 0.  1.
         14    1    4    4    0    0 -0.33892894103E+01  0.11203886644E+01  0.56988891696E+01  0.67245736842E+01  0.00000000000E+00 0. -1.
<mgrwt>
<rscale>  0 0.80268018E+02</rscale>
<asrwt>0</asrwt>
<pdfrwt beam="1">  1        2 0.44841323E-02 0.80268018E+02</pdfrwt>
<pdfrwt beam="2">  1       -1 0.85019775E-02 0.80268018E+02</pdfrwt>
<totfact> 0.13253821E+05</totfact>
</mgrwt>
</event>
<event>
 8    1  0.2433467E-024  0.7977610E+02  0.7818608E-02  0.1329688E+00
         -1   -1    0    0    0  501 -0.00000000000E+00  0.00000000000E+00  0.91663119769E+01  0.91663133625E+01  0.50400000000E-02 0.  1.
          2   -1    0    0  501    0  0.00000000000E+00 -0.00000000000E+00 -0.17357648966E+03  0.17357648968E+03  0.25500000000E-02 0. -1.
         24    2    1    2    0    0  0.00000000000E+00  0.00000000000E+00 -0.16441017768E+03  0.18274280304E+03  0.79776096278E+02 0.  0.
         66    2    3    3    0    0 -0.18036583877E+02  0.10405200102E+02 -0.16012225494E+03  0.16148288788E+03  0.20000005749E+01 0.  0.
        -13    1    3    3    0    0  0.18036583877E+02 -0.10405200102E+02 -0.42879227355E+01  0.21259915158E+02  0.10566000000E+00 0.  1.
         13    1    4    4    0    0 -0.11876920559E+02  0.65118578351E+01 -0.11005018078E+03  0.11088065201E+03  0.10566000000E+00 0. -1.
        -13    1    4    4    0    0 -0.29901871407E+01  0.19549477243E+01 -0.26247191035E+02  0.26489417529E+02  0.10566000000E+00 0.  1.
        -14    1    4    4    0    0 -0.31694761774E+01  0.19383945424E+01 -0.23824883124E+02  0.24112818345E+02  0.00000000000E+00 0.  1.
<mgrwt>
<rscale>  0 0.79776096E+02</rscale>
<asrwt>0</asrwt>
<pdfrwt beam="1">  1        2 0.26704073E-01 0.79776096E+02</pdfrwt>
<pdfrwt beam="2">  1       -1 0.14102021E-02 0.79776096E+02</pdfrwt>
<totfact> 0.21171533E+05</totfact>
</mgrwt>
</event>
<event>
 8    1  0.2433467E-024  0.7947326E+02  0.7818608E-02  0.1330553E+00
         -1   -1    0    0    0  501 -0.00000000000E+00  0.00000000000E+00  0.49621884178E+01  0.49621909773E+01  0.50400000000E-02 0.  1.
          2   -1    0    0  501    0  0.00000000000E+00 -0.00000000000E+00 -0.31820624825E+03  0.31820624826E+03  0.25500000000E-02 0. -1.
         24    2    1    2    0    0  0.35527136788E-14  0.00000000000E+00 -0.31324405983E+03  0.32316843923E+03  0.79473260276E+02 0.  0.
         66    2    3    3    0    0 -0.28056702946E+02  0.26816838363E+02 -0.19090597436E+03  0.19482148867E+03  0.19999998950E+01 0.  0.
        -13    1    3    3    0    0  0.28056702946E+02 -0.26816838363E+02 -0.12233808546E+03  0.12834695056E+03  0.10566000000E+00 0.  1.
         13    1    4    4    0    0 -0.15602209986E+02  0.15070875492E+02 -0.10897549909E+03  0.11111359418E+03  0.10566000000E+00 0. -1.
        -13    1    4    4    0    0 -0.11232691066E+02  0.11009307357E+02 -0.74669969522E+02  0.76308542834E+02  0.10566000000E+00 0.  1.
        -14    1    4    4    0    0 -0.12218018945E+01  0.73665551294E+00 -0.72605057468E+01  0.73993516550E+01  0.00000000000E+00 0.  1.
<mgrwt>
<rscale>  0 0.79473260E+02</rscale>
<asrwt>0</asrwt>
<pdfrwt beam="1">  1        2 0.48954791E-01 0.79473260E+02</pdfrwt>
<pdfrwt beam="2">  1       -1 0.76341405E-03 0.79473260E+02</pdfrwt>
<totfact> 0.26497840E+05</totfact>
</mgrwt>
</event>
<event>
 8    1  0.2433467E-024  0.8598498E+02  0.7818608E-02  0.1312877E+00
          2   -1    0    0  501    0  0.00000000000E+00  0.00000000000E+00  0.53213288420E+01  0.53213294530E+01  0.25500000000E-02 0. -1.
         -1   -1    0    0    0  501 -0.00000000000E+00 -0.00000000000E+00 -0.34734825221E+03  0.34734825225E+03  0.50400000000E-02 0.  1.
         24    2    1    2    0    0  0.00000000000E+00  0.00000000000E+00 -0.34202692337E+03  0.35266958170E+03  0.85984984431E+02 0.  0.
         66    2    3    3    0    0  0.19476827430E+02 -0.36448780566E+02 -0.12283843495E+03  0.12961921736E+03  0.19999993605E+01 0.  0.
        -13    1    3    3    0    0 -0.19476827430E+02  0.36448780566E+02 -0.21918848842E+03  0.22305036434E+03  0.10566000000E+00 0.  1.
         13    1    4    4    0    0  0.32848643671E+01 -0.63464764036E+01 -0.23207953538E+02  0.24283499915E+02  0.10566000000E+00 0. -1.
        -13    1    4    4    0    0  0.88181332130E+01 -0.17088576075E+02 -0.57213086242E+02  0.60358324256E+02  0.10566000000E+00 0.  1.
         14    1    4    4    0    0  0.73738298501E+01 -0.13013728087E+02 -0.42417395169E+02  0.44977393192E+02  0.00000000000E+00 0. -1.
<mgrwt>
<rscale>  0 0.85984984E+02</rscale>
<asrwt>0</asrwt>
<pdfrwt beam="1">  1        2 0.81866629E-03 0.85984984E+02</pdfrwt>
<pdfrwt beam="2">  1       -1 0.53438175E-01 0.85984984E+02</pdfrwt>
<totfact> 0.67401737E+04</totfact>
</mgrwt>
</event>
<event>
 8    1  0.2433467E-024  0.8098446E+02  0.7818608E-02  0.1326281E+00
          2   -1    0    0  501    0  0.00000000000E+00  0.00000000000E+00  0.15939675951E+03  0.15939675953E+03  0.25500000000E-02 0. -1.
         -1   -1    0    0    0  501 -0.00000000000E+00 -0.00000000000E+00 -0.10286410949E+02  0.10286412184E+02  0.50400000000E-02 0.  1.
         24    2    1    2    0    0  0.00000000000E+00 -0.35527136788E-14  0.14911034856E+03  0.16968317171E+03  0.80984459712E+02 0.  0.
         66    2    3    3    0    0 -0.26757731940E+02 -0.23468077526E+02  0.11495195079E+03  0.12035230730E+03  0.20000002724E+01 0.  0.
        -13    1    3    3    0    0  0.26757731940E+02  0.23468077526E+02  0.34158397773E+02  0.49330864414E+02  0.10566000000E+00 0.  1.
         13    1    4    4    0    0 -0.76258721156E+01 -0.63073568449E+01  0.32695392285E+02  0.34160452524E+02  0.10566000000E+00 0. -1.
        -13    1    4    4    0    0 -0.14963939126E+01 -0.15423717952E+01  0.56852484725E+01  0.60787597194E+01  0.10566000000E+00 0.  1.
        -14    1    4    4    0    0 -0.17635465912E+02 -0.15618348886E+02  0.76571310030E+02  0.80113095057E+02  0.00000000000E+00 0.  1.
<mgrwt>
<rscale>  0 0.80984460E+02</rscale>
<asrwt>0</asrwt>
<pdfrwt beam="1">  1        2 0.24522578E-01 0.80984460E+02</pdfrwt>
<pdfrwt beam="2">  1       -1 0.15825249E-02 0.80984460E+02</pdfrwt>
<totfact> 0.19777539E+05</totfact>
</mgrwt>
</event>
<event>
 8    1  0.2433467E-024  0.7926996E+02  0.7818608E-02  0.1331136E+00
          2   -1    0    0  501    0  0.00000000000E+00  0.00000000000E+00  0.19406900672E+03  0.19406900673E+03  0.25500000000E-02 0. -1.
         -1   -1    0    0    0  501 -0.00000000000E+00 -0.00000000000E+00 -0.80947059394E+01  0.80947075084E+01  0.50400000000E-02 0.  1.
         24    2    1    2    0    0  0.00000000000E+00 -0.35527136788E-14  0.18597430078E+03  0.20216371424E+03  0.79269961565E+02 0.  0.
         66    2    3    3    0    0 -0.27680018531E+02  0.26126432759E+02  0.12100131135E+03  0.12686248959E+03  0.20000006321E+01 0.  0.
        -13    1    3    3    0    0  0.27680018531E+02 -0.26126432759E+02  0.64972989429E+02  0.75301224651E+02  0.10566000000E+00 0.  1.
         13    1    4    4    0    0 -0.94382990021E+01  0.88287854530E+01  0.39922710218E+02  0.41962636903E+02  0.10566000000E+00 0.  1.
        -13    1    4    4    0    0 -0.17714674751E+02  0.16636678927E+02  0.79075824596E+02  0.82725969241E+02  0.10566000000E+00 0. -1.
         14    1    4    4    0    0 -0.52704477735E+00  0.66096837919E+00  0.20027765340E+01  0.21738834469E+01  0.00000000000E+00 0. -1.
<mgrwt>
<rscale>  0 0.79269962E+02</rscale>
<asrwt>0</asrwt>
<pdfrwt beam="1">  1        2 0.29856767E-01 0.79269962E+02</pdfrwt>
<pdfrwt beam="2">  1       -1 0.12453397E-02 0.79269962E+02</pdfrwt>
<totfact> 0.22364349E+05</totfact>
</mgrwt>
</event>
<event>
 8    1  0.2433467E-024  0.7964717E+02  0.7818608E-02  0.1330056E+00
         -1   -1    0    0    0  501 -0.00000000000E+00  0.00000000000E+00  0.10947376207E+02  0.10947377367E+02  0.50400000000E-02 0.  1.
          2   -1    0    0  501    0  0.00000000000E+00 -0.00000000000E+00 -0.14486737968E+03  0.14486737970E+03  0.25500000000E-02 0. -1.
         24    2    1    2    0    0 -0.17763568394E-14  0.00000000000E+00 -0.13392000347E+03  0.15581475707E+03  0.79647166869E+02 0.  0.
         66    2    3    3    0    0 -0.10452749163E+02 -0.38309860029E+02 -0.61823415946E+02  0.73505374630E+02  0.19999999165E+01 0.  0.
        -13    1    3    3    0    0  0.10452749163E+02  0.38309860029E+02 -0.72096587523E+02  0.82309382436E+02  0.10566000000E+00 0.  1.
         13    1    4    4    0    0 -0.24741610524E+01 -0.88041596702E+01 -0.13289443094E+02  0.16132425800E+02  0.10566000000E+00 0. -1.
        -13    1    4    4    0    0 -0.34537526149E+01 -0.15316924914E+02 -0.24648917294E+02  0.29225278164E+02  0.10566000000E+00 0.  1.
        -14    1    4    4    0    0 -0.45248354961E+01 -0.14188775445E+02 -0.23885055558E+02  0.28147670666E+02  0.00000000000E+00 0.  1.
<mgrwt>
<rscale>  0 0.79647167E+02</rscale>
<asrwt>0</asrwt>
<pdfrwt beam="1">  1        2 0.22287288E-01 0.79647167E+02</pdfrwt>
<pdfrwt beam="2">  1       -1 0.16842119E-02 0.79647167E+02</pdfrwt>
<totfact> 0.20041513E+05</totfact>
</mgrwt>
</event>
<event>
 8    1  0.2477562E-024  0.7982100E+02  0.7818608E-02  0.1329560E+00
          2   -1    0    0  501    0  0.00000000000E+00  0.00000000000E+00  0.29452582344E+02  0.29452582455E+02  0.25500000000E-02 0. -1.
         -1   -1    0    0    0  501 -0.00000000000E+00 -0.00000000000E+00 -0.54081775380E+02  0.54081775615E+02  0.50400000000E-02 0.  1.
         24    2    1    2    0    0  0.00000000000E+00 -0.88817841970E-15 -0.24629193036E+02  0.83534358070E+02  0.79820998669E+02 0.  0.
         66    2    3    3    0    0 -0.39298592716E+02 -0.66395668912E+01 -0.13936719653E+02  0.42269319732E+02  0.19999994994E+01 0.  0.
        -13    1    3    3    0    0  0.39298592716E+02  0.66395668912E+01 -0.10692473383E+02  0.41265038338E+02  0.10566000000E+00 0.  1.
         13    1    4    4    0    0 -0.31673036095E+02 -0.52487055649E+01 -0.10992695229E+02  0.33934947149E+02  0.10566000000E+00 0. -1.
        -13    1    4    4    0    0 -0.25248477060E+01 -0.48192542133E+00 -0.56843706308E+00  0.26346523073E+01  0.10566000000E+00 0.  1.
        -14    1    4    4    0    0 -0.51007089147E+01 -0.90893590505E+00 -0.23755873610E+01  0.56997202757E+01  0.00000000000E+00 0.  1.
<mgrwt>
<rscale>  0 0.79820999E+02</rscale>
<asrwt>0</asrwt>
<pdfrwt beam="1">  1        2 0.45311665E-02 0.79820999E+02</pdfrwt>
<pdfrwt beam="2">  1       -1 0.83202732E-02 0.79820999E+02</pdfrwt>
<totfact> 0.13490928E+05</totfact>
</mgrwt>
</event>
<event>
 8    1  0.2727858E-024  0.8002560E+02  0.7818608E-02  0.1328979E+00
          2   -1    0    0  501    0  0.00000000000E+00  0.00000000000E+00  0.28196674860E+02  0.28196674975E+02  0.25500000000E-02 0. -1.
         -1   -1    0    0    0  501 -0.00000000000E+00 -0.00000000000E+00 -0.56780606173E+02  0.56780606397E+02  0.50400000000E-02 0.  1.
         24    2    1    2    0    0  0.00000000000E+00  0.17763568394E-14 -0.28583931313E+02  0.84977281372E+02  0.80025603528E+02 0.  0.
         66    2    3    3    0    0  0.32026418004E+02  0.88568722535E+01  0.93216105497E+01  0.34569177814E+02  0.19999988081E+01 0.  0.
        -13    1    3    3    0    0 -0.32026418004E+02 -0.88568722535E+01 -0.37905541863E+02  0.50408103557E+02  0.10566000000E+00 0.  1.
         13    1    4    4    0    0  0.18969391854E+02  0.51589398861E+01  0.57151006282E+01  0.20472567677E+02  0.10566000000E+00 0. -1.
        -13    1    4    4    0    0  0.11736308279E+02  0.29737633588E+01  0.30070989067E+01  0.12475496319E+02  0.10566000000E+00 0.  1.
        -14    1    4    4    0    0  0.13207178716E+01  0.72416900867E+00  0.59941101477E+00  0.16211138190E+01  0.00000000000E+00 0.  1.
<mgrwt>
<rscale>  0 0.80025604E+02</rscale>
<asrwt>0</asrwt>
<pdfrwt beam="1">  1        2 0.43379500E-02 0.80025604E+02</pdfrwt>
<pdfrwt beam="2">  1       -1 0.87354779E-02 0.80025604E+02</pdfrwt>
<totfact> 0.13279879E+05</totfact>
</mgrwt>
</event>
<event>
 8    1  0.2433467E-024  0.8218870E+02  0.7818608E-02  0.1322953E+00
         -1   -1    0    0    0  501 -0.00000000000E+00  0.00000000000E+00  0.49249439721E+02  0.49249439979E+02  0.50400000000E-02 0.  1.
          2   -1    0    0  501    0  0.00000000000E+00 -0.00000000000E+00 -0.34289640196E+02  0.34289640291E+02  0.25500000000E-02 0. -1.
         24    2    1    2    0    0 -0.35527136788E-14 -0.17763568394E-14  0.14959799526E+02  0.83539080270E+02  0.82188699530E+02 0.  0.
         66    2    3    3    0    0  0.27344092016E+02  0.10177728883E+02 -0.21894826701E+02  0.36533121374E+02  0.19999969134E+01 0.  0.
        -13    1    3    3    0    0 -0.27344092016E+02 -0.10177728883E+02  0.36854626227E+02  0.47005958896E+02  0.10566000000E+00 0.  1.
         13    1    4    4    0    0  0.55902669592E+01  0.13249312377E+01 -0.42518573326E+01  0.71481453729E+01  0.10566000000E+00 0. -1.
        -13    1    4    4    0    0  0.43911968131E+01  0.20962396908E+01 -0.35439908003E+01  0.60206199947E+01  0.10566000000E+00 0.  1.
        -14    1    4    4    0    0  0.17362628244E+02  0.67565579541E+01 -0.14098978568E+02  0.23364356006E+02  0.00000000000E+00 0.  1.
<mgrwt>
<rscale>  0 0.82188700E+02</rscale>
<asrwt>0</asrwt>
<pdfrwt beam="1">  1        2 0.52753293E-02 0.82188700E+02</pdfrwt>
<pdfrwt beam="2">  1       -1 0.75768369E-02 0.82188700E+02</pdfrwt>
<totfact> 0.12814697E+05</totfact>
</mgrwt>
</event>
<event>
 8    1  0.2433467E-024  0.8085073E+02  0.7818608E-02  0.1326654E+00
          2   -1    0    0  501    0  0.00000000000E+00  0.00000000000E+00  0.15516519675E+02  0.15516519885E+02  0.25500000000E-02 0. -1.
         -1   -1    0    0    0  501 -0.00000000000E+00 -0.00000000000E+00 -0.10532065106E+03  0.10532065118E+03  0.50400000000E-02 0.  1.
         24    2    1    2    0    0  0.00000000000E+00 -0.35527136788E-14 -0.89804131380E+02  0.12083717106E+03  0.80850726015E+02 0.  0.
         66    2    3    3    0    0 -0.15137625276E+02 -0.16579975428E+02  0.52703714205E+01  0.23147788163E+02  0.19999994336E+01 0.  0.
        -13    1    3    3    0    0  0.15137625276E+02  0.16579975428E+02 -0.95074502800E+02  0.97689382898E+02  0.10566000000E+00 0.  1.
         13    1    4    4    0    0 -0.18692162718E+01 -0.15881364994E+01  0.57486282765E+00  0.25214635269E+01  0.10566000000E+00 0. -1.
        -13    1    4    4    0    0 -0.15627854519E+01 -0.16359189681E+01  0.33851963280E-01  0.22651355875E+01  0.10566000000E+00 0.  1.
         14    1    4    4    0    0 -0.11705623552E+02 -0.13355919961E+02  0.46616566295E+01  0.18361189049E+02  0.00000000000E+00 0. -1.
<mgrwt>
<rscale>  0 0.80850726E+02</rscale>
<asrwt>0</asrwt>
<pdfrwt beam="1">  1        2 0.23871570E-02 0.80850726E+02</pdfrwt>
<pdfrwt beam="2">  1       -1 0.16203177E-01 0.80850726E+02</pdfrwt>
<totfact> 0.11415339E+05</totfact>
</mgrwt>
</event>
<event>
 8    1  0.2433467E-024  0.7722607E+02  0.7818608E-02  0.1337113E+00
          2   -1    0    0  501    0  0.00000000000E+00  0.00000000000E+00  0.10390402115E+04  0.10390402115E+04  0.25500000000E-02 0. -1.
         -1   -1    0    0    0  501 -0.00000000000E+00 -0.00000000000E+00 -0.14349413324E+01  0.14349501835E+01  0.50400000000E-02 0.  1.
         24    2    1    2    0    0  0.00000000000E+00  0.17763568394E-14  0.10376052702E+04  0.10404751617E+04  0.77226066891E+02 0.  0.
         66    2    3    3    0    0  0.20058740925E+02 -0.99509975843E+01  0.94255392597E+03  0.94282197619E+03  0.19999952457E+01 0.  0.
        -13    1    3    3    0    0 -0.20058740925E+02  0.99509975843E+01  0.95051344233E+02  0.97653185534E+02  0.10566000000E+00 0.  1.
         13    1    4    4    0    0  0.12508570755E+02 -0.55146892474E+01  0.57075770854E+03  0.57092140366E+03  0.10566000000E+00 0.  1.
        -13    1    4    4    0    0  0.34570363367E+01 -0.16120621112E+01  0.17418280757E+03  0.17422460062E+03  0.10566000000E+00 0. -1.
        -14    1    4    4    0    0  0.40931338334E+01 -0.28242462258E+01  0.19761340986E+03  0.19767597190E+03  0.00000000000E+00 0.  1.
<mgrwt>
<rscale>  0 0.77226067E+02</rscale>
<asrwt>0</asrwt>
<pdfrwt beam="1">  1        2 0.15985240E+00 0.77226067E+02</pdfrwt>
<pdfrwt beam="2">  1       -1 0.22076080E-03 0.77226067E+02</pdfrwt>
<totfact> 0.38646403E+05</totfact>
</mgrwt>
</event>
<event>
 8    1  0.2433467E-024  0.7847143E+02  0.7818608E-02  0.1333446E+00
         -1   -1    0    0    0  501 -0.00000000000E+00  0.00000000000E+00  0.25435799538E+01  0.25435849471E+01  0.50400000000E-02 0.  1.
          2   -1    0    0  501    0  0.00000000000E+00 -0.00000000000E+00 -0.60522571335E+03  0.60522571335E+03  0.25500000000E-02 0. -1.
         24    2    1    2    0    0  0.35527136788E-14  0.71054273576E-14 -0.60268213340E+03  0.60776929830E+03  0.78471434574E+02 0.  0.
         66    2    3    3    0    0  0.17695250994E+02  0.32989778716E+02 -0.39185530877E+03  0.39364454833E+03  0.20000015718E+01 0.  0.
        -13    1    3    3    0    0 -0.17695250994E+02 -0.32989778716E+02 -0.21082682462E+03  0.21412474997E+03  0.10566000000E+00 0.  1.
         13    1    4    4    0    0  0.10463659995E+02  0.20700272822E+02 -0.24189801679E+03  0.24300751257E+03  0.10566000000E+00 0. -1.
        -13    1    4    4    0    0  0.17046336387E+01  0.29700326899E+01 -0.40586596444E+02  0.40730944563E+02  0.10566000000E+00 0.  1.
         14    1    4    4    0    0  0.55269573599E+01  0.93194732040E+01 -0.10937069554E+03  0.10990609119E+03  0.00000000000E+00 0. -1.
<mgrwt>
<rscale>  0 0.78471435E+02</rscale>
<asrwt>0</asrwt>
<pdfrwt beam="1">  1        2 0.93111533E-01 0.78471435E+02</pdfrwt>
<pdfrwt beam="2">  1       -1 0.39132086E-03 0.78471435E+02</pdfrwt>
<totfact> 0.33898988E+05</totfact>
</mgrwt>
</event>
<event>
 8    1  0.2433467E-024  0.7589147E+02  0.7818608E-02  0.1341132E+00
         -1   -1    0    0    0  501 -0.00000000000E+00  0.00000000000E+00  0.30820738644E+01  0.30820779852E+01  0.50400000000E-02 0.  1.
          2   -1    0    0  501    0  0.00000000000E+00 -0.00000000000E+00 -0.46717823884E+03  0.46717823885E+03  0.25500000000E-02 0. -1.
         24    2    1    2    0    0  0.00000000000E+00 -0.71054273576E-14 -0.46409616498E+03  0.47026031684E+03  0.75891470154E+02 0.  0.
         66    2    3    3    0    0  0.10059631763E+02 -0.35430597739E+02 -0.28809767133E+03  0.29044929277E+03  0.19999983215E+01 0.  0.
        -13    1    3    3    0    0 -0.10059631763E+02  0.35430597739E+02 -0.17599849365E+03  0.17981102407E+03  0.10566000000E+00 0.  1.
         13    1    4    4    0    0  0.42682004373E+01 -0.13289517088E+02 -0.11577296105E+03  0.11661139942E+03  0.10566000000E+00 0. -1.
        -13    1    4    4    0    0  0.19737348921E+01 -0.74146149487E+01 -0.57892136794E+02  0.58398482950E+02  0.10566000000E+00 0.  1.
         14    1    4    4    0    0  0.38176964337E+01 -0.14726465702E+02 -0.11443257349E+03  0.11543941040E+03  0.00000000000E+00 0. -1.
<mgrwt>
<rscale>  0 0.75891470E+02</rscale>
<asrwt>0</asrwt>
<pdfrwt beam="1">  1        2 0.71873519E-01 0.75891470E+02</pdfrwt>
<pdfrwt beam="2">  1       -1 0.47416590E-03 0.75891470E+02</pdfrwt>
<totfact> 0.34166070E+05</totfact>
</mgrwt>
</event>
<event>
 8    1  0.2433467E-024  0.8431606E+02  0.7818608E-02  0.1317231E+00
          2   -1    0    0  501    0  0.00000000000E+00  0.00000000000E+00  0.92871369202E+02  0.92871369237E+02  0.25500000000E-02 0. -1.
         -1   -1    0    0    0  501 -0.00000000000E+00 -0.00000000000E+00 -0.19137214636E+02  0.19137215300E+02  0.50400000000E-02 0.  1.
         24    2    1    2    0    0  0.00000000000E+00  0.00000000000E+00  0.73734154565E+02  0.11200858454E+03  0.84316056955E+02 0.  0.
         66    2    3    3    0    0 -0.23253837938E+01  0.39742675355E+02  0.55218592250E+02  0.68102720850E+02  0.20000007345E+01 0.  0.
        -13    1    3    3    0    0  0.23253837938E+01 -0.39742675355E+02  0.18515562316E+02  0.43905863687E+02  0.10566000000E+00 0.  1.
         13    1    4    4    0    0 -0.73203984590E+00  0.66255466153E+01  0.95732467520E+01  0.11665846206E+02  0.10566000000E+00 0. -1.
        -13    1    4    4    0    0 -0.86402496394E+00  0.18425969523E+02  0.24103563831E+02  0.30352196714E+02  0.10566000000E+00 0.  1.
         14    1    4    4    0    0 -0.72931898397E+00  0.14691159217E+02  0.21541781667E+02  0.26084677930E+02  0.00000000000E+00 0. -1.
<mgrwt>
<rscale>  0 0.84316057E+02</rscale>
<asrwt>0</asrwt>
<pdfrwt beam="1">  1        2 0.14287903E-01 0.84316057E+02</pdfrwt>
<pdfrwt beam="2">  1       -1 0.29441870E-02 0.84316057E+02</pdfrwt>
<totfact> 0.15076249E+05</totfact>
</mgrwt>
</event>
<event>
 8    1  0.2433467E-024  0.7951816E+02  0.7818608E-02  0.1330424E+00
          2   -1    0    0  501    0  0.00000000000E+00  0.00000000000E+00  0.23666575428E+02  0.23666575566E+02  0.25500000000E-02 0. -1.
         -1   -1    0    0    0  501 -0.00000000000E+00 -0.00000000000E+00 -0.66793967088E+02  0.66793967278E+02  0.50400000000E-02 0.  1.
         24    2    1    2    0    0  0.00000000000E+00  0.35527136788E-14 -0.43127391659E+02  0.90460542844E+02  0.79518160820E+02 0.  0.
         66    2    3    3    0    0 -0.54921293205E+01 -0.24992500303E+02  0.13002839324E+02  0.28772597909E+02  0.20000010170E+01 0.  0.
        -13    1    3    3    0    0  0.54921293205E+01  0.24992500303E+02 -0.56130230984E+02  0.61687944934E+02  0.10566000000E+00 0.  1.
         13    1    4    4    0    0 -0.26037692073E+00 -0.19358884781E+01  0.14970852659E+01  0.24633084803E+01  0.10566000000E+00 0. -1.
        -13    1    4    4    0    0 -0.87703542270E+00 -0.27464705279E+01  0.12620748413E+01  0.31490138827E+01  0.10566000000E+00 0. -1.
         14    1    4    4    0    0 -0.43547169771E+01 -0.20310141297E+02  0.10243679217E+02  0.23160275546E+02  0.00000000000E+00 0. -1.
<mgrwt>
<rscale>  0 0.79518161E+02</rscale>
<asrwt>0</asrwt>
<pdfrwt beam="1">  1        2 0.36410117E-02 0.79518161E+02</pdfrwt>
<pdfrwt beam="2">  1       -1 0.10275995E-01 0.79518161E+02</pdfrwt>
<totfact> 0.13062680E+05</totfact>
</mgrwt>
</event>
<event>
 8    1  0.2433467E-024  0.8050962E+02  0.7818608E-02  0.1327611E+00
         -1   -1    0    0    0  501 -0.00000000000E+00  0.00000000000E+00  0.45296561297E+01  0.45296589337E+01  0.50400000000E-02 0.  1.
          2   -1    0    0  501    0  0.00000000000E+00 -0.00000000000E+00 -0.35774218342E+03  0.35774218343E+03  0.25500000000E-02 0. -1.
         24    2    1    2    0    0 -0.88817841970E-15  0.00000000000E+00 -0.35321252729E+03  0.36227184236E+03  0.80509616408E+02 0.  0.
         66    2    3    3    0    0  0.77823101199E+01 -0.33209868903E+02 -0.27269595200E+03  0.27482820450E+03  0.20000010333E+01 0.  0.
        -13    1    3    3    0    0 -0.77823101199E+01  0.33209868903E+02 -0.80516575286E+02  0.87443637866E+02  0.10566000000E+00 0.  1.
         13    1    4    4    0    0  0.45574519462E+00 -0.17207443254E+01 -0.16178028170E+02  0.16276007625E+02  0.10566000000E+00 0. -1.
        -13    1    4    4    0    0  0.49202195596E+01 -0.18981445637E+02 -0.15065258814E+03  0.15192339292E+03  0.10566000000E+00 0.  1.
        -14    1    4    4    0    0  0.24063453657E+01 -0.12507678941E+02 -0.10586533569E+03  0.10662880395E+03  0.00000000000E+00 0.  1.
<mgrwt>
<rscale>  0 0.80509616E+02</rscale>
<asrwt>0</asrwt>
<pdfrwt beam="1">  1        2 0.55037237E-01 0.80509616E+02</pdfrwt>
<pdfrwt beam="2">  1       -1 0.69687068E-03 0.80509616E+02</pdfrwt>
<totfact> 0.26713033E+05</totfact>
</mgrwt>
</event>
<event>
 8    1  0.2433467E-024  0.7861520E+02  0.7818608E-02  0.1333028E+00
          2   -1    0    0  501    0  0.00000000000E+00  0.00000000000E+00  0.92176056734E+03  0.92176056735E+03  0.25500000000E-02 0. -1.
         -1   -1    0    0    0  501 -0.00000000000E+00 -0.00000000000E+00 -0.16762311869E+01  0.16762387638E+01  0.50400000000E-02 0.  1.
         24    2    1    2    0    0  0.00000000000E+00  0.17763568394E-14  0.92008433616E+03  0.92343680611E+03  0.78615197255E+02 0.  0.
         66    2    3    3    0    0 -0.22049461576E+02 -0.15321036486E+02  0.79714626350E+03  0.79760082641E+03  0.19999906065E+01 0.  0.
        -13    1    3    3    0    0  0.22049461576E+02  0.15321036486E+02  0.12293807265E+03  0.12583597970E+03  0.10566000000E+00 0.  1.
         13    1    4    4    0    0 -0.64827489152E+01 -0.49123444687E+01  0.21842285047E+03  0.21857426640E+03  0.10566000000E+00 0.  1.
        -13    1    4    4    0    0 -0.78431023694E+01 -0.53356849636E+01  0.30103585655E+03  0.30118529493E+03  0.10566000000E+00 0. -1.
        -14    1    4    4    0    0 -0.77236102914E+01 -0.50730070536E+01  0.27768755649E+03  0.27784126509E+03  0.00000000000E+00 0.  1.
<mgrwt>
<rscale>  0 0.78615197E+02</rscale>
<asrwt>0</asrwt>
<pdfrwt beam="1">  1        2 0.14180956E+00 0.78615197E+02</pdfrwt>
<pdfrwt beam="2">  1       -1 0.25788187E-03 0.78615197E+02</pdfrwt>
<totfact> 0.36655985E+05</totfact>
</mgrwt>
</event>
<event>
 8    1  0.2433467E-024  0.8031878E+02  0.7818608E-02  0.1328149E+00
          2   -1    0    0  501    0  0.00000000000E+00  0.00000000000E+00  0.31363758949E+03  0.31363758951E+03  0.25500000000E-02 0. -1.
         -1   -1    0    0    0  501 -0.00000000000E+00 -0.00000000000E+00 -0.51421652020E+01  0.51421676719E+01  0.50400000000E-02 0.  1.
         24    2    1    2    0    0  0.00000000000E+00  0.00000000000E+00  0.30849542429E+03  0.31877975718E+03  0.80318782214E+02 0.  0.
         66    2    3    3    0    0  0.13454829872E+02 -0.49941541580E+01  0.30310114942E+03  0.30344732788E+03  0.19999995782E+01 0.  0.
        -13    1    3    3    0    0 -0.13454829872E+02  0.49941541580E+01  0.53942748768E+01  0.15332429296E+02  0.10566000000E+00 0.  1.
         13    1    4    4    0    0  0.15476721664E+01 -0.42410158383E+00  0.29886698572E+02  0.29929935965E+02  0.10566000000E+00 0. -1.
        -13    1    4    4    0    0  0.77621512264E+01 -0.37973703021E+01  0.17815096291E+03  0.17836044338E+03  0.10566000000E+00 0.  1.
        -14    1    4    4    0    0  0.41450064789E+01 -0.77268227201E+00  0.95063487930E+02  0.95156948532E+02  0.00000000000E+00 0.  1.
<mgrwt>
<rscale>  0 0.80318782E+02</rscale>
<asrwt>0</asrwt>
<pdfrwt beam="1">  1        2 0.48251958E-01 0.80318782E+02</pdfrwt>
<pdfrwt beam="2">  1       -1 0.79110218E-03 0.80318782E+02</pdfrwt>
<totfact> 0.25639123E+05</totfact>
</mgrwt>
</event>
<event>
 8    1  0.2433467E-024  0.7950832E+02  0.7818608E-02  0.1330453E+00
          2   -1    0    0  501    0  0.00000000000E+00  0.00000000000E+00  0.19230393772E+02  0.19230393941E+02  0.25500000000E-02 0. -1.
         -1   -1    0    0    0  501 -0.00000000000E+00 -0.00000000000E+00 -0.82182059161E+02  0.82182059315E+02  0.50400000000E-02 0.  1.
         24    2    1    2    0    0  0.00000000000E+00  0.00000000000E+00 -0.62951665389E+02  0.10141245326E+03  0.79508323465E+02 0.  0.
         66    2    3    3    0    0 -0.21728688242E+02  0.20707065935E+02  0.17032077623E+01  0.30130041270E+02  0.19999994749E+01 0.  0.
        -13    1    3    3    0    0  0.21728688242E+02 -0.20707065935E+02 -0.64654873151E+02  0.71282411986E+02  0.10566000000E+00 0.  1.
         13    1    4    4    0    0 -0.96430676825E+01  0.85009846382E+01  0.13221129813E+01  0.12923414445E+02  0.10566000000E+00 0. -1.
        -13    1    4    4    0    0 -0.42614275798E+01  0.44864853254E+01 -0.28385677910E+00  0.61951637831E+01  0.10566000000E+00 0.  1.
        -14    1    4    4    0    0 -0.78241929796E+01  0.77195959712E+01  0.66495156007E+00  0.11011463042E+02  0.00000000000E+00 0.  1.
<mgrwt>
<rscale>  0 0.79508323E+02</rscale>
<asrwt>0</asrwt>
<pdfrwt beam="1">  1        2 0.29585222E-02 0.79508323E+02</pdfrwt>
<pdfrwt beam="2">  1       -1 0.12643394E-01 0.79508323E+02</pdfrwt>
<totfact> 0.12537691E+05</totfact>
</mgrwt>
</event>
<event>
 8    1  0.2433467E-024  0.7959616E+02  0.7818608E-02  0.1330201E+00
          2   -1    0    0  501    0  0.00000000000E+00  0.00000000000E+00  0.82467381232E+03  0.82467381232E+03  0.25500000000E-02 0. -1.
         -1   -1    0    0    0  501 -0.00000000000E+00 -0.00000000000E+00 -0.19206192004E+01  0.19206258133E+01  0.50400000000E-02 0.  1.
         24    2    1    2    0    0  0.00000000000E+00  0.35527136788E-14  0.82275319312E+03  0.82659443814E+03  0.79596158016E+02 0.  0.
         66    2    3    3    0    0 -0.17994119905E+02 -0.29327037052E+02  0.61881763703E+03  0.61977667861E+03  0.19999996349E+01 0.  0.
        -13    1    3    3    0    0  0.17994119905E+02  0.29327037052E+02  0.20393555609E+03  0.20681775952E+03  0.10566000000E+00 0.  1.
         13    1    4    4    0    0 -0.57319537992E+01 -0.78172663181E+01  0.17401116060E+03  0.17428098038E+03  0.10566000000E+00 0. -1.
        -13    1    4    4    0    0 -0.39797927638E+01 -0.75625995803E+01  0.14982806525E+03  0.15007162278E+03  0.10566000000E+00 0.  1.
         14    1    4    4    0    0 -0.82823733425E+01 -0.13947171154E+02  0.29497841118E+03  0.29542407545E+03  0.00000000000E+00 0. -1.
<mgrwt>
<rscale>  0 0.79596158E+02</rscale>
<asrwt>0</asrwt>
<pdfrwt beam="1">  1        2 0.12687329E+00 0.79596158E+02</pdfrwt>
<pdfrwt beam="2">  1       -1 0.29547946E-03 0.79596158E+02</pdfrwt>
<totfact> 0.34995293E+05</totfact>
</mgrwt>
</event>
<event>
 8    1  0.2433467E-024  0.8207277E+02  0.7818608E-02  0.1323270E+00
          2   -1    0    0  501    0  0.00000000000E+00  0.00000000000E+00  0.26782320063E+02  0.26782320184E+02  0.25500000000E-02 0. -1.
         -1   -1    0    0    0  501 -0.00000000000E+00 -0.00000000000E+00 -0.62876742990E+02  0.62876743192E+02  0.50400000000E-02 0.  1.
         24    2    1    2    0    0  0.00000000000E+00  0.00000000000E+00 -0.36094422927E+02  0.89659063376E+02  0.82072774286E+02 0.  0.
         66    2    3    3    0    0  0.46614715589E+01 -0.39265985801E+02 -0.61692724237E+01  0.40070024721E+02  0.20000002077E+01 0.  0.
        -13    1    3    3    0    0 -0.46614715589E+01  0.39265985801E+02 -0.29925150503E+02  0.49589038655E+02  0.10566000000E+00 0.  1.
         13    1    4    4    0    0  0.30752102848E+01 -0.18465710398E+02 -0.31448062817E+01  0.18982632836E+02  0.10566000000E+00 0. -1.
        -13    1    4    4    0    0  0.93239553091E+00 -0.12534278964E+02 -0.21113397077E+01  0.12745447421E+02  0.10566000000E+00 0.  1.
         14    1    4    4    0    0  0.65386574317E+00 -0.82659964394E+01 -0.91312643437E+00  0.83419444635E+01  0.00000000000E+00 0. -1.
<mgrwt>
<rscale>  0 0.82072774E+02</rscale>
<asrwt>0</asrwt>
<pdfrwt beam="1">  1        2 0.41203570E-02 0.82072774E+02</pdfrwt>
<pdfrwt beam="2">  1       -1 0.96733451E-02 0.82072774E+02</pdfrwt>
<totfact> 0.12239911E+05</totfact>
</mgrwt>
</event>
<event>
 8    1  0.2433467E-024  0.7738981E+02  0.7818608E-02  0.1336626E+00
          2   -1    0    0  501    0  0.00000000000E+00  0.00000000000E+00  0.52612778699E+01  0.52612784879E+01  0.25500000000E-02 0. -1.
         -1   -1    0    0    0  501 -0.00000000000E+00 -0.00000000000E+00 -0.28458780412E+03  0.28458780417E+03  0.50400000000E-02 0.  1.
         24    2    1    2    0    0  0.00000000000E+00  0.00000000000E+00 -0.27932652625E+03  0.28984908265E+03  0.77389808422E+02 0.  0.
         66    2    3    3    0    0 -0.38144455341E+02 -0.41732372770E+01 -0.15766941763E+03  0.16228388903E+03  0.19999999062E+01 0.  0.
        -13    1    3    3    0    0  0.38144455341E+02  0.41732372770E+01 -0.12165710862E+03  0.12756519362E+03  0.10566000000E+00 0.  1.
         13    1    4    4    0    0 -0.12970291889E+02 -0.12672632582E+01 -0.53065723885E+02  0.54642626615E+02  0.10566000000E+00 0. -1.
        -13    1    4    4    0    0 -0.14487009746E+02 -0.23770767204E+01 -0.61972843043E+02  0.63688055269E+02  0.10566000000E+00 0.  1.
         14    1    4    4    0    0 -0.10687153706E+02 -0.52889729843E+00 -0.42630850704E+02  0.43953207146E+02  0.00000000000E+00 0. -1.
<mgrwt>
<rscale>  0 0.77389808E+02</rscale>
<asrwt>0</asrwt>
<pdfrwt beam="1">  1        2 0.80942764E-03 0.77389808E+02</pdfrwt>
<pdfrwt beam="2">  1       -1 0.43782727E-01 0.77389808E+02</pdfrwt>
<totfact> 0.96084008E+04</totfact>
</mgrwt>
</event>
<event>
 8    1  0.2433467E-024  0.7784012E+02  0.7818608E-02  0.1335295E+00
          2   -1    0    0  501    0  0.00000000000E+00  0.00000000000E+00  0.11419837053E+03  0.11419837055E+03  0.25500000000E-02 0. -1.
         -1   -1    0    0    0  501 -0.00000000000E+00 -0.00000000000E+00 -0.13264384750E+02  0.13264385708E+02  0.50400000000E-02 0.  1.
         24    2    1    2    0    0 -0.35527136788E-14  0.00000000000E+00  0.10093398578E+03  0.12746275626E+03  0.77840123005E+02 0.  0.
         66    2    3    3    0    0 -0.30345373478E+02 -0.20696768499E+02  0.29557674229E+02  0.47189554433E+02  0.20000059847E+01 0.  0.
        -13    1    3    3    0    0  0.30345373478E+02  0.20696768499E+02  0.71376311546E+02  0.80273201829E+02  0.10566000000E+00 0.  1.
         13    1    4    4    0    0 -0.14355596211E+02 -0.88970542587E+01  0.13528566007E+02  0.21639639075E+02  0.10566000000E+00 0. -1.
        -13    1    4    4    0    0 -0.54754089762E+01 -0.43282001484E+01  0.61428651866E+01  0.92983534412E+01  0.10566000000E+00 0.  1.
         14    1    4    4    0    0 -0.10514368291E+02 -0.74715140921E+01  0.98862430352E+01  0.16251561917E+02  0.00000000000E+00 0. -1.
<mgrwt>
<rscale>  0 0.77840123E+02</rscale>
<asrwt>0</asrwt>
<pdfrwt beam="1">  1        2 0.17568980E-01 0.77840123E+02</pdfrwt>
<pdfrwt beam="2">  1       -1 0.20406746E-02 0.77840123E+02</pdfrwt>
<totfact> 0.19807774E+05</totfact>
</mgrwt>
</event>
<event>
 8    1  0.2433467E-024  0.7996276E+02  0.7818608E-02  0.1329157E+00
         -1   -1    0    0    0  501 -0.00000000000E+00  0.00000000000E+00  0.26518078866E+02  0.26518079345E+02  0.50400000000E-02 0.  1.
          2   -1    0    0  501    0  0.00000000000E+00 -0.00000000000E+00 -0.60280040326E+02  0.60280040380E+02  0.25500000000E-02 0. -1.
         24    2    1    2    0    0 -0.35527136788E-14 -0.35527136788E-14 -0.33761961460E+02  0.86798119725E+02  0.79962763498E+02 0.  0.
         66    2    3    3    0    0  0.18311027112E+02  0.19841460256E+02 -0.48863116786E+02  0.55862164670E+02  0.20000001452E+01 0.  0.
        -13    1    3    3    0    0 -0.18311027112E+02 -0.19841460256E+02  0.15101155326E+02  0.30935955055E+02  0.10566000000E+00 0.  1.
         13    1    4    4    0    0  0.58820314363E+01  0.62413058371E+01 -0.15763116640E+02  0.17945450750E+02  0.10566000000E+00 0.  1.
        -13    1    4    4    0    0  0.30932743335E+00  0.59586086234E+00 -0.17535793528E+01  0.18806749349E+01  0.10566000000E+00 0.  1.
         14    1    4    4    0    0  0.12119668242E+02  0.13004293556E+02 -0.31346420793E+02  0.36036038985E+02  0.00000000000E+00 0. -1.
<mgrwt>
<rscale>  0 0.79962763E+02</rscale>
<asrwt>0</asrwt>
<pdfrwt beam="1">  1        2 0.92738524E-02 0.79962763E+02</pdfrwt>
<pdfrwt beam="2">  1       -1 0.40797045E-02 0.79962763E+02</pdfrwt>
<totfact> 0.15602704E+05</totfact>
</mgrwt>
</event>
<event>
 8    1  0.2433467E-024  0.8160363E+02  0.7818608E-02  0.1324561E+00
          2   -1    0    0  501    0  0.00000000000E+00  0.00000000000E+00  0.36510990903E+03  0.36510990904E+03  0.25500000000E-02 0. -1.
         -1   -1    0    0    0  501 -0.00000000000E+00 -0.00000000000E+00 -0.45596891208E+01  0.45596919063E+01  0.50400000000E-02 0.  1.
         24    2    1    2    0    0  0.00000000000E+00  0.00000000000E+00  0.36055021991E+03  0.36966960095E+03  0.81603632189E+02 0.  0.
         66    2    3    3    0    0 -0.25938141169E+02  0.31068296081E+02  0.20292307190E+03  0.20692945488E+03  0.19999994648E+01 0.  0.
        -13    1    3    3    0    0  0.25938141169E+02 -0.31068296081E+02  0.15762714802E+03  0.16274014607E+03  0.10566000000E+00 0.  1.
         13    1    4    4    0    0 -0.75886474868E+01  0.10022299443E+02  0.64768692372E+02  0.65977486558E+02  0.10566000000E+00 0. -1.
        -13    1    4    4    0    0 -0.62625885899E+01  0.64949371496E+01  0.45723592569E+02  0.46605389236E+02  0.10566000000E+00 0.  1.
         14    1    4    4    0    0 -0.12086905092E+02  0.14551059489E+02  0.92430786956E+02  0.94346579081E+02  0.00000000000E+00 0. -1.
<mgrwt>
<rscale>  0 0.81603632E+02</rscale>
<asrwt>0</asrwt>
<pdfrwt beam="1">  1        2 0.56170767E-01 0.81603632E+02</pdfrwt>
<pdfrwt beam="2">  1       -1 0.70149070E-03 0.81603632E+02</pdfrwt>
<totfact> 0.25972937E+05</totfact>
</mgrwt>
</event>
<event>
 8    1  0.2433467E-024  0.7983731E+02  0.7818608E-02  0.1329514E+00
         -1   -1    0    0    0  501 -0.00000000000E+00  0.00000000000E+00  0.17143080316E+02  0.17143081057E+02  0.50400000000E-02 0.  1.
          2   -1    0    0  501    0  0.00000000000E+00 -0.00000000000E+00 -0.92952904303E+02  0.92952904338E+02  0.25500000000E-02 0. -1.
         24    2    1    2    0    0  0.00000000000E+00  0.00000000000E+00 -0.75809823987E+02  0.11009598539E+03  0.79837313250E+02 0.  0.
         66    2    3    3    0    0  0.21117728788E+02 -0.32184429744E+02 -0.52371896209E+02  0.65027774761E+02  0.19999976745E+01 0.  0.
        -13    1    3    3    0    0 -0.21117728788E+02  0.32184429744E+02 -0.23437927778E+02  0.45068210633E+02  0.10566000000E+00 0.  1.
         13    1    4    4    0    0  0.92932613641E+01 -0.14714237064E+02 -0.23237013849E+02  0.29031766323E+02  0.10566000000E+00 0. -1.
        -13    1    4    4    0    0  0.95032745564E+01 -0.13559262811E+02 -0.22001909455E+02  0.27536539705E+02  0.10566000000E+00 0.  1.
        -14    1    4    4    0    0  0.23211928677E+01 -0.39109298695E+01 -0.71329729055E+01  0.84594687330E+01  0.00000000000E+00 0.  1.
<mgrwt>
<rscale>  0 0.79837313E+02</rscale>
<asrwt>0</asrwt>
<pdfrwt beam="1">  1        2 0.14300447E-01 0.79837313E+02</pdfrwt>
<pdfrwt beam="2">  1       -1 0.26373971E-02 0.79837313E+02</pdfrwt>
<totfact> 0.17466977E+05</totfact>
</mgrwt>
</event>
<event>
 8    1  0.2433467E-024  0.7669604E+02  0.7818608E-02  0.1338698E+00
          2   -1    0    0  501    0  0.00000000000E+00  0.00000000000E+00  0.29381308954E+03  0.29381308956E+03  0.25500000000E-02 0. -1.
         -1   -1    0    0    0  501 -0.00000000000E+00 -0.00000000000E+00 -0.50051219058E+01  0.50051244434E+01  0.50400000000E-02 0.  1.
         24    2    1    2    0    0  0.00000000000E+00  0.00000000000E+00  0.28880796764E+03  0.29881821400E+03  0.76696041918E+02 0.  0.
         66    2    3    3    0    0  0.32137211422E+02  0.74061039154E+01  0.22054297099E+03  0.22300415419E+03  0.19999999287E+01 0.  0.
        -13    1    3    3    0    0 -0.32137211422E+02 -0.74061039154E+01  0.68264996645E+02  0.75814059805E+02  0.10566000000E+00 0.  1.
         13    1    4    4    0    0  0.25460615972E+02  0.53600603184E+01  0.17330390839E+03  0.17524619551E+03  0.10566000000E+00 0. -1.
        -13    1    4    4    0    0  0.61612803535E+01  0.20702515308E+01  0.44182710523E+02  0.44658374244E+02  0.10566000000E+00 0.  1.
         14    1    4    4    0    0  0.51531509624E+00 -0.24207933806E-01  0.30563520784E+01  0.30995844398E+01  0.00000000000E+00 0. -1.
<mgrwt>
<rscale>  0 0.76696042E+02</rscale>
<asrwt>0</asrwt>
<pdfrwt beam="1">  1        2 0.45202016E-01 0.76696042E+02</pdfrwt>
<pdfrwt beam="2">  1       -1 0.77001891E-03 0.76696042E+02</pdfrwt>
<totfact> 0.28255635E+05</totfact>
</mgrwt>
</event>
<event>
 8    1  0.2433467E-024  0.7901981E+02  0.7818608E-02  0.1331856E+00
          2   -1    0    0  501    0  0.00000000000E+00  0.00000000000E+00  0.15040691153E+03  0.15040691155E+03  0.25500000000E-02 0. -1.
         -1   -1    0    0    0  501 -0.00000000000E+00 -0.00000000000E+00 -0.10378727355E+02  0.10378728579E+02  0.50400000000E-02 0.  1.
         24    2    1    2    0    0  0.00000000000E+00  0.00000000000E+00  0.14002818417E+03  0.16078564013E+03  0.79019805800E+02 0.  0.
         66    2    3    3    0    0 -0.32647941928E+02  0.88447569101E+01  0.11150533760E+03  0.11653994229E+03  0.19999993266E+01 0.  0.
        -13    1    3    3    0    0  0.32647941928E+02 -0.88447569101E+01  0.28522846568E+02  0.44245697840E+02  0.10566000000E+00 0.  1.
         13    1    4    4    0    0 -0.17837963870E+02  0.42192807643E+01  0.61331021379E+02  0.64011722619E+02  0.10566000000E+00 0. -1.
        -13    1    4    4    0    0 -0.12660571710E+02  0.41204193375E+01  0.44036417054E+02  0.46005272768E+02  0.10566000000E+00 0.  1.
         14    1    4    4    0    0 -0.21494063484E+01  0.50505680824E+00  0.61378991706E+01  0.65229468999E+01  0.00000000000E+00 0. -1.
<mgrwt>
<rscale>  0 0.79019806E+02</rscale>
<asrwt>0</asrwt>
<pdfrwt beam="1">  1        2 0.23139524E-01 0.79019806E+02</pdfrwt>
<pdfrwt beam="2">  1       -1 0.15967274E-02 0.79019806E+02</pdfrwt>
<totfact> 0.20713665E+05</totfact>
</mgrwt>
</event>
<event>
 8    1  0.2433467E-024  0.8516135E+02  0.7818608E-02  0.1315011E+00
         -1   -1    0    0    0  501 -0.00000000000E+00  0.00000000000E+00  0.56812295560E+01  0.56812317915E+01  0.50400000000E-02 0.  1.
          2   -1    0    0  501    0  0.00000000000E+00 -0.00000000000E+00 -0.31914101780E+03  0.31914101781E+03  0.25500000000E-02 0. -1.
         24    2    1    2    0    0  0.00000000000E+00  0.00000000000E+00 -0.31345978824E+03  0.32482224960E+03  0.85161346809E+02 0.  0.
         66    2    3    3    0    0 -0.16183617644E+02 -0.36592369837E+02 -0.21211508906E+03  0.21586505513E+03  0.20000023025E+01 0.  0.
        -13    1    3    3    0    0  0.16183617644E+02  0.36592369837E+02 -0.10134469919E+03  0.10895719448E+03  0.10566000000E+00 0.  1.
         13    1    4    4    0    0 -0.61377181718E+01 -0.13473617081E+02 -0.77910394348E+02  0.79304795902E+02  0.10566000000E+00 0. -1.
        -13    1    4    4    0    0 -0.10639064758E+01 -0.27159741248E+01 -0.13142994340E+02  0.13463204548E+02  0.10566000000E+00 0.  1.
        -14    1    4    4    0    0 -0.89819929962E+01 -0.20402778632E+02 -0.12106170037E+03  0.12309705468E+03  0.00000000000E+00 0.  1.
<mgrwt>
<rscale>  0 0.85161347E+02</rscale>
<asrwt>0</asrwt>
<pdfrwt beam="1">  1        2 0.49098604E-01 0.85161347E+02</pdfrwt>
<pdfrwt beam="2">  1       -1 0.87403574E-03 0.85161347E+02</pdfrwt>
<totfact> 0.22121164E+05</totfact>
</mgrwt>
</event>
<event>
 8    1  0.2433467E-024  0.7979762E+02  0.7818608E-02  0.1329627E+00
         -1   -1    0    0    0  501 -0.00000000000E+00  0.00000000000E+00  0.51009016757E+02  0.51009017006E+02  0.50400000000E-02 0.  1.
          2   -1    0    0  501    0  0.00000000000E+00 -0.00000000000E+00 -0.31208506079E+02  0.31208506183E+02  0.25500000000E-02 0. -1.
         24    2    1    2    0    0  0.35527136788E-14  0.00000000000E+00  0.19800510678E+02  0.82217523189E+02  0.79797624628E+02 0.  0.
         66    2    3    3    0    0 -0.17225601670E+02  0.16097985885E+02 -0.23225255529E+02  0.33155376639E+02  0.20000008137E+01 0.  0.
        -13    1    3    3    0    0  0.17225601670E+02 -0.16097985885E+02  0.43025766206E+02  0.49062146550E+02  0.10566000000E+00 0.  1.
         13    1    4    4    0    0 -0.12878385709E+01  0.13626199241E+01 -0.18033431848E+01  0.26035498689E+01  0.10566000000E+00 0. -1.
        -13    1    4    4    0    0 -0.51996853792E+01  0.36895595276E+01 -0.64475178740E+01  0.90681435984E+01  0.10566000000E+00 0.  1.
        -14    1    4    4    0    0 -0.10738077720E+02  0.11045806433E+02 -0.14974394470E+02  0.21483683172E+02  0.00000000000E+00 0.  1.
<mgrwt>
<rscale>  0 0.79797625E+02</rscale>
<asrwt>0</asrwt>
<pdfrwt beam="1">  1        2 0.48013086E-02 0.79797625E+02</pdfrwt>
<pdfrwt beam="2">  1       -1 0.78475411E-02 0.79797625E+02</pdfrwt>
<totfact> 0.13657075E+05</totfact>
</mgrwt>
</event>
<event>
 8    1  0.2433467E-024  0.8050351E+02  0.7818608E-02  0.1327629E+00
          2   -1    0    0  501    0  0.00000000000E+00  0.00000000000E+00  0.51250141538E+03  0.51250141539E+03  0.25500000000E-02 0. -1.
         -1   -1    0    0    0  501 -0.00000000000E+00 -0.00000000000E+00 -0.31613624236E+01  0.31613664411E+01  0.50400000000E-02 0.  1.
         24    2    1    2    0    0  0.00000000000E+00  0.55511151231E-16  0.50934005296E+03  0.51566278183E+03  0.80503509343E+02 0.  0.
         66    2    3    3    0    0 -0.30757400566E+02 -0.38898880016E+00  0.42087920183E+03  0.42200648280E+03  0.19999971464E+01 0.  0.
        -13    1    3    3    0    0  0.30757400566E+02  0.38898880016E+00  0.88460851128E+02  0.93656299031E+02  0.10566000000E+00 0.  1.
         13    1    4    4    0    0 -0.66290637113E+01 -0.15043043082E+00  0.97712129832E+02  0.97936911302E+02  0.10566000000E+00 0. -1.
        -13    1    4    4    0    0 -0.10878421686E+02 -0.78335339465E+00  0.14472407032E+03  0.14513449416E+03  0.10566000000E+00 0.  1.
         14    1    4    4    0    0 -0.13249915169E+02  0.54479502532E+00  0.17844300168E+03  0.17893507734E+03  0.00000000000E+00 0. -1.
<mgrwt>
<rscale>  0 0.80503509E+02</rscale>
<asrwt>0</asrwt>
<pdfrwt beam="1">  1        2 0.78846370E-01 0.80503509E+02</pdfrwt>
<pdfrwt beam="2">  1       -1 0.48636377E-03 0.80503509E+02</pdfrwt>
<totfact> 0.30192372E+05</totfact>
</mgrwt>
</event>
<event>
 8    1  0.2433467E-024  0.7984934E+02  0.7818608E-02  0.1329480E+00
          2   -1    0    0  501    0  0.00000000000E+00  0.00000000000E+00  0.25980616749E+03  0.25980616751E+03  0.25500000000E-02 0. -1.
         -1   -1    0    0    0  501 -0.00000000000E+00 -0.00000000000E+00 -0.61352619963E+01  0.61352640664E+01  0.50400000000E-02 0.  1.
         24    2    1    2    0    0  0.00000000000E+00  0.00000000000E+00  0.25367090550E+03  0.26594143157E+03  0.79849337700E+02 0.  0.
         66    2    3    3    0    0 -0.11269255136E+02 -0.10683022362E+02  0.24932523460E+03  0.24981632389E+03  0.19999991139E+01 0.  0.
        -13    1    3    3    0    0  0.11269255136E+02  0.10683022362E+02  0.43456708956E+01  0.16125107679E+02  0.10566000000E+00 0.  1.
         13    1    4    4    0    0 -0.69982777682E+01 -0.76972751506E+01  0.16331406232E+03  0.16364509785E+03  0.10566000000E+00 0. -1.
        -13    1    4    4    0    0 -0.17779395369E+01 -0.91321490327E+00  0.34865538089E+02  0.34922942899E+02  0.10566000000E+00 0.  1.
         14    1    4    4    0    0 -0.24930378305E+01 -0.20725323077E+01  0.51145634196E+02  0.51248283143E+02  0.00000000000E+00 0. -1.
<mgrwt>
<rscale>  0 0.79849338E+02</rscale>
<asrwt>0</asrwt>
<pdfrwt beam="1">  1        2 0.39970170E-01 0.79849338E+02</pdfrwt>
<pdfrwt beam="2">  1       -1 0.94388685E-03 0.79849338E+02</pdfrwt>
<totfact> 0.24320873E+05</totfact>
</mgrwt>
</event>
<event>
 8    1  0.2433467E-024  0.8055591E+02  0.7818608E-02  0.1327481E+00
          2   -1    0    0  501    0  0.00000000000E+00  0.00000000000E+00  0.14957927785E+03  0.14957927787E+03  0.25500000000E-02 0. -1.
         -1   -1    0    0    0  501 -0.00000000000E+00 -0.00000000000E+00 -0.10845843838E+02  0.10845845009E+02  0.50400000000E-02 0.  1.
         24    2    1    2    0    0  0.00000000000E+00  0.00000000000E+00  0.13873343401E+03  0.16042512288E+03  0.80555908154E+02 0.  0.
         66    2    3    3    0    0  0.29571937843E+01 -0.38826405877E+02  0.89725708677E+02  0.97831168740E+02  0.19999977674E+01 0.  0.
        -13    1    3    3    0    0 -0.29571937843E+01  0.38826405877E+02  0.49007725331E+02  0.62593954137E+02  0.10566000000E+00 0.  1.
         13    1    4    4    0    0  0.78532042585E+00 -0.91931498758E+01  0.19347539425E+02  0.21435232181E+02  0.10566000000E+00 0. -1.
        -13    1    4    4    0    0  0.14874846167E+01 -0.18656546233E+02  0.45034763601E+02  0.48769051913E+02  0.10566000000E+00 0.  1.
         14    1    4    4    0    0  0.68438874174E+00 -0.10976709768E+02  0.25343405651E+02  0.27626884646E+02  0.00000000000E+00 0. -1.
<mgrwt>
<rscale>  0 0.80555908E+02</rscale>
<asrwt>0</asrwt>
<pdfrwt beam="1">  1        2 0.23012195E-01 0.80555908E+02</pdfrwt>
<pdfrwt beam="2">  1       -1 0.16685916E-02 0.80555908E+02</pdfrwt>
<totfact> 0.19647386E+05</totfact>
</mgrwt>
</event>
<event>
 8    1  0.2433467E-024  0.7931293E+02  0.7818608E-02  0.1331013E+00
         -1   -1    0    0    0  501 -0.00000000000E+00  0.00000000000E+00  0.43531352589E+01  0.43531381765E+01  0.50400000000E-02 0.  1.
          2   -1    0    0  501    0  0.00000000000E+00 -0.00000000000E+00 -0.36126484808E+03  0.36126484809E+03  0.25500000000E-02 0. -1.
         24    2    1    2    0    0  0.00000000000E+00  0.00000000000E+00 -0.35691171282E+03  0.36561798627E+03  0.79312931682E+02 0.  0.
         66    2    3    3    0    0 -0.21406019368E+00  0.38345511210E+02 -0.22471469860E+03  0.22797175208E+03  0.19999822350E+01 0.  0.
        -13    1    3    3    0    0  0.21406019368E+00 -0.38345511210E+02 -0.13219701422E+03  0.13764623418E+03  0.10566000000E+00 0.  1.
         13    1    4    4    0    0  0.11770152726E+00  0.10117563483E+02 -0.57345880759E+02  0.58231779541E+02  0.10566000000E+00 0. -1.
        -13    1    4    4    0    0 -0.49378706827E+00  0.43709507681E+01 -0.28126418194E+02  0.28468501905E+02  0.10566000000E+00 0.  1.
        -14    1    4    4    0    0  0.16202534733E+00  0.23856996959E+02 -0.13924239965E+03  0.14127147064E+03  0.00000000000E+00 0.  1.
<mgrwt>
<rscale>  0 0.79312932E+02</rscale>
<asrwt>0</asrwt>
<pdfrwt beam="1">  1        2 0.55579184E-01 0.79312932E+02</pdfrwt>
<pdfrwt beam="2">  1       -1 0.66971363E-03 0.79312932E+02</pdfrwt>
<totfact> 0.27876970E+05</totfact>
</mgrwt>
</event>
<event>
 8    1  0.2433467E-024  0.8016627E+02  0.7818608E-02  0.1328580E+00
          2   -1    0    0  501    0  0.00000000000E+00  0.00000000000E+00  0.11671211590E+03  0.11671211593E+03  0.25500000000E-02 0. -1.
         -1   -1    0    0    0  501 -0.00000000000E+00 -0.00000000000E+00 -0.13765988264E+02  0.13765989187E+02  0.50400000000E-02 0.  1.
         24    2    1    2    0    0  0.17763568394E-14  0.00000000000E+00  0.10294612764E+03  0.13047810512E+03  0.80166269212E+02 0.  0.
         66    2    3    3    0    0  0.11797730195E+02  0.33504394475E+02  0.21364992270E+02  0.41499322822E+02  0.20000032727E+01 0.  0.
        -13    1    3    3    0    0 -0.11797730195E+02 -0.33504394475E+02  0.81581135369E+02  0.88978782297E+02  0.10566000000E+00 0.  1.
         13    1    4    4    0    0  0.12118508860E+01  0.51036666310E+01  0.30666234011E+01  0.60771159911E+01  0.10566000000E+00 0. -1.
        -13    1    4    4    0    0  0.26535962272E+01  0.67771009657E+01  0.49268709693E+01  0.87895330945E+01  0.10566000000E+00 0.  1.
         14    1    4    4    0    0  0.79322830813E+01  0.21623626878E+02  0.13371497900E+02  0.26632673736E+02  0.00000000000E+00 0. -1.
<mgrwt>
<rscale>  0 0.80166269E+02</rscale>
<asrwt>0</asrwt>
<pdfrwt beam="1">  1        2 0.17955710E-01 0.80166269E+02</pdfrwt>
<pdfrwt beam="2">  1       -1 0.21178445E-02 0.80166269E+02</pdfrwt>
<totfact> 0.18430266E+05</totfact>
</mgrwt>
</event>
<event>
 8    1  0.2433467E-024  0.7617350E+02  0.7818608E-02  0.1340275E+00
         -1   -1    0    0    0  501 -0.00000000000E+00  0.00000000000E+00  0.15811725537E+01  0.15811805862E+01  0.50400000000E-02 0.  1.
          2   -1    0    0  501    0  0.00000000000E+00 -0.00000000000E+00 -0.91741849690E+03  0.91741849691E+03  0.25500000000E-02 0. -1.
         24    2    1    2    0    0  0.00000000000E+00  0.00000000000E+00 -0.91583732435E+03  0.91899967749E+03  0.76173503008E+02 0.  0.
         66    2    3    3    0    0 -0.22544765033E+02  0.13120203698E+02 -0.79261756799E+03  0.79304918843E+03  0.19999993604E+01 0.  0.
        -13    1    3    3    0    0  0.22544765033E+02 -0.13120203698E+02 -0.12321975635E+03  0.12595048906E+03  0.10566000000E+00 0.  1.
         13    1    4    4    0    0 -0.87164052384E+01  0.55499798251E+01 -0.32400260656E+03  0.32416736143E+03  0.10566000000E+00 0. -1.
        -13    1    4    4    0    0 -0.13530476307E+02  0.74984502077E+01 -0.45353429929E+03  0.45379805238E+03  0.10566000000E+00 0.  1.
        -14    1    4    4    0    0 -0.29788348706E+00  0.71773664715E-01 -0.15080662144E+02  0.15083774618E+02  0.00000000000E+00 0.  1.
<mgrwt>
<rscale>  0 0.76173503E+02</rscale>
<asrwt>0</asrwt>
<pdfrwt beam="1">  1        2 0.14114088E+00 0.76173503E+02</pdfrwt>
<pdfrwt beam="2">  1       -1 0.24325867E-03 0.76173503E+02</pdfrwt>
<totfact> 0.39756072E+05</totfact>
</mgrwt>
</event>
<event>
 8    1  0.2433467E-024  0.7881463E+02  0.7818608E-02  0.1332449E+00
         -1   -1    0    0    0  501 -0.00000000000E+00  0.00000000000E+00  0.79973069288E+00  0.79974657407E+00  0.50400000000E-02 0.  1.
          2   -1    0    0  501    0  0.00000000000E+00 -0.00000000000E+00 -0.19418052005E+04  0.19418052005E+04  0.25500000000E-02 0. -1.
         24    2    1    2    0    0  0.22204460493E-15  0.00000000000E+00 -0.19410054698E+04  0.19426049471E+04  0.78814634314E+02 0.  0.
         66    2    3    3    0    0  0.19928175504E+01 -0.10522232973E+02 -0.19052220988E+04  0.19052532468E+04  0.20000000873E+01 0.  0.
        -13    1    3    3    0    0 -0.19928175504E+01  0.10522232973E+02 -0.35783371059E+02  0.37351700322E+02  0.10566000000E+00 0.  1.
         13    1    4    4    0    0  0.10656867940E+01 -0.63942299787E+01 -0.11614915573E+04  0.11615096516E+04  0.10566000000E+00 0. -1.
        -13    1    4    4    0    0  0.91988174121E+00 -0.32903352747E+01 -0.66033052071E+03  0.66033936747E+03  0.10566000000E+00 0.  1.
         14    1    4    4    0    0  0.72490151948E-02 -0.83766771999E+00 -0.83400020750E+02  0.83404227715E+02  0.00000000000E+00 0. -1.
<mgrwt>
<rscale>  0 0.78814634E+02</rscale>
<asrwt>0</asrwt>
<pdfrwt beam="1">  1        2 0.29873549E+00 0.78814634E+02</pdfrwt>
<pdfrwt beam="2">  1       -1 0.12303827E-03 0.78814634E+02</pdfrwt>
<totfact> 0.29632393E+05</totfact>
</mgrwt>
</event>
<event>
 8    1  0.2433467E-024  0.7915600E+02  0.7818608E-02  0.1331464E+00
          2   -1    0    0  501    0  0.00000000000E+00  0.00000000000E+00  0.56990419362E+02  0.56990419419E+02  0.25500000000E-02 0. -1.
         -1   -1    0    0    0  501 -0.00000000000E+00 -0.00000000000E+00 -0.27485636906E+02  0.27485637368E+02  0.50400000000E-02 0.  1.
         24    2    1    2    0    0  0.00000000000E+00  0.00000000000E+00  0.29504782456E+02  0.84476056787E+02  0.79155997767E+02 0.  0.
         66    2    3    3    0    0 -0.77457703977E+01  0.36239076864E+02  0.29516528589E+02  0.47418278211E+02  0.19999993884E+01 0.  0.
        -13    1    3    3    0    0  0.77457703977E+01 -0.36239076864E+02 -0.11746132802E-01  0.37057778576E+02  0.10566000000E+00 0.  1.
         13    1    4    4    0    0 -0.21299162793E+01  0.70535300232E+01  0.56387934385E+01  0.92787921963E+01  0.10566000000E+00 0. -1.
        -13    1    4    4    0    0 -0.26434982084E+01  0.11205005718E+02  0.90064455198E+01  0.14617368465E+02  0.10566000000E+00 0.  1.
         14    1    4    4    0    0 -0.29723559100E+01  0.17980541123E+02  0.14871289631E+02  0.23522117549E+02  0.00000000000E+00 0. -1.
<mgrwt>
<rscale>  0 0.79155998E+02</rscale>
<asrwt>0</asrwt>
<pdfrwt beam="1">  1        2 0.87677568E-02 0.79155998E+02</pdfrwt>
<pdfrwt beam="2">  1       -1 0.42285596E-02 0.79155998E+02</pdfrwt>
<totfact> 0.15834816E+05</totfact>
</mgrwt>
</event>
<event>
 8    1  0.2433467E-024  0.7856792E+02  0.7818608E-02  0.1333165E+00
          2   -1    0    0  501    0  0.00000000000E+00  0.00000000000E+00  0.24037115338E+03  0.24037115339E+03  0.25500000000E-02 0. -1.
         -1   -1    0    0    0  501 -0.00000000000E+00 -0.00000000000E+00 -0.64201936353E+01  0.64201956135E+01  0.50400000000E-02 0.  1.
         24    2    1    2    0    0  0.00000000000E+00  0.00000000000E+00  0.23395095974E+03  0.24679134901E+03  0.78567922075E+02 0.  0.
         66    2    3    3    0    0 -0.38948063596E+02  0.49267445558E+01  0.11700830325E+03  0.12343487151E+03  0.20000009951E+01 0.  0.
        -13    1    3    3    0    0  0.38948063596E+02 -0.49267445558E+01  0.11694265649E+03  0.12335647750E+03  0.10566000000E+00 0.  1.
         13    1    4    4    0    0 -0.14151200297E+02  0.11049622970E+01  0.42221437278E+02  0.44543667804E+02  0.10566000000E+00 0. -1.
        -13    1    4    4    0    0 -0.46001724595E+01  0.83699203520E+00  0.15257822462E+02  0.15958522884E+02  0.10566000000E+00 0.  1.
         14    1    4    4    0    0 -0.20196690839E+02  0.29847902235E+01  0.59529043511E+02  0.62932680818E+02  0.00000000000E+00 0. -1.
<mgrwt>
<rscale>  0 0.78567922E+02</rscale>
<asrwt>0</asrwt>
<pdfrwt beam="1">  1        2 0.36980178E-01 0.78567922E+02</pdfrwt>
<pdfrwt beam="2">  1       -1 0.98772225E-03 0.78567922E+02</pdfrwt>
<totfact> 0.24679790E+05</totfact>
</mgrwt>
</event>
<event>
 8    1  0.2433467E-024  0.7998275E+02  0.7818608E-02  0.1329100E+00
         -1   -1    0    0    0  501 -0.00000000000E+00  0.00000000000E+00  0.63203035082E+01  0.63203055177E+01  0.50400000000E-02 0.  1.
          2   -1    0    0  501    0  0.00000000000E+00 -0.00000000000E+00 -0.25304317911E+03  0.25304317912E+03  0.25500000000E-02 0. -1.
         24    2    1    2    0    0 -0.17763568394E-14 -0.71054273576E-14 -0.24672287560E+03  0.25936348464E+03  0.79982747013E+02 0.  0.
         66    2    3    3    0    0  0.96223267119E+01  0.33648066981E+02 -0.18602610157E+03  0.18930000539E+03  0.19999980427E+01 0.  0.
        -13    1    3    3    0    0 -0.96223267119E+01 -0.33648066981E+02 -0.60696774034E+02  0.70063479254E+02  0.10566000000E+00 0.  1.
         13    1    4    4    0    0  0.31972582738E+01  0.13582607474E+02 -0.77047202713E+02  0.78300653229E+02  0.10566000000E+00 0. -1.
        -13    1    4    4    0    0  0.25091631440E+01  0.72057304959E+01 -0.37953975696E+02  0.38713484561E+02  0.10566000000E+00 0. -1.
         14    1    4    4    0    0  0.39159052942E+01  0.12859729011E+02 -0.71024923158E+02  0.72285867596E+02  0.00000000000E+00 0. -1.
<mgrwt>
<rscale>  0 0.79982747E+02</rscale>
<asrwt>0</asrwt>
<pdfrwt beam="1">  1        2 0.38929712E-01 0.79982747E+02</pdfrwt>
<pdfrwt beam="2">  1       -1 0.97235474E-03 0.79982747E+02</pdfrwt>
<totfact> 0.23985681E+05</totfact>
</mgrwt>
</event>
<event>
 8    1  0.2433467E-024  0.7933436E+02  0.7818608E-02  0.1330951E+00
          2   -1    0    0  501    0  0.00000000000E+00  0.00000000000E+00  0.17757179886E+01  0.17757198195E+01  0.25500000000E-02 0. -1.
         -1   -1    0    0    0  501 -0.00000000000E+00 -0.00000000000E+00 -0.88611170918E+03  0.88611170919E+03  0.50400000000E-02 0.  1.
         24    2    1    2    0    0  0.00000000000E+00  0.00000000000E+00 -0.88433599119E+03  0.88788742901E+03  0.79334363830E+02 0.  0.
         66    2    3    3    0    0 -0.20549069131E+02 -0.25513061181E+02 -0.69227669771E+03  0.69305425958E+03  0.20000010289E+01 0.  0.
        -13    1    3    3    0    0  0.20549069131E+02  0.25513061181E+02 -0.19205929349E+03  0.19483316943E+03  0.10566000000E+00 0.  1.
         13    1    4    4    0    0 -0.78260672288E+01 -0.10574894927E+02 -0.26908512766E+03  0.26940655676E+03  0.10566000000E+00 0. -1.
        -13    1    4    4    0    0 -0.12213229899E+01 -0.16570341952E+01 -0.38488552564E+02  0.38543705513E+02  0.10566000000E+00 0.  1.
         14    1    4    4    0    0 -0.11501678912E+02 -0.13281132059E+02 -0.38470301748E+03  0.38510399731E+03  0.00000000000E+00 0. -1.
<mgrwt>
<rscale>  0 0.79334364E+02</rscale>
<asrwt>0</asrwt>
<pdfrwt beam="1">  1        2 0.27318823E-03 0.79334364E+02</pdfrwt>
<pdfrwt beam="2">  1       -1 0.13632453E+00 0.79334364E+02</pdfrwt>
<totfact> 0.42568531E+04</totfact>
</mgrwt>
</event>
<event>
 8    1  0.2433467E-024  0.7811188E+02  0.7818608E-02  0.1334497E+00
          2   -1    0    0  501    0  0.00000000000E+00  0.00000000000E+00  0.13660427405E+04  0.13660427405E+04  0.25500000000E-02 0. -1.
         -1   -1    0    0    0  501 -0.00000000000E+00 -0.00000000000E+00 -0.11166258141E+01  0.11166371883E+01  0.50400000000E-02 0.  1.
         24    2    1    2    0    0  0.17763568394E-14  0.17763568394E-14  0.13649261147E+04  0.13671593777E+04  0.78111877817E+02 0.  0.
         66    2    3    3    0    0 -0.13509551127E+02 -0.13892667380E+02  0.12758947774E+04  0.12760434935E+04  0.19999976917E+01 0.  0.
        -13    1    3    3    0    0  0.13509551127E+02  0.13892667380E+02  0.89031337249E+02  0.91115884208E+02  0.10566000000E+00 0.  1.
         13    1    4    4    0    0 -0.15043161329E+01 -0.18844239381E+01  0.13582790985E+03  0.13584935141E+03  0.10566000000E+00 0. -1.
        -13    1    4    4    0    0 -0.82312272545E+01 -0.74814954594E+01  0.71957150612E+03  0.71965748066E+03  0.10566000000E+00 0.  1.
         14    1    4    4    0    0 -0.37740077401E+01 -0.45267479824E+01  0.42049536146E+03  0.42053666141E+03  0.00000000000E+00 0. -1.
<mgrwt>
<rscale>  0 0.78111878E+02</rscale>
<asrwt>0</asrwt>
<pdfrwt beam="1">  1        2 0.21016097E+00 0.78111878E+02</pdfrwt>
<pdfrwt beam="2">  1       -1 0.17178902E-03 0.78111878E+02</pdfrwt>
<totfact> 0.36426155E+05</totfact>
</mgrwt>
</event>
<event>
 8    1  0.2433467E-024  0.7822777E+02  0.7818608E-02  0.1334157E+00
          2   -1    0    0  501    0  0.00000000000E+00  0.00000000000E+00  0.12081448046E+02  0.12081448316E+02  0.25500000000E-02 0. -1.
         -1   -1    0    0    0  501 -0.00000000000E+00 -0.00000000000E+00 -0.12663183323E+03  0.12663183333E+03  0.50400000000E-02 0.  1.
         24    2    1    2    0    0  0.00000000000E+00  0.35527136788E-14 -0.11455038519E+03  0.13871328165E+03  0.78227768468E+02 0.  0.
         66    2    3    3    0    0 -0.30453953980E+02  0.17117321908E+02 -0.26221087251E+02  0.43726324333E+02  0.20000001916E+01 0.  0.
        -13    1    3    3    0    0  0.30453953980E+02 -0.17117321908E+02 -0.88329297936E+02  0.94986957316E+02  0.10566000000E+00 0.  1.
         13    1    4    4    0    0 -0.11989146116E+02  0.68520141742E+01 -0.10667223366E+02  0.17449657337E+02  0.10566000000E+00 0. -1.
        -13    1    4    4    0    0 -0.12828414146E+02  0.63605984807E+01 -0.10314030660E+02  0.17646977504E+02  0.10566000000E+00 0.  1.
         14    1    4    4    0    0 -0.56363937184E+01  0.39047092528E+01 -0.52398332255E+01  0.86296894920E+01  0.00000000000E+00 0. -1.
<mgrwt>
<rscale>  0 0.78227768E+02</rscale>
<asrwt>0</asrwt>
<pdfrwt beam="1">  1        2 0.18586844E-02 0.78227768E+02</pdfrwt>
<pdfrwt beam="2">  1       -1 0.19481820E-01 0.78227768E+02</pdfrwt>
<totfact> 0.11894618E+05</totfact>
</mgrwt>
</event>
<event>
 8    1  0.2433467E-024  0.7823023E+02  0.7818608E-02  0.1334150E+00
          2   -1    0    0  501    0  0.00000000000E+00  0.00000000000E+00  0.48789581524E+03  0.48789581525E+03  0.25500000000E-02 0. -1.
         -1   -1    0    0    0  501 -0.00000000000E+00 -0.00000000000E+00 -0.31358973493E+01  0.31359013995E+01  0.50400000000E-02 0.  1.
         24    2    1    2    0    0 -0.22204460493E-15  0.00000000000E+00  0.48475991789E+03  0.49103171665E+03  0.78230229190E+02 0.  0.
         66    2    3    3    0    0 -0.16304883580E+01 -0.14969286032E+02  0.46895814487E+03  0.46920409169E+03  0.20000003793E+01 0.  0.
        -13    1    3    3    0    0  0.16304883580E+01  0.14969286032E+02  0.15801773018E+02  0.21827624954E+02  0.10566000000E+00 0.  1.
         13    1    4    4    0    0 -0.11818093459E+01 -0.77161716373E+01  0.22361654169E+03  0.22375277620E+03  0.10566000000E+00 0. -1.
        -13    1    4    4    0    0  0.13368989495E+00 -0.50321114513E+01  0.17335243771E+03  0.17342554265E+03  0.10566000000E+00 0.  1.
        -14    1    4    4    0    0 -0.58236890703E+00 -0.22210029431E+01  0.71989165472E+02  0.72025772838E+02  0.00000000000E+00 0.  1.
<mgrwt>
<rscale>  0 0.78230229E+02</rscale>
<asrwt>0</asrwt>
<pdfrwt beam="1">  1        2 0.75060870E-01 0.78230229E+02</pdfrwt>
<pdfrwt beam="2">  1       -1 0.48244622E-03 0.78230229E+02</pdfrwt>
<totfact> 0.32025068E+05</totfact>
</mgrwt>
</event>
<event>
 8    1  0.2433467E-024  0.7149082E+02  0.7818608E-02  0.1355096E+00
         -1   -1    0    0    0  501 -0.00000000000E+00  0.00000000000E+00  0.31103927053E+02  0.31103927461E+02  0.50400000000E-02 0.  1.
          2   -1    0    0  501    0  0.00000000000E+00 -0.00000000000E+00 -0.41079522266E+02  0.41079522345E+02  0.25500000000E-02 0. -1.
         24    2    1    2    0    0 -0.35527136788E-14 -0.17763568394E-14 -0.99755952127E+01  0.72183449806E+02  0.71490824069E+02 0.  0.
         66    2    3    3    0    0  0.29873097693E+02  0.83109987065E+01 -0.22890676559E+02  0.38593493636E+02  0.20000030932E+01 0.  0.
        -13    1    3    3    0    0 -0.29873097693E+02 -0.83109987065E+01  0.12915081347E+02  0.33589956170E+02  0.10566000000E+00 0.  1.
         13    1    4    4    0    0  0.14280301994E+02  0.35108918105E+01 -0.10056867687E+02  0.17815867592E+02  0.10566000000E+00 0.  1.
        -13    1    4    4    0    0  0.13123394078E+02  0.38480256005E+01 -0.11096565893E+02  0.17611806035E+02  0.10566000000E+00 0. -1.
         14    1    4    4    0    0  0.24694016220E+01  0.95208129560E+00 -0.17372429790E+01  0.31658200095E+01  0.00000000000E+00 0. -1.
<mgrwt>
<rscale>  0 0.71490824E+02</rscale>
<asrwt>0</asrwt>
<pdfrwt beam="1">  1        2 0.63199265E-02 0.71490824E+02</pdfrwt>
<pdfrwt beam="2">  1       -1 0.47852196E-02 0.71490824E+02</pdfrwt>
<totfact> 0.19495654E+05</totfact>
</mgrwt>
</event>
<event>
 8    1  0.2433467E-024  0.8064403E+02  0.7818608E-02  0.1327234E+00
         -1   -1    0    0    0  501 -0.00000000000E+00  0.00000000000E+00  0.21880697123E+02  0.21880697703E+02  0.50400000000E-02 0.  1.
          2   -1    0    0  501    0  0.00000000000E+00 -0.00000000000E+00 -0.74305903477E+02  0.74305903521E+02  0.25500000000E-02 0. -1.
         24    2    1    2    0    0  0.71054273576E-14  0.17763568394E-14 -0.52425206354E+02  0.96186601224E+02  0.80644032598E+02 0.  0.
         66    2    3    3    0    0 -0.37468927516E+02 -0.11599235450E+02 -0.15206582833E+02  0.42115352921E+02  0.19999994972E+01 0.  0.
        -13    1    3    3    0    0  0.37468927516E+02  0.11599235450E+02 -0.37218623521E+02  0.54071248303E+02  0.10566000000E+00 0.  1.
         13    1    4    4    0    0 -0.10632034463E+02 -0.36423732966E+01 -0.39938724645E+01  0.11927666216E+02  0.10566000000E+00 0. -1.
        -13    1    4    4    0    0 -0.22379411377E+01 -0.56841098609E+00 -0.13347310739E+01  0.26691089637E+01  0.10566000000E+00 0.  1.
        -14    1    4    4    0    0 -0.24598951915E+02 -0.73884511672E+01 -0.98779792951E+01  0.27518577742E+02  0.00000000000E+00 0.  1.
<mgrwt>
<rscale>  0 0.80644033E+02</rscale>
<asrwt>0</asrwt>
<pdfrwt beam="1">  1        2 0.11431677E-01 0.80644033E+02</pdfrwt>
<pdfrwt beam="2">  1       -1 0.33662612E-02 0.80644033E+02</pdfrwt>
<totfact> 0.16034956E+05</totfact>
</mgrwt>
</event>
<event>
 8    1  0.2433467E-024  0.7998646E+02  0.7818608E-02  0.1329090E+00
          2   -1    0    0  501    0  0.00000000000E+00  0.00000000000E+00  0.13580951793E+03  0.13580951795E+03  0.25500000000E-02 0. -1.
         -1   -1    0    0    0  501 -0.00000000000E+00 -0.00000000000E+00 -0.11777218937E+02  0.11777220016E+02  0.50400000000E-02 0.  1.
         24    2    1    2    0    0  0.00000000000E+00  0.00000000000E+00  0.12403229899E+03  0.14758673796E+03  0.79986461547E+02 0.  0.
         66    2    3    3    0    0  0.36702698682E+02  0.13803378349E+02  0.47782370841E+02  0.61844775946E+02  0.20000010706E+01 0.  0.
        -13    1    3    3    0    0 -0.36702698682E+02 -0.13803378349E+02  0.76249928147E+02  0.85741962019E+02  0.10566000000E+00 0.  1.
         13    1    4    4    0    0  0.12640351895E+02  0.44560930650E+01  0.15448641074E+02  0.20452553300E+02  0.10566000000E+00 0. -1.
        -13    1    4    4    0    0  0.88122766140E+01  0.40012329825E+01  0.11758771936E+02  0.15229772355E+02  0.10566000000E+00 0.  1.
         14    1    4    4    0    0  0.15250070173E+02  0.53460523014E+01  0.20574957831E+02  0.26162450291E+02  0.00000000000E+00 0. -1.
<mgrwt>
<rscale>  0 0.79986462E+02</rscale>
<asrwt>0</asrwt>
<pdfrwt beam="1">  1        2 0.20893772E-01 0.79986462E+02</pdfrwt>
<pdfrwt beam="2">  1       -1 0.18118800E-02 0.79986462E+02</pdfrwt>
<totfact> 0.19416777E+05</totfact>
</mgrwt>
</event>
<event>
 8    1  0.2433467E-024  0.8006362E+02  0.7818608E-02  0.1328871E+00
          2   -1    0    0  501    0  0.00000000000E+00  0.00000000000E+00  0.15699065145E+02  0.15699065352E+02  0.25500000000E-02 0. -1.
         -1   -1    0    0    0  501 -0.00000000000E+00 -0.00000000000E+00 -0.10207905051E+03  0.10207905063E+03  0.50400000000E-02 0.  1.
         24    2    1    2    0    0 -0.35527136788E-14 -0.88817841970E-15 -0.86379985365E+02  0.11777811599E+03  0.80063616791E+02 0.  0.
         66    2    3    3    0    0 -0.24163764699E+02 -0.63520201496E+01 -0.89181328418E+02  0.92636628931E+02  0.19999992265E+01 0.  0.
        -13    1    3    3    0    0  0.24163764699E+02  0.63520201496E+01  0.28013430530E+01  0.25141487056E+02  0.10566000000E+00 0.  1.
         13    1    4    4    0    0 -0.15621187716E+02 -0.35120652425E+01 -0.55603149271E+02  0.57862574094E+02  0.10566000000E+00 0. -1.
        -13    1    4    4    0    0 -0.12646260920E+01 -0.54850324449E+00 -0.42283008895E+01  0.44485758855E+01  0.10566000000E+00 0.  1.
        -14    1    4    4    0    0 -0.72779508917E+01 -0.22914516626E+01 -0.29349878258E+02  0.30325478952E+02  0.00000000000E+00 0.  1.
<mgrwt>
<rscale>  0 0.80063617E+02</rscale>
<asrwt>0</asrwt>
<pdfrwt beam="1">  1        2 0.24152409E-02 0.80063617E+02</pdfrwt>
<pdfrwt beam="2">  1       -1 0.15704469E-01 0.80063617E+02</pdfrwt>
<totfact> 0.11777303E+05</totfact>
</mgrwt>
</event>
<event>
 8    1  0.2433467E-024  0.7937685E+02  0.7818608E-02  0.1330829E+00
         -1   -1    0    0    0  501 -0.00000000000E+00  0.00000000000E+00  0.36596700214E+01  0.36596734919E+01  0.50400000000E-02 0.  1.
          2   -1    0    0  501    0  0.00000000000E+00 -0.00000000000E+00 -0.43041318305E+03  0.43041318306E+03  0.25500000000E-02 0. -1.
         24    2    1    2    0    0  0.00000000000E+00  0.88817841970E-15 -0.42675351303E+03  0.43407285655E+03  0.79376847448E+02 0.  0.
         66    2    3    3    0    0 -0.38822171234E+02 -0.48691497051E+01 -0.24907666148E+03  0.25213895554E+03  0.20000014862E+01 0.  0.
        -13    1    3    3    0    0  0.38822171234E+02  0.48691497051E+01 -0.17767685155E+03  0.18193390102E+03  0.10566000000E+00 0.  1.
         13    1    4    4    0    0 -0.11420483515E+02 -0.16136184889E+01 -0.72946491164E+02  0.73852778861E+02  0.10566000000E+00 0. -1.
        -13    1    4    4    0    0 -0.24760393605E+02 -0.31219332748E+01 -0.16192181476E+03  0.16383378411E+03  0.10566000000E+00 0.  1.
        -14    1    4    4    0    0 -0.26412941141E+01 -0.13359794140E+00 -0.14208355560E+02  0.14452392561E+02  0.00000000000E+00 0.  1.
<mgrwt>
<rscale>  0 0.79376847E+02</rscale>
<asrwt>0</asrwt>
<pdfrwt beam="1">  1        2 0.66217373E-01 0.79376847E+02</pdfrwt>
<pdfrwt beam="2">  1       -1 0.56302677E-03 0.79376847E+02</pdfrwt>
<totfact> 0.29575804E+05</totfact>
</mgrwt>
</event>
<event>
 8    1  0.2433467E-024  0.8160728E+02  0.7818608E-02  0.1324551E+00
          2   -1    0    0  501    0  0.00000000000E+00  0.00000000000E+00  0.51155589399E+02  0.51155589463E+02  0.25500000000E-02 0. -1.
         -1   -1    0    0    0  501 -0.00000000000E+00 -0.00000000000E+00 -0.32546532033E+02  0.32546532424E+02  0.50400000000E-02 0.  1.
         24    2    1    2    0    0  0.35527136788E-14  0.00000000000E+00  0.18609057366E+02  0.83702121886E+02  0.81607280265E+02 0.  0.
         66    2    3    3    0    0 -0.31730078466E+02 -0.20775499510E+02  0.24678482592E+02  0.45292899739E+02  0.20000010904E+01 0.  0.
        -13    1    3    3    0    0  0.31730078466E+02  0.20775499510E+02 -0.60694252263E+01  0.38409222147E+02  0.10566000000E+00 0.  1.
         13    1    4    4    0    0 -0.10144365528E+02 -0.69991300853E+01  0.80184439327E+01  0.14703828789E+02  0.10566000000E+00 0. -1.
        -13    1    4    4    0    0 -0.65562221894E+01 -0.50028550372E+01  0.51183545190E+01  0.97067669663E+01  0.10566000000E+00 0.  1.
         14    1    4    4    0    0 -0.15029490749E+02 -0.87735143874E+01  0.11541684140E+02  0.20882303984E+02  0.00000000000E+00 0. -1.
<mgrwt>
<rscale>  0 0.81607280E+02</rscale>
<asrwt>0</asrwt>
<pdfrwt beam="1">  1        2 0.78700907E-02 0.81607280E+02</pdfrwt>
<pdfrwt beam="2">  1       -1 0.50071588E-02 0.81607280E+02</pdfrwt>
<totfact> 0.14220927E+05</totfact>
</mgrwt>
</event>
<event>
 8    1  0.2433467E-024  0.8012958E+02  0.7818608E-02  0.1328684E+00
          2   -1    0    0  501    0  0.00000000000E+00  0.00000000000E+00  0.22495261957E+02  0.22495262102E+02  0.25500000000E-02 0. -1.
         -1   -1    0    0    0  501 -0.00000000000E+00 -0.00000000000E+00 -0.71356696531E+02  0.71356696709E+02  0.50400000000E-02 0.  1.
         24    2    1    2    0    0  0.00000000000E+00  0.00000000000E+00 -0.48861434574E+02  0.93851958811E+02  0.80129584949E+02 0.  0.
         66    2    3    3    0    0  0.21271606406E+02  0.40677076796E+01  0.14998625949E+02  0.26419429725E+02  0.20000004469E+01 0.  0.
        -13    1    3    3    0    0 -0.21271606406E+02 -0.40677076796E+01 -0.63860060523E+02  0.67432529086E+02  0.10566000000E+00 0.  1.
         13    1    4    4    0    0  0.77234697391E+01  0.21982776538E+01  0.49300228714E+01  0.94234122801E+01  0.10566000000E+00 0. -1.
        -13    1    4    4    0    0  0.55145971071E+01  0.44571306416E+00  0.40130181873E+01  0.68355629173E+01  0.10566000000E+00 0.  1.
         14    1    4    4    0    0  0.80335395597E+01  0.14237169616E+01  0.60555848908E+01  0.10160454528E+02  0.00000000000E+00 0. -1.
<mgrwt>
<rscale>  0 0.80129585E+02</rscale>
<asrwt>0</asrwt>
<pdfrwt beam="1">  1        2 0.34608096E-02 0.80129585E+02</pdfrwt>
<pdfrwt beam="2">  1       -1 0.10977953E-01 0.80129585E+02</pdfrwt>
<totfact> 0.12653329E+05</totfact>
</mgrwt>
</event>
<event>
 8    1  0.2433467E-024  0.7959544E+02  0.7818608E-02  0.1330203E+00
         -1   -1    0    0    0  501 -0.00000000000E+00  0.00000000000E+00  0.60661678248E+01  0.60661699185E+01  0.50400000000E-02 0.  1.
          2   -1    0    0  501    0  0.00000000000E+00 -0.00000000000E+00 -0.26109698137E+03  0.26109698138E+03  0.25500000000E-02 0. -1.
         24    2    1    2    0    0  0.00000000000E+00  0.00000000000E+00 -0.25503081354E+03  0.26716315130E+03  0.79595436775E+02 0.  0.
         66    2    3    3    0    0 -0.18541467048E+02 -0.34076612754E+02 -0.15702063772E+03  0.16175438855E+03  0.20000013384E+01 0.  0.
        -13    1    3    3    0    0  0.18541467048E+02  0.34076612754E+02 -0.98010175818E+02  0.10540876275E+03  0.10566000000E+00 0.  1.
         13    1    4    4    0    0 -0.14246368925E+02 -0.26472597843E+02 -0.12485392945E+03  0.12842224234E+03  0.10566000000E+00 0. -1.
        -13    1    4    4    0    0 -0.12796940600E+01 -0.22009978276E+01 -0.96466240332E+01  0.99775010698E+01  0.10566000000E+00 0.  1.
         14    1    4    4    0    0 -0.30154040623E+01 -0.54030170833E+01 -0.22520084241E+02  0.23354645137E+02  0.00000000000E+00 0. -1.
<mgrwt>
<rscale>  0 0.79595437E+02</rscale>
<asrwt>0</asrwt>
<pdfrwt beam="1">  1        2 0.40168758E-01 0.79595437E+02</pdfrwt>
<pdfrwt beam="2">  1       -1 0.93325695E-03 0.79595437E+02</pdfrwt>
<totfact> 0.24569075E+05</totfact>
</mgrwt>
</event>
<event>
 8    1  0.2433467E-024  0.8181354E+02  0.7818608E-02  0.1323982E+00
          2   -1    0    0  501    0  0.00000000000E+00  0.00000000000E+00  0.52603378300E+02  0.52603378362E+02  0.25500000000E-02 0. -1.
         -1   -1    0    0    0  501 -0.00000000000E+00 -0.00000000000E+00 -0.31810954244E+02  0.31810954643E+02  0.50400000000E-02 0.  1.
         24    2    1    2    0    0  0.00000000000E+00  0.00000000000E+00  0.20792424056E+02  0.84414333005E+02  0.81813536280E+02 0.  0.
         66    2    3    3    0    0 -0.90876589303E+01 -0.39399684437E+02  0.16630691123E+02  0.43766431908E+02  0.19999990200E+01 0.  0.
        -13    1    3    3    0    0  0.90876589303E+01  0.39399684437E+02  0.41617329331E+01  0.40647901098E+02  0.10566000000E+00 0.  1.
         13    1    4    4    0    0 -0.42315672241E+01 -0.17668530571E+02  0.73815840848E+01  0.19610764426E+02  0.10566000000E+00 0. -1.
        -13    1    4    4    0    0 -0.39498818701E+01 -0.18351767187E+02  0.83344432117E+01  0.20539304597E+02  0.10566000000E+00 0.  1.
        -14    1    4    4    0    0 -0.90620983613E+00 -0.33793866794E+01  0.91466382666E+00  0.36163628844E+01  0.00000000000E+00 0.  1.
<mgrwt>
<rscale>  0 0.81813536E+02</rscale>
<asrwt>0</asrwt>
<pdfrwt beam="1">  1        2 0.80928273E-02 0.81813536E+02</pdfrwt>
<pdfrwt beam="2">  1       -1 0.48939931E-02 0.81813536E+02</pdfrwt>
<totfact> 0.14210683E+05</totfact>
</mgrwt>
</event>
<event>
 8    1  0.2433467E-024  0.8092808E+02  0.7818608E-02  0.1326438E+00
          2   -1    0    0  501    0  0.00000000000E+00  0.00000000000E+00  0.26613405488E+04  0.26613405488E+04  0.25500000000E-02 0. -1.
         -1   -1    0    0    0  501 -0.00000000000E+00 -0.00000000000E+00 -0.61522043037E+00  0.61524107433E+00  0.50400000000E-02 0.  1.
         24    2    1    2    0    0  0.11102230246E-15  0.17763568394E-14  0.26607253284E+04  0.26619557899E+04  0.80928080567E+02 0.  0.
         66    2    3    3    0    0 -0.52679591267E+00 -0.13184979380E+02  0.25885289478E+04  0.25885633534E+04  0.19999893370E+01 0.  0.
        -13    1    3    3    0    0  0.52679591267E+00  0.13184979380E+02  0.72196380577E+02  0.73392436447E+02  0.10566000000E+00 0.  1.
         13    1    4    4    0    0 -0.53905649343E+00 -0.11963560010E+02  0.23325138816E+04  0.23325446268E+04  0.10566000000E+00 0. -1.
        -13    1    4    4    0    0  0.14819593875E+00 -0.61693625033E+00  0.80615597940E+02  0.80618164006E+02  0.10566000000E+00 0. -1.
         14    1    4    4    0    0 -0.13593535799E+00 -0.60448311966E+00  0.17539946828E+03  0.17540056257E+03  0.00000000000E+00 0. -1.
<mgrwt>
<rscale>  0 0.80928081E+02</rscale>
<asrwt>0</asrwt>
<pdfrwt beam="1">  1        2 0.40942797E+00 0.80928081E+02</pdfrwt>
<pdfrwt beam="2">  1       -1 0.94652975E-04 0.80928081E+02</pdfrwt>
<totfact> 0.18233606E+05</totfact>
</mgrwt>
</event>
<event>
 8    1  0.2433467E-024  0.8325477E+02  0.7818608E-02  0.1320061E+00
          2   -1    0    0  501    0  0.00000000000E+00  0.00000000000E+00  0.21105767083E+03  0.21105767084E+03  0.25500000000E-02 0. -1.
         -1   -1    0    0    0  501 -0.00000000000E+00 -0.00000000000E+00 -0.82102636195E+01  0.82102651664E+01  0.50400000000E-02 0.  1.
         24    2    1    2    0    0 -0.35527136788E-14  0.00000000000E+00  0.20284740721E+03  0.21926793601E+03  0.83254772540E+02 0.  0.
         66    2    3    3    0    0  0.26856490999E+02  0.31742044692E+02  0.97752089260E+02  0.10624640917E+03  0.19999993214E+01 0.  0.
        -13    1    3    3    0    0 -0.26856490999E+02 -0.31742044692E+02  0.10509531795E+03  0.11302152684E+03  0.10566000000E+00 0.  1.
         13    1    4    4    0    0  0.12561160322E+02  0.13750000987E+02  0.43494547492E+02  0.47314184991E+02  0.10566000000E+00 0. -1.
        -13    1    4    4    0    0  0.92352407317E+01  0.11289322158E+02  0.33281503500E+02  0.36337420181E+02  0.10566000000E+00 0.  1.
        -14    1    4    4    0    0  0.50600899447E+01  0.67027215472E+01  0.20976038268E+02  0.22594804000E+02  0.00000000000E+00 0.  1.
<mgrwt>
<rscale>  0 0.83254773E+02</rscale>
<asrwt>0</asrwt>
<pdfrwt beam="1">  1        2 0.32470412E-01 0.83254773E+02</pdfrwt>
<pdfrwt beam="2">  1       -1 0.12631175E-02 0.83254773E+02</pdfrwt>
<totfact> 0.20229361E+05</totfact>
</mgrwt>
</event>
<event>
 8    1  0.2433467E-024  0.8035405E+02  0.7818608E-02  0.1328050E+00
          2   -1    0    0  501    0  0.00000000000E+00  0.00000000000E+00  0.15211079249E+02  0.15211079463E+02  0.25500000000E-02 0. -1.
         -1   -1    0    0    0  501 -0.00000000000E+00 -0.00000000000E+00 -0.10611957584E+03  0.10611957596E+03  0.50400000000E-02 0.  1.
         24    2    1    2    0    0  0.00000000000E+00  0.00000000000E+00 -0.90908496590E+02  0.12133065542E+03  0.80354049013E+02 0.  0.
         66    2    3    3    0    0 -0.45149415046E+01 -0.38154377406E+02 -0.27870378290E+02  0.47506833150E+02  0.19999994785E+01 0.  0.
        -13    1    3    3    0    0  0.45149415046E+01  0.38154377406E+02 -0.63038118300E+02  0.73823822272E+02  0.10566000000E+00 0.  1.
         13    1    4    4    0    0 -0.27294596314E+01 -0.15860467039E+02 -0.11401886365E+02  0.19723552958E+02  0.10566000000E+00 0. -1.
        -13    1    4    4    0    0 -0.51928310968E+00 -0.94924218703E+01 -0.67044606936E+01  0.11633429638E+02  0.10566000000E+00 0.  1.
         14    1    4    4    0    0 -0.12661987635E+01 -0.12801488496E+02 -0.97640312311E+01  0.16149850554E+02  0.00000000000E+00 0. -1.
<mgrwt>
<rscale>  0 0.80354049E+02</rscale>
<asrwt>0</asrwt>
<pdfrwt beam="1">  1        2 0.23401661E-02 0.80354049E+02</pdfrwt>
<pdfrwt beam="2">  1       -1 0.16326088E-01 0.80354049E+02</pdfrwt>
<totfact> 0.11573257E+05</totfact>
</mgrwt>
</event>
<event>
 8    1  0.2433467E-024  0.7381938E+02  0.7818608E-02  0.1347566E+00
          2   -1    0    0  501    0  0.00000000000E+00  0.00000000000E+00  0.38846196032E+03  0.38846196033E+03  0.25500000000E-02 0. -1.
         -1   -1    0    0    0  501 -0.00000000000E+00 -0.00000000000E+00 -0.35069704116E+01  0.35069740331E+01  0.50400000000E-02 0.  1.
         24    2    1    2    0    0  0.00000000000E+00 -0.88817841970E-15  0.38495498991E+03  0.39196893436E+03  0.73819382611E+02 0.  0.
         66    2    3    3    0    0  0.36093462180E+02  0.68708794406E+01  0.20972023701E+03  0.21292375351E+03  0.20000008916E+01 0.  0.
        -13    1    3    3    0    0 -0.36093462180E+02 -0.68708794406E+01  0.17523475290E+03  0.17904518085E+03  0.10566000000E+00 0.  1.
         13    1    4    4    0    0  0.93854172948E+01  0.24020001528E+01  0.55901610267E+02  0.56734970318E+02  0.10566000000E+00 0. -1.
        -13    1    4    4    0    0  0.17968034410E+02  0.25487468179E+01  0.10101581063E+03  0.10263309179E+03  0.10566000000E+00 0.  1.
        -14    1    4    4    0    0  0.87400104759E+01  0.19201324698E+01  0.52802816113E+02  0.53555691400E+02  0.00000000000E+00 0.  1.
<mgrwt>
<rscale>  0 0.73819383E+02</rscale>
<asrwt>0</asrwt>
<pdfrwt beam="1">  1        2 0.59763369E-01 0.73819383E+02</pdfrwt>
<pdfrwt beam="2">  1       -1 0.53953427E-03 0.73819383E+02</pdfrwt>
<totfact> 0.34472472E+05</totfact>
</mgrwt>
</event>
<event>
 8    1  0.2433467E-024  0.8009975E+02  0.7818608E-02  0.1328769E+00
         -1   -1    0    0    0  501 -0.00000000000E+00  0.00000000000E+00  0.37623665058E+01  0.37623698815E+01  0.50400000000E-02 0.  1.
          2   -1    0    0  501    0  0.00000000000E+00 -0.00000000000E+00 -0.42632523082E+03  0.42632523083E+03  0.25500000000E-02 0. -1.
         24    2    1    2    0    0  0.00000000000E+00  0.00000000000E+00 -0.42256286431E+03  0.43008760071E+03  0.80099750226E+02 0.  0.
         66    2    3    3    0    0  0.25764149881E+01  0.11891881127E+02 -0.41615053613E+03  0.41633318805E+03  0.19999990153E+01 0.  0.
        -13    1    3    3    0    0 -0.25764149881E+01 -0.11891881127E+02 -0.64123281834E+01  0.13754412663E+02  0.10566000000E+00 0.  1.
         13    1    4    4    0    0  0.16777784234E+01  0.87356086835E+01 -0.31484668613E+03  0.31497233645E+03  0.10566000000E+00 0. -1.
        -13    1    4    4    0    0  0.55835021082E-01  0.17594940833E+01 -0.55062394558E+02  0.55090628927E+02  0.10566000000E+00 0.  1.
         14    1    4    4    0    0  0.84280154364E+00  0.13967783601E+01 -0.46241455444E+02  0.46270222668E+02  0.00000000000E+00 0. -1.
<mgrwt>
<rscale>  0 0.80099750E+02</rscale>
<asrwt>0</asrwt>
<pdfrwt beam="1">  1        2 0.65588459E-01 0.80099750E+02</pdfrwt>
<pdfrwt beam="2">  1       -1 0.57882622E-03 0.80099750E+02</pdfrwt>
<totfact> 0.28790227E+05</totfact>
</mgrwt>
</event>
<event>
 8    1  0.2433467E-024  0.7908236E+02  0.7818608E-02  0.1331676E+00
          2   -1    0    0  501    0  0.00000000000E+00  0.00000000000E+00  0.25487051091E+03  0.25487051093E+03  0.25500000000E-02 0. -1.
         -1   -1    0    0    0  501 -0.00000000000E+00 -0.00000000000E+00 -0.61345051744E+01  0.61345072448E+01  0.50400000000E-02 0.  1.
         24    2    1    2    0    0  0.00000000000E+00  0.00000000000E+00  0.24873600574E+03  0.26100501817E+03  0.79082355550E+02 0.  0.
         66    2    3    3    0    0  0.49214257012E+01 -0.32509560223E+02  0.19678662682E+03  0.19952460608E+03  0.19999997038E+01 0.  0.
        -13    1    3    3    0    0 -0.49214257012E+01  0.32509560223E+02  0.51949378915E+02  0.61480412089E+02  0.10566000000E+00 0.  1.
         13    1    4    4    0    0  0.25779736013E+01 -0.13054128735E+02  0.78902539678E+02  0.80016736728E+02  0.10566000000E+00 0. -1.
        -13    1    4    4    0    0  0.16371624272E+01 -0.16279347703E+02  0.96354234381E+02  0.97733551607E+02  0.10566000000E+00 0.  1.
         14    1    4    4    0    0  0.70628967274E+00 -0.31760837856E+01  0.21529852764E+02  0.21774317747E+02  0.00000000000E+00 0. -1.
<mgrwt>
<rscale>  0 0.79082356E+02</rscale>
<asrwt>0</asrwt>
<pdfrwt beam="1">  1        2 0.39210847E-01 0.79082356E+02</pdfrwt>
<pdfrwt beam="2">  1       -1 0.94377020E-03 0.79082356E+02</pdfrwt>
<totfact> 0.24773468E+05</totfact>
</mgrwt>
</event>
<event>
 8    1  0.2433467E-024  0.7944031E+02  0.7818608E-02  0.1330647E+00
         -1   -1    0    0    0  501 -0.00000000000E+00  0.00000000000E+00  0.55600490538E+01  0.55600513381E+01  0.50400000000E-02 0.  1.
          2   -1    0    0  501    0  0.00000000000E+00 -0.00000000000E+00 -0.28375473142E+03  0.28375473143E+03  0.25500000000E-02 0. -1.
         24    2    1    2    0    0  0.00000000000E+00  0.00000000000E+00 -0.27819468237E+03  0.28931478277E+03  0.79440306093E+02 0.  0.
         66    2    3    3    0    0  0.80634607148E+01  0.30459062446E+02 -0.22711405308E+03  0.22929798732E+03  0.19999995730E+01 0.  0.
        -13    1    3    3    0    0 -0.80634607148E+01 -0.30459062446E+02 -0.51080629284E+02  0.60016795448E+02  0.10566000000E+00 0.  1.
         13    1    4    4    0    0  0.42944672142E+01  0.15792647611E+02 -0.11767539803E+03  0.11880808320E+03  0.10566000000E+00 0. -1.
        -13    1    4    4    0    0  0.28692701923E+00  0.30597287949E+01 -0.24006461769E+02  0.24202595689E+02  0.10566000000E+00 0.  1.
         14    1    4    4    0    0  0.34820664814E+01  0.11606686041E+02 -0.85432193281E+02  0.86287308433E+02  0.00000000000E+00 0. -1.
<mgrwt>
<rscale>  0 0.79440306E+02</rscale>
<asrwt>0</asrwt>
<pdfrwt beam="1">  1        2 0.43654563E-01 0.79440306E+02</pdfrwt>
<pdfrwt beam="2">  1       -1 0.85539256E-03 0.79440306E+02</pdfrwt>
<totfact> 0.25449840E+05</totfact>
</mgrwt>
</event>
<event>
 8    1  0.2433467E-024  0.7958922E+02  0.7818608E-02  0.1330221E+00
         -1   -1    0    0    0  501 -0.00000000000E+00  0.00000000000E+00  0.53418585153E+01  0.53418608929E+01  0.50400000000E-02 0.  1.
          2   -1    0    0  501    0  0.00000000000E+00 -0.00000000000E+00 -0.29645314527E+03  0.29645314529E+03  0.25500000000E-02 0. -1.
         24    2    1    2    0    0  0.00000000000E+00  0.17763568394E-14 -0.29111128676E+03  0.30179500618E+03  0.79589223363E+02 0.  0.
         66    2    3    3    0    0 -0.14870716474E+02 -0.10671783636E+02 -0.27952801846E+03  0.28013378639E+03  0.19999988112E+01 0.  0.
        -13    1    3    3    0    0  0.14870716474E+02  0.10671783636E+02 -0.11583268298E+02  0.21661219793E+02  0.10566000000E+00 0.  1.
         13    1    4    4    0    0 -0.73895098592E+01 -0.57875381596E+01 -0.14530453287E+03  0.14560741358E+03  0.10566000000E+00 0. -1.
        -13    1    4    4    0    0 -0.12878318357E+01 -0.69243787907E+00 -0.16206074618E+02  0.16272246299E+02  0.10566000000E+00 0.  1.
        -14    1    4    4    0    0 -0.61933747786E+01 -0.41918075978E+01 -0.11801741097E+03  0.11825412650E+03  0.00000000000E+00 0.  1.
<mgrwt>
<rscale>  0 0.79589223E+02</rscale>
<asrwt>0</asrwt>
<pdfrwt beam="1">  1        2 0.45608164E-01 0.79589223E+02</pdfrwt>
<pdfrwt beam="2">  1       -1 0.82182480E-03 0.79589223E+02</pdfrwt>
<totfact> 0.25729831E+05</totfact>
</mgrwt>
</event>
<event>
 8    1  0.2433467E-024  0.8235119E+02  0.7818608E-02  0.1322508E+00
         -1   -1    0    0    0  501 -0.00000000000E+00  0.00000000000E+00  0.11976090122E+02  0.11976091182E+02  0.50400000000E-02 0.  1.
          2   -1    0    0  501    0  0.00000000000E+00 -0.00000000000E+00 -0.14156788466E+03  0.14156788468E+03  0.25500000000E-02 0. -1.
         24    2    1    2    0    0  0.35527136788E-14  0.00000000000E+00 -0.12959179453E+03  0.15354397586E+03  0.82351194968E+02 0.  0.
         66    2    3    3    0    0  0.26422250120E+02 -0.46246645071E+01 -0.12302027723E+03  0.12592661127E+03  0.19999981411E+01 0.  0.
        -13    1    3    3    0    0 -0.26422250120E+02  0.46246645071E+01 -0.65715173002E+01  0.27617364589E+02  0.10566000000E+00 0.  1.
         13    1    4    4    0    0  0.11290017044E+02 -0.19712926756E+01 -0.49522526080E+02  0.50831508271E+02  0.10566000000E+00 0.  1.
        -13    1    4    4    0    0  0.97416235106E+01 -0.14294458404E+01 -0.49351296061E+02  0.50323991604E+02  0.10566000000E+00 0. -1.
         14    1    4    4    0    0  0.53906095649E+01 -0.12239259911E+01 -0.24146455093E+02  0.24771111397E+02  0.00000000000E+00 0. -1.
<mgrwt>
<rscale>  0 0.82351195E+02</rscale>
<asrwt>0</asrwt>
<pdfrwt beam="1">  1        2 0.21779673E-01 0.82351195E+02</pdfrwt>
<pdfrwt beam="2">  1       -1 0.18424756E-02 0.82351195E+02</pdfrwt>
<totfact> 0.18204587E+05</totfact>
</mgrwt>
</event>
<event>
 8    1  0.2433467E-024  0.7979988E+02  0.7818608E-02  0.1329620E+00
         -1   -1    0    0    0  501 -0.00000000000E+00  0.00000000000E+00  0.29969894496E+02  0.29969894920E+02  0.50400000000E-02 0.  1.
          2   -1    0    0  501    0  0.00000000000E+00 -0.00000000000E+00 -0.53120140565E+02  0.53120140626E+02  0.25500000000E-02 0. -1.
         24    2    1    2    0    0  0.00000000000E+00  0.00000000000E+00 -0.23150246069E+02  0.83090035546E+02  0.79799875401E+02 0.  0.
         66    2    3    3    0    0 -0.29527470490E+02 -0.26548951123E+02 -0.15377047055E+02  0.42628299224E+02  0.19999998349E+01 0.  0.
        -13    1    3    3    0    0  0.29527470490E+02  0.26548951123E+02 -0.77731990136E+01  0.40461736322E+02  0.10566000000E+00 0.  1.
         13    1    4    4    0    0 -0.12494977829E+02 -0.10666012538E+02 -0.66082664741E+01  0.17707869556E+02  0.10566000000E+00 0. -1.
        -13    1    4    4    0    0 -0.83387728281E+00 -0.11909061186E+01 -0.56731553672E+00  0.15641674015E+01  0.10566000000E+00 0.  1.
         14    1    4    4    0    0 -0.16198615379E+02 -0.14692032467E+02 -0.82014650443E+01  0.23356262266E+02  0.00000000000E+00 0. -1.
<mgrwt>
<rscale>  0 0.79799875E+02</rscale>
<asrwt>0</asrwt>
<pdfrwt beam="1">  1        2 0.81723294E-02 0.79799875E+02</pdfrwt>
<pdfrwt beam="2">  1       -1 0.46107530E-02 0.79799875E+02</pdfrwt>
<totfact> 0.15247056E+05</totfact>
</mgrwt>
</event>
<event>
 8    1  0.2433467E-024  0.8423548E+02  0.7818608E-02  0.1317444E+00
         -1   -1    0    0    0  501 -0.00000000000E+00  0.00000000000E+00  0.47580987222E+01  0.47581013915E+01  0.50400000000E-02 0.  1.
          2   -1    0    0  501    0  0.00000000000E+00 -0.00000000000E+00 -0.37281770700E+03  0.37281770701E+03  0.25500000000E-02 0. -1.
         24    2    1    2    0    0  0.35527136788E-14 -0.71054273576E-14 -0.36805960827E+03  0.37757580840E+03  0.84235478531E+02 0.  0.
         66    2    3    3    0    0 -0.22933397211E+02 -0.33304692804E+02 -0.13171509667E+03  0.13779698824E+03  0.20000011111E+01 0.  0.
        -13    1    3    3    0    0  0.22933397211E+02  0.33304692804E+02 -0.23634451160E+03  0.23977882016E+03  0.10566000000E+00 0.  1.
         13    1    4    4    0    0 -0.30051761847E+01 -0.35822440483E+01 -0.15907065008E+02  0.16580393166E+02  0.10566000000E+00 0. -1.
        -13    1    4    4    0    0 -0.17887810100E+01 -0.23818511203E+01 -0.87728806491E+01  0.92653953602E+01  0.10566000000E+00 0.  1.
         14    1    4    4    0    0 -0.18139440016E+02 -0.27340597636E+02 -0.10703515102E+03  0.11195119971E+03  0.00000000000E+00 0. -1.
<mgrwt>
<rscale>  0 0.84235479E+02</rscale>
<asrwt>0</asrwt>
<pdfrwt beam="1">  1        2 0.57356547E-01 0.84235479E+02</pdfrwt>
<pdfrwt beam="2">  1       -1 0.73201569E-03 0.84235479E+02</pdfrwt>
<totfact> 0.24075278E+05</totfact>
</mgrwt>
</event>
<event>
 8    1  0.2433467E-024  0.8137846E+02  0.7818608E-02  0.1325184E+00
         -1   -1    0    0    0  501 -0.00000000000E+00  0.00000000000E+00  0.31774982649E+01  0.31775022620E+01  0.50400000000E-02 0.  1.
          2   -1    0    0  501    0  0.00000000000E+00 -0.00000000000E+00 -0.52104272563E+03  0.52104272564E+03  0.25500000000E-02 0. -1.
         24    2    1    2    0    0  0.00000000000E+00  0.00000000000E+00 -0.51786522737E+03  0.52422022790E+03  0.81378459213E+02 0.  0.
         66    2    3    3    0    0  0.40531652909E+01 -0.11170592129E+02 -0.50960567671E+03  0.50974812997E+03  0.19999994954E+01 0.  0.
        -13    1    3    3    0    0 -0.40531652909E+01  0.11170592129E+02 -0.82595506612E+01  0.14472097932E+02  0.10566000000E+00 0.  1.
         13    1    4    4    0    0  0.32393418064E+01 -0.75140227821E+01 -0.35292073095E+03  0.35301559084E+03  0.10566000000E+00 0. -1.
        -13    1    4    4    0    0  0.92125075505E-01 -0.49922623001E+00 -0.11785628579E+02  0.11797030088E+02  0.10566000000E+00 0.  1.
         14    1    4    4    0    0  0.72169840900E+00 -0.31573431170E+01 -0.14489931717E+03  0.14493550904E+03  0.00000000000E+00 0. -1.
<mgrwt>
<rscale>  0 0.81378459E+02</rscale>
<asrwt>0</asrwt>
<pdfrwt beam="1">  1        2 0.80160352E-01 0.81378459E+02</pdfrwt>
<pdfrwt beam="2">  1       -1 0.48884661E-03 0.81378459E+02</pdfrwt>
<totfact> 0.29505025E+05</totfact>
</mgrwt>
</event>
<event>
 8    1  0.2433467E-024  0.8009723E+02  0.7818608E-02  0.1328776E+00
         -1   -1    0    0    0  501 -0.00000000000E+00  0.00000000000E+00  0.71446569928E+02  0.71446570106E+02  0.50400000000E-02 0.  1.
          2   -1    0    0  501    0  0.00000000000E+00 -0.00000000000E+00 -0.22448825326E+02  0.22448825470E+02  0.25500000000E-02 0. -1.
         24    2    1    2    0    0 -0.35527136788E-14  0.00000000000E+00  0.48997744602E+02  0.93895395576E+02  0.80097230503E+02 0.  0.
         66    2    3    3    0    0  0.25772714031E+02 -0.30142750335E+02  0.18193805429E+02  0.43678744763E+02  0.20000004473E+01 0.  0.
        -13    1    3    3    0    0 -0.25772714031E+02  0.30142750335E+02  0.30803939173E+02  0.50216650813E+02  0.10566000000E+00 0.  1.
         13    1    4    4    0    0  0.14805941120E+02 -0.16156898528E+02  0.10283930509E+02  0.24208090657E+02  0.10566000000E+00 0. -1.
        -13    1    4    4    0    0  0.40459062390E+01 -0.49939283440E+01  0.24586433671E+01  0.68822066841E+01  0.10566000000E+00 0.  1.
         14    1    4    4    0    0  0.69208666719E+01 -0.89919234627E+01  0.54512315533E+01  0.12588447422E+02  0.00000000000E+00 0. -1.
<mgrwt>
<rscale>  0 0.80097231E+02</rscale>
<asrwt>0</asrwt>
<pdfrwt beam="1">  1        2 0.34536654E-02 0.80097231E+02</pdfrwt>
<pdfrwt beam="2">  1       -1 0.10991780E-01 0.80097231E+02</pdfrwt>
<totfact> 0.12662693E+05</totfact>
</mgrwt>
</event>
<event>
 8    1  0.2433467E-024  0.8211837E+02  0.7818608E-02  0.1323145E+00
         -1   -1    0    0    0  501 -0.00000000000E+00  0.00000000000E+00  0.18268413407E+01  0.18268482930E+01  0.50400000000E-02 0.  1.
          2   -1    0    0  501    0  0.00000000000E+00 -0.00000000000E+00 -0.92282419308E+03  0.92282419308E+03  0.25500000000E-02 0. -1.
         24    2    1    2    0    0  0.00000000000E+00  0.00000000000E+00 -0.92099735174E+03  0.92465104138E+03  0.82118368273E+02 0.  0.
         66    2    3    3    0    0 -0.65024366538E+01 -0.26635644200E+02 -0.80454400995E+03  0.80501354222E+03  0.20000003010E+01 0.  0.
        -13    1    3    3    0    0  0.65024366538E+01  0.26635644200E+02 -0.11645334179E+03  0.11963749915E+03  0.10566000000E+00 0.  1.
         13    1    4    4    0    0 -0.20299791565E+01 -0.73657361933E+01 -0.22339375080E+03  0.22352439228E+03  0.10566000000E+00 0. -1.
        -13    1    4    4    0    0 -0.40682026181E+01 -0.18769468628E+02 -0.56141346083E+03  0.56174186989E+03  0.10566000000E+00 0.  1.
        -14    1    4    4    0    0 -0.40425487923E+00 -0.50043937822E+00 -0.19736798321E+02  0.19747280054E+02  0.00000000000E+00 0.  1.
<mgrwt>
<rscale>  0 0.82118368E+02</rscale>
<asrwt>0</asrwt>
<pdfrwt beam="1">  1        2 0.14197258E+00 0.82118368E+02</pdfrwt>
<pdfrwt beam="2">  1       -1 0.28105379E-03 0.82118368E+02</pdfrwt>
<totfact> 0.32734787E+05</totfact>
</mgrwt>
</event>
<event>
 8    1  0.2433467E-024  0.7910437E+02  0.7818608E-02  0.1331612E+00
          2   -1    0    0  501    0  0.00000000000E+00  0.00000000000E+00  0.51271414541E+03  0.51271414541E+03  0.25500000000E-02 0. -1.
         -1   -1    0    0    0  501 -0.00000000000E+00 -0.00000000000E+00 -0.30511623164E+01  0.30511664790E+01  0.50400000000E-02 0.  1.
         24    2    1    2    0    0 -0.88817841970E-15  0.35527136788E-14  0.50966298309E+03  0.51576531189E+03  0.79104365358E+02 0.  0.
         66    2    3    3    0    0  0.72868276115E+01 -0.23148102013E+02  0.45841960864E+03  0.45906586681E+03  0.20000004545E+01 0.  0.
        -13    1    3    3    0    0 -0.72868276115E+01  0.23148102013E+02  0.51243374452E+02  0.56699445083E+02  0.10566000000E+00 0.  1.
         13    1    4    4    0    0  0.23267407308E+01 -0.80547344318E+01  0.15225192594E+03  0.15248263044E+03  0.10566000000E+00 0. -1.
        -13    1    4    4    0    0  0.50052985689E+00 -0.16561794226E+01  0.43114755473E+02  0.43149585907E+02  0.10566000000E+00 0.  1.
        -14    1    4    4    0    0  0.44595570238E+01 -0.13437188159E+02  0.26305292722E+03  0.26343365046E+03  0.00000000000E+00 0.  1.
<mgrwt>
<rscale>  0 0.79104365E+02</rscale>
<asrwt>0</asrwt>
<pdfrwt beam="1">  1        2 0.78878966E-01 0.79104365E+02</pdfrwt>
<pdfrwt beam="2">  1       -1 0.46941070E-03 0.79104365E+02</pdfrwt>
<totfact> 0.31607407E+05</totfact>
</mgrwt>
</event>
<event>
 8    1  0.2433467E-024  0.7976165E+02  0.7818608E-02  0.1329729E+00
         -1   -1    0    0    0  501 -0.00000000000E+00  0.00000000000E+00  0.38388119619E+02  0.38388119949E+02  0.50400000000E-02 0.  1.
          2   -1    0    0  501    0  0.00000000000E+00 -0.00000000000E+00 -0.41431570330E+02  0.41431570408E+02  0.25500000000E-02 0. -1.
         24    2    1    2    0    0 -0.35527136788E-14  0.00000000000E+00 -0.30434507113E+01  0.79819690358E+02  0.79761647279E+02 0.  0.
         66    2    3    3    0    0  0.30624741734E+02  0.13920849802E+02 -0.22911353125E+02  0.40750398378E+02  0.20000001191E+01 0.  0.
        -13    1    3    3    0    0 -0.30624741734E+02 -0.13920849802E+02  0.19867902414E+02  0.39069291980E+02  0.10566000000E+00 0.  1.
         13    1    4    4    0    0  0.34473412864E+01  0.16743118771E+01 -0.24890487747E+01  0.45709966140E+01  0.10566000000E+00 0. -1.
        -13    1    4    4    0    0  0.12800273802E+02  0.52335028231E+01 -0.10389492025E+02  0.17297088477E+02  0.10566000000E+00 0.  1.
        -14    1    4    4    0    0  0.14377126645E+02  0.70130351019E+01 -0.10032812325E+02  0.18882313287E+02  0.00000000000E+00 0.  1.
<mgrwt>
<rscale>  0 0.79761647E+02</rscale>
<asrwt>0</asrwt>
<pdfrwt beam="1">  1        2 0.63740878E-02 0.79761647E+02</pdfrwt>
<pdfrwt beam="2">  1       -1 0.59058646E-02 0.79761647E+02</pdfrwt>
<totfact> 0.14477728E+05</totfact>
</mgrwt>
</event>
<event>
 8    1  0.2433467E-024  0.8410811E+02  0.7818608E-02  0.1317782E+00
         -1   -1    0    0    0  501 -0.00000000000E+00  0.00000000000E+00  0.28875366762E+02  0.28875367202E+02  0.50400000000E-02 0.  1.
          2   -1    0    0  501    0  0.00000000000E+00 -0.00000000000E+00 -0.61247488336E+02  0.61247488389E+02  0.25500000000E-02 0. -1.
         24    2    1    2    0    0  0.00000000000E+00 -0.88817841970E-15 -0.32372121575E+02  0.90122855591E+02  0.84108114024E+02 0.  0.
         66    2    3    3    0    0  0.34989215413E+02 -0.59454226528E+01 -0.40320761239E+02  0.53752740355E+02  0.20000157556E+01 0.  0.
        -13    1    3    3    0    0 -0.34989215413E+02  0.59454226528E+01  0.79486396640E+01  0.36370115236E+02  0.10566000000E+00 0.  1.
         13    1    4    4    0    0  0.26812014662E+02 -0.47626900165E+01 -0.31896049987E+02  0.41939677100E+02  0.10566000000E+00 0. -1.
        -13    1    4    4    0    0  0.55166886339E+01 -0.10222495011E+01 -0.55405396410E+01  0.78859109223E+01  0.10566000000E+00 0.  1.
         14    1    4    4    0    0  0.26605121177E+01 -0.16048313517E+00 -0.28841716103E+01  0.39271523325E+01  0.00000000000E+00 0. -1.
<mgrwt>
<rscale>  0 0.84108114E+02</rscale>
<asrwt>0</asrwt>
<pdfrwt beam="1">  1        2 0.94226905E-02 0.84108114E+02</pdfrwt>
<pdfrwt beam="2">  1       -1 0.44423642E-02 0.84108114E+02</pdfrwt>
<totfact> 0.13643330E+05</totfact>
</mgrwt>
</event>
<event>
 8    1  0.2433467E-024  0.7815551E+02  0.7818608E-02  0.1334369E+00
         -1   -1    0    0    0  501 -0.00000000000E+00  0.00000000000E+00  0.40003537553E+01  0.40003569302E+01  0.50400000000E-02 0.  1.
          2   -1    0    0  501    0  0.00000000000E+00 -0.00000000000E+00 -0.38173382948E+03  0.38173382949E+03  0.25500000000E-02 0. -1.
         24    2    1    2    0    0  0.00000000000E+00  0.17763568394E-14 -0.37773347572E+03  0.38573418642E+03  0.78155510932E+02 0.  0.
         66    2    3    3    0    0 -0.19594057357E+02 -0.11183241504E+02 -0.34631270536E+03  0.34705256354E+03  0.19999975788E+01 0.  0.
        -13    1    3    3    0    0  0.19594057357E+02  0.11183241504E+02 -0.31420770360E+02  0.38681622876E+02  0.10566000000E+00 0.  1.
         13    1    4    4    0    0 -0.98042658400E+01 -0.51872656404E+01 -0.18011810830E+03  0.18045934572E+03  0.10566000000E+00 0. -1.
        -13    1    4    4    0    0 -0.98616691336E+00 -0.47513732753E+00 -0.12882963573E+02  0.12929818062E+02  0.10566000000E+00 0. -1.
         14    1    4    4    0    0 -0.88036246040E+01 -0.55208385362E+01 -0.15331163349E+03  0.15366339976E+03  0.00000000000E+00 0. -1.
<mgrwt>
<rscale>  0 0.78155511E+02</rscale>
<asrwt>0</asrwt>
<pdfrwt beam="1">  1        2 0.58728253E-01 0.78155511E+02</pdfrwt>
<pdfrwt beam="2">  1       -1 0.61543959E-03 0.78155511E+02</pdfrwt>
<totfact> 0.29538085E+05</totfact>
</mgrwt>
</event>
<event>
 8    1  0.2433467E-024  0.7952566E+02  0.7818608E-02  0.1330403E+00
         -1   -1    0    0    0  501 -0.00000000000E+00  0.00000000000E+00  0.19310618476E+03  0.19310618483E+03  0.50400000000E-02 0.  1.
          2   -1    0    0  501    0  0.00000000000E+00 -0.00000000000E+00 -0.81876331621E+01  0.81876335591E+01  0.25500000000E-02 0. -1.
         24    2    1    2    0    0  0.35527136788E-14 -0.35527136788E-14  0.18491855160E+03  0.20129381839E+03  0.79525659978E+02 0.  0.
         66    2    3    3    0    0 -0.31192212406E+02  0.17870902068E+02  0.49655018748E+02  0.61334689570E+02  0.20000005726E+01 0.  0.
        -13    1    3    3    0    0  0.31192212406E+02 -0.17870902068E+02  0.13526353285E+03  0.13995912882E+03  0.10566000000E+00 0.  1.
         13    1    4    4    0    0 -0.23787036346E+02  0.13306700714E+02  0.37378501040E+02  0.46260727254E+02  0.10566000000E+00 0. -1.
        -13    1    4    4    0    0 -0.52291480133E+01  0.31146408996E+01  0.78613668988E+01  0.99426973419E+01  0.10566000000E+00 0.  1.
        -14    1    4    4    0    0 -0.21760280474E+01  0.14495604546E+01  0.44151508085E+01  0.51312649743E+01  0.00000000000E+00 0.  1.
<mgrwt>
<rscale>  0 0.79525660E+02</rscale>
<asrwt>0</asrwt>
<pdfrwt beam="1">  1        2 0.12596360E-02 0.79525660E+02</pdfrwt>
<pdfrwt beam="2">  1       -1 0.29708642E-01 0.79525660E+02</pdfrwt>
<totfact> 0.10218863E+05</totfact>
</mgrwt>
</event>
<event>
 8    1  0.2433467E-024  0.8098333E+02  0.7818608E-02  0.1326284E+00
          2   -1    0    0  501    0  0.00000000000E+00  0.00000000000E+00  0.14500420105E+03  0.14500420107E+03  0.25500000000E-02 0. -1.
         -1   -1    0    0    0  501 -0.00000000000E+00 -0.00000000000E+00 -0.11307085935E+02  0.11307087058E+02  0.50400000000E-02 0.  1.
         24    2    1    2    0    0  0.00000000000E+00 -0.71054273576E-14  0.13369711511E+03  0.15631128813E+03  0.80983332895E+02 0.  0.
         66    2    3    3    0    0 -0.26515114553E+02  0.22701638664E+02  0.10640600947E+03  0.11200292200E+03  0.19999967682E+01 0.  0.
        -13    1    3    3    0    0  0.26515114553E+02 -0.22701638664E+02  0.27291105641E+02  0.44308366128E+02  0.10566000000E+00 0.  1.
         13    1    4    4    0    0 -0.62013031142E+01  0.53903777811E+01  0.23502405731E+02  0.24897521405E+02  0.10566000000E+00 0. -1.
        -13    1    4    4    0    0 -0.24484492996E+01  0.16356255032E+01  0.83165786514E+01  0.88230844527E+01  0.10566000000E+00 0.  1.
         14    1    4    4    0    0 -0.17865362139E+02  0.15675635379E+02  0.74587025091E+02  0.78282316143E+02  0.00000000000E+00 0. -1.
<mgrwt>
<rscale>  0 0.80983333E+02</rscale>
<asrwt>0</asrwt>
<pdfrwt beam="1">  1        2 0.22308338E-01 0.80983333E+02</pdfrwt>
<pdfrwt beam="2">  1       -1 0.17395519E-02 0.80983333E+02</pdfrwt>
<totfact> 0.19180826E+05</totfact>
</mgrwt>
</event>
<event>
 8    1  0.2433467E-024  0.7787401E+02  0.7818608E-02  0.1335195E+00
          2   -1    0    0  501    0  0.00000000000E+00  0.00000000000E+00  0.12771674484E+02  0.12771674739E+02  0.25500000000E-02 0. -1.
         -1   -1    0    0    0  501 -0.00000000000E+00 -0.00000000000E+00 -0.11870725323E+03  0.11870725334E+03  0.50400000000E-02 0.  1.
         24    2    1    2    0    0  0.10658141036E-13  0.00000000000E+00 -0.10593557875E+03  0.13147892808E+03  0.77874011607E+02 0.  0.
         66    2    3    3    0    0 -0.28623563162E+02 -0.14932491254E+02 -0.16330039424E+02  0.36234760253E+02  0.19999999615E+01 0.  0.
        -13    1    3    3    0    0  0.28623563162E+02  0.14932491254E+02 -0.89605539322E+02  0.95244167823E+02  0.10566000000E+00 0.  1.
         13    1    4    4    0    0 -0.26800223781E+01 -0.12973473367E+01 -0.11546690658E+01  0.31953176284E+01  0.10566000000E+00 0. -1.
        -13    1    4    4    0    0 -0.60607989569E+01 -0.24958684966E+01 -0.35587732580E+01  0.74591336418E+01  0.10566000000E+00 0.  1.
         14    1    4    4    0    0 -0.19882741827E+02 -0.11139275421E+02 -0.11616597100E+02  0.25580308983E+02  0.00000000000E+00 0. -1.
<mgrwt>
<rscale>  0 0.77874012E+02</rscale>
<asrwt>0</asrwt>
<pdfrwt beam="1">  1        2 0.19648731E-02 0.77874012E+02</pdfrwt>
<pdfrwt beam="2">  1       -1 0.18262654E-01 0.77874012E+02</pdfrwt>
<totfact> 0.12210440E+05</totfact>
</mgrwt>
</event>
<event>
 8    1  0.2433467E-024  0.7983594E+02  0.7818608E-02  0.1329518E+00
          2   -1    0    0  501    0  0.00000000000E+00  0.00000000000E+00  0.10302228983E+04  0.10302228983E+04  0.25500000000E-02 0. -1.
         -1   -1    0    0    0  501 -0.00000000000E+00 -0.00000000000E+00 -0.15466945231E+01  0.15467027347E+01  0.50400000000E-02 0.  1.
         24    2    1    2    0    0  0.35527136788E-14  0.00000000000E+00  0.10286762037E+04  0.10317696010E+04  0.79835940583E+02 0.  0.
         66    2    3    3    0    0  0.29144562892E+02  0.74353391256E+01  0.85333525281E+03  0.85386752105E+03  0.20000000764E+01 0.  0.
        -13    1    3    3    0    0 -0.29144562892E+02 -0.74353391256E+01  0.17534095093E+03  0.17790207995E+03  0.10566000000E+00 0.  1.
         13    1    4    4    0    0  0.79489243708E+01  0.20895059473E+01  0.22812962052E+03  0.22827765190E+03  0.10566000000E+00 0. -1.
        -13    1    4    4    0    0  0.13587724280E+02  0.34641798051E+01  0.42323512571E+03  0.42346736544E+03  0.10566000000E+00 0.  1.
        -14    1    4    4    0    0  0.76079142416E+01  0.18816533732E+01  0.20197050658E+03  0.20212250371E+03  0.00000000000E+00 0.  1.
<mgrwt>
<rscale>  0 0.79835941E+02</rscale>
<asrwt>0</asrwt>
<pdfrwt beam="1">  1        2 0.15849576E+00 0.79835941E+02</pdfrwt>
<pdfrwt beam="2">  1       -1 0.23795375E-03 0.79835941E+02</pdfrwt>
<totfact> 0.35452302E+05</totfact>
</mgrwt>
</event>
<event>
 8    1  0.2433467E-024  0.7988505E+02  0.7818608E-02  0.1329378E+00
          2   -1    0    0  501    0  0.00000000000E+00  0.00000000000E+00  0.23725379001E+02  0.23725379138E+02  0.25500000000E-02 0. -1.
         -1   -1    0    0    0  501 -0.00000000000E+00 -0.00000000000E+00 -0.67244678229E+02  0.67244678417E+02  0.50400000000E-02 0.  1.
         24    2    1    2    0    0  0.00000000000E+00  0.71054273576E-14 -0.43519299227E+02  0.90970057556E+02  0.79885054712E+02 0.  0.
         66    2    3    3    0    0  0.20390193248E+02  0.34316744902E+02 -0.21728092355E+02  0.45491855938E+02  0.19999994796E+01 0.  0.
        -13    1    3    3    0    0 -0.20390193248E+02 -0.34316744902E+02 -0.21791206873E+02  0.45478201618E+02  0.10566000000E+00 0.  1.
         13    1    4    4    0    0  0.19007582521E+01  0.31057539930E+01 -0.14845964504E+01  0.39336726420E+01  0.10566000000E+00 0. -1.
        -13    1    4    4    0    0  0.28090523466E+01  0.50145209168E+01 -0.36486550270E+01  0.68088209444E+01  0.10566000000E+00 0.  1.
        -14    1    4    4    0    0  0.15680382649E+02  0.26196469992E+02 -0.16594840878E+02  0.34749362352E+02  0.00000000000E+00 0.  1.
<mgrwt>
<rscale>  0 0.79885055E+02</rscale>
<asrwt>0</asrwt>
<pdfrwt beam="1">  1        2 0.36500584E-02 0.79885055E+02</pdfrwt>
<pdfrwt beam="2">  1       -1 0.10345335E-01 0.79885055E+02</pdfrwt>
<totfact> 0.12899403E+05</totfact>
</mgrwt>
</event>
<event>
 8    1  0.2433467E-024  0.8203624E+02  0.7818608E-02  0.1323370E+00
         -1   -1    0    0    0  501 -0.00000000000E+00  0.00000000000E+00  0.43959302651E+03  0.43959302654E+03  0.50400000000E-02 0.  1.
          2   -1    0    0  501    0  0.00000000000E+00 -0.00000000000E+00 -0.38273716379E+01  0.38273724874E+01  0.25500000000E-02 0. -1.
         24    2    1    2    0    0  0.00000000000E+00  0.00000000000E+00  0.43576565487E+03  0.44342039903E+03  0.82036237765E+02 0.  0.
         66    2    3    3    0    0 -0.36627049884E+02 -0.18347767059E+02  0.20981511046E+03  0.21378625300E+03  0.20000133009E+01 0.  0.
        -13    1    3    3    0    0  0.36627049884E+02  0.18347767059E+02  0.22595054441E+03  0.22963414603E+03  0.10566000000E+00 0.  1.
         13    1    4    4    0    0 -0.20572280022E+02 -0.10553234774E+02  0.11785867701E+03  0.12010523877E+03  0.10566000000E+00 0. -1.
        -13    1    4    4    0    0 -0.68043913453E+00 -0.62038621964E+00  0.47627544971E+01  0.48520996396E+01  0.10566000000E+00 0.  1.
         14    1    4    4    0    0 -0.15374330727E+02 -0.71741460655E+01  0.87193678955E+02  0.88828914587E+02  0.00000000000E+00 0. -1.
<mgrwt>
<rscale>  0 0.82036238E+02</rscale>
<asrwt>0</asrwt>
<pdfrwt beam="1">  1        2 0.58882676E-03 0.82036238E+02</pdfrwt>
<pdfrwt beam="2">  1       -1 0.67629663E-01 0.82036238E+02</pdfrwt>
<totfact> 0.67541409E+04</totfact>
</mgrwt>
</event>
<event>
 8    1  0.2433467E-024  0.7819784E+02  0.7818608E-02  0.1334245E+00
          2   -1    0    0  501    0  0.00000000000E+00  0.00000000000E+00  0.45901501601E+01  0.45901508684E+01  0.25500000000E-02 0. -1.
         -1   -1    0    0    0  501 -0.00000000000E+00 -0.00000000000E+00 -0.33304472235E+03  0.33304472239E+03  0.50400000000E-02 0.  1.
         24    2    1    2    0    0  0.00000000000E+00  0.00000000000E+00 -0.32845457219E+03  0.33763487325E+03  0.78197836584E+02 0.  0.
         66    2    3    3    0    0 -0.32072612948E+02 -0.21983422129E+02 -0.14772549334E+03  0.15277023506E+03  0.19999969430E+01 0.  0.
        -13    1    3    3    0    0  0.32072612948E+02  0.21983422129E+02 -0.18072907885E+03  0.18486463819E+03  0.10566000000E+00 0.  1.
         13    1    4    4    0    0 -0.21076773634E+02 -0.14457650362E+02 -0.97210143308E+02  0.10051406452E+03  0.10566000000E+00 0. -1.
        -13    1    4    4    0    0 -0.62232237388E+01 -0.35604943575E+01 -0.26974177464E+02  0.27910984355E+02  0.10566000000E+00 0.  1.
        -14    1    4    4    0    0 -0.47726155747E+01 -0.39652774098E+01 -0.23541172569E+02  0.24345186183E+02  0.00000000000E+00 0.  1.
<mgrwt>
<rscale>  0 0.78197837E+02</rscale>
<asrwt>0</asrwt>
<pdfrwt beam="1">  1        2 0.70617727E-03 0.78197837E+02</pdfrwt>
<pdfrwt beam="2">  1       -1 0.51237631E-01 0.78197837E+02</pdfrwt>
<totfact> 0.87678985E+04</totfact>
</mgrwt>
</event>
<event>
 8    1  0.2433467E-024  0.8182406E+02  0.7818608E-02  0.1323953E+00
          2   -1    0    0  501    0  0.00000000000E+00  0.00000000000E+00  0.77584237735E+03  0.77584237735E+03  0.25500000000E-02 0. -1.
         -1   -1    0    0    0  501 -0.00000000000E+00 -0.00000000000E+00 -0.21573867869E+01  0.21573926740E+01  0.50400000000E-02 0.  1.
         24    2    1    2    0    0  0.17763568394E-14 -0.35527136788E-14  0.77368499056E+03  0.77799977003E+03  0.81824064561E+02 0.  0.
         66    2    3    3    0    0 -0.13422350963E+02  0.20072828307E+02  0.70080207613E+03  0.70122081248E+03  0.20000019903E+01 0.  0.
        -13    1    3    3    0    0  0.13422350963E+02 -0.20072828307E+02  0.72882914432E+02  0.76778957545E+02  0.10566000000E+00 0.  1.
         13    1    4    4    0    0 -0.87415088345E+01  0.14010716450E+02  0.49929587053E+03  0.49956890580E+03  0.10566000000E+00 0. -1.
        -13    1    4    4    0    0 -0.41015544252E+01  0.51691614844E+01  0.17412105895E+03  0.17424608263E+03  0.10566000000E+00 0.  1.
         14    1    4    4    0    0 -0.57928770312E+00  0.89295037239E+00  0.27385146649E+02  0.27405824046E+02  0.00000000000E+00 0. -1.
<mgrwt>
<rscale>  0 0.81824065E+02</rscale>
<asrwt>0</asrwt>
<pdfrwt beam="1">  1        2 0.11936028E+00 0.81824065E+02</pdfrwt>
<pdfrwt beam="2">  1       -1 0.33190634E-03 0.81824065E+02</pdfrwt>
<totfact> 0.32230387E+05</totfact>
</mgrwt>
</event>
<event>
 8    1  0.2433467E-024  0.7847200E+02  0.7818608E-02  0.1333444E+00
          2   -1    0    0  501    0  0.00000000000E+00  0.00000000000E+00  0.99853335760E+02  0.99853335792E+02  0.25500000000E-02 0. -1.
         -1   -1    0    0    0  501 -0.00000000000E+00 -0.00000000000E+00 -0.15417249131E+02  0.15417249954E+02  0.50400000000E-02 0.  1.
         24    2    1    2    0    0  0.00000000000E+00 -0.71054273576E-14  0.84436086629E+02  0.11527058575E+03  0.78472002734E+02 0.  0.
         66    2    3    3    0    0  0.17694615294E+02  0.32414778229E+02  0.22888720045E+02  0.43493801509E+02  0.20000015976E+01 0.  0.
        -13    1    3    3    0    0 -0.17694615294E+02 -0.32414778229E+02  0.61547366584E+02  0.71776784237E+02  0.10566000000E+00 0.  1.
         13    1    4    4    0    0  0.30584491866E+01  0.52403127467E+01  0.40006758795E+01  0.72685322204E+01  0.10566000000E+00 0. -1.
        -13    1    4    4    0    0  0.31801647773E+01  0.50368800135E+01  0.42566745984E+01  0.73221616312E+01  0.10566000000E+00 0.  1.
         14    1    4    4    0    0  0.11456001331E+02  0.22137585468E+02  0.14631369568E+02  0.28903107658E+02  0.00000000000E+00 0. -1.
<mgrwt>
<rscale>  0 0.78472003E+02</rscale>
<asrwt>0</asrwt>
<pdfrwt beam="1">  1        2 0.15362052E-01 0.78472003E+02</pdfrwt>
<pdfrwt beam="2">  1       -1 0.23718845E-02 0.78472003E+02</pdfrwt>
<totfact> 0.18656932E+05</totfact>
</mgrwt>
</event>
<event>
 8    1  0.2433467E-024  0.7980117E+02  0.7818608E-02  0.1329617E+00
          2   -1    0    0  501    0  0.00000000000E+00  0.00000000000E+00  0.53027294399E+02  0.53027294460E+02  0.25500000000E-02 0. -1.
         -1   -1    0    0    0  501 -0.00000000000E+00 -0.00000000000E+00 -0.30023343034E+02  0.30023343457E+02  0.50400000000E-02 0.  1.
         24    2    1    2    0    0  0.00000000000E+00  0.00000000000E+00  0.23003951365E+02  0.83050637917E+02  0.79801169666E+02 0.  0.
         66    2    3    3    0    0 -0.27144166252E+02  0.17331024631E+01  0.41855432902E+02  0.49956848080E+02  0.20000002713E+01 0.  0.
        -13    1    3    3    0    0  0.27144166252E+02 -0.17331024631E+01 -0.18851481536E+02  0.33093789837E+02  0.10566000000E+00 0.  1.
         13    1    4    4    0    0 -0.73137358308E+01  0.95180733948E-01  0.11057180089E+02  0.13257910346E+02  0.10566000000E+00 0. -1.
        -13    1    4    4    0    0 -0.13573550903E+02  0.17432252019E+01  0.21758355768E+02  0.25704422343E+02  0.10566000000E+00 0.  1.
        -14    1    4    4    0    0 -0.62568795178E+01 -0.10530347276E+00  0.90398970448E+01  0.10994515392E+02  0.00000000000E+00 0.  1.
<mgrwt>
<rscale>  0 0.79801170E+02</rscale>
<asrwt>0</asrwt>
<pdfrwt beam="1">  1        2 0.81580452E-02 0.79801170E+02</pdfrwt>
<pdfrwt beam="2">  1       -1 0.46189760E-02 0.79801170E+02</pdfrwt>
<totfact> 0.15240474E+05</totfact>
</mgrwt>
</event>
<event>
 8    1  0.2433467E-024  0.8045322E+02  0.7818608E-02  0.1327770E+00
          2   -1    0    0  501    0  0.00000000000E+00  0.00000000000E+00  0.62895322707E+02  0.62895322759E+02  0.25500000000E-02 0. -1.
         -1   -1    0    0    0  501 -0.00000000000E+00 -0.00000000000E+00 -0.25728147243E+02  0.25728147736E+02  0.50400000000E-02 0.  1.
         24    2    1    2    0    0  0.17763568394E-14  0.00000000000E+00  0.37167175464E+02  0.88623470495E+02  0.80453219890E+02 0.  0.
         66    2    3    3    0    0 -0.10414977394E+02  0.16790173172E+02  0.57161873375E+02  0.60513316140E+02  0.19999983021E+01 0.  0.
        -13    1    3    3    0    0  0.10414977394E+02 -0.16790173172E+02 -0.19994697911E+02  0.28110154355E+02  0.10566000000E+00 0.  1.
         13    1    4    4    0    0 -0.36930424530E+01  0.66271360234E+01  0.19570136768E+02  0.20989495268E+02  0.10566000000E+00 0. -1.
        -13    1    4    4    0    0 -0.33667153462E+01  0.49869527436E+01  0.19693617826E+02  0.20592576745E+02  0.10566000000E+00 0.  1.
        -14    1    4    4    0    0 -0.33552195953E+01  0.51760844045E+01  0.17898118782E+02  0.18931244128E+02  0.00000000000E+00 0.  1.
<mgrwt>
<rscale>  0 0.80453220E+02</rscale>
<asrwt>0</asrwt>
<pdfrwt beam="1">  1        2 0.96762034E-02 0.80453220E+02</pdfrwt>
<pdfrwt beam="2">  1       -1 0.39581766E-02 0.80453220E+02</pdfrwt>
<totfact> 0.15498222E+05</totfact>
</mgrwt>
</event>
<event>
 8    1  0.2433467E-024  0.7926271E+02  0.7818608E-02  0.1331157E+00
          2   -1    0    0  501    0  0.00000000000E+00  0.00000000000E+00  0.14919643834E+03  0.14919643836E+03  0.25500000000E-02 0. -1.
         -1   -1    0    0    0  501 -0.00000000000E+00 -0.00000000000E+00 -0.10527357177E+02  0.10527358383E+02  0.50400000000E-02 0.  1.
         24    2    1    2    0    0  0.00000000000E+00  0.00000000000E+00  0.13866908116E+03  0.15972379675E+03  0.79262709871E+02 0.  0.
         66    2    3    3    0    0  0.26207127364E+01 -0.31173873466E+02  0.11832400803E+03  0.12240608397E+03  0.19999984714E+01 0.  0.
        -13    1    3    3    0    0 -0.26207127364E+01  0.31173873466E+02  0.20345073132E+02  0.37317712777E+02  0.10566000000E+00 0.  1.
         13    1    4    4    0    0  0.51627313519E+00 -0.40399842011E+01  0.14582762934E+02  0.15141206990E+02  0.10566000000E+00 0. -1.
        -13    1    4    4    0    0 -0.22890456504E+00 -0.11237408427E+01  0.41946677109E+01  0.43498956334E+01  0.10566000000E+00 0.  1.
         14    1    4    4    0    0  0.23333441662E+01 -0.26010148422E+02  0.99546577386E+02  0.10291498134E+03  0.00000000000E+00 0. -1.
<mgrwt>
<rscale>  0 0.79262710E+02</rscale>
<asrwt>0</asrwt>
<pdfrwt beam="1">  1        2 0.22953298E-01 0.79262710E+02</pdfrwt>
<pdfrwt beam="2">  1       -1 0.16195935E-02 0.79262710E+02</pdfrwt>
<totfact> 0.20492539E+05</totfact>
</mgrwt>
</event>
<event>
 8    1  0.2433467E-024  0.8639629E+02  0.7818608E-02  0.1311821E+00
         -1   -1    0    0    0  501 -0.00000000000E+00  0.00000000000E+00  0.69408942839E+01  0.69408961138E+01  0.50400000000E-02 0.  1.
          2   -1    0    0  501    0  0.00000000000E+00 -0.00000000000E+00 -0.26885289654E+03  0.26885289655E+03  0.25500000000E-02 0. -1.
         24    2    1    2    0    0  0.00000000000E+00  0.00000000000E+00 -0.26191200226E+03  0.27579379267E+03  0.86396291282E+02 0.  0.
         66    2    3    3    0    0 -0.13739873317E+01 -0.22942238129E+02 -0.24769799978E+03  0.24877004085E+03  0.20000000323E+01 0.  0.
        -13    1    3    3    0    0  0.13739873317E+01  0.22942238129E+02 -0.14214002476E+02  0.27023751811E+02  0.10566000000E+00 0.  1.
         13    1    4    4    0    0 -0.55089775424E-01 -0.97470818367E+01 -0.10619779362E+03  0.10664422709E+03  0.10566000000E+00 0. -1.
        -13    1    4    4    0    0 -0.50595542016E-01 -0.28642367489E+00 -0.19890743452E+01  0.20130025377E+01  0.10566000000E+00 0.  1.
        -14    1    4    4    0    0 -0.12683020143E+01 -0.12908732617E+02 -0.13951113182E+03  0.14011281123E+03  0.00000000000E+00 0.  1.
<mgrwt>
<rscale>  0 0.86396291E+02</rscale>
<asrwt>0</asrwt>
<pdfrwt beam="1">  1        2 0.41361976E-01 0.86396291E+02</pdfrwt>
<pdfrwt beam="2">  1       -1 0.10678302E-02 0.86396291E+02</pdfrwt>
<totfact> 0.20005111E+05</totfact>
</mgrwt>
</event>
<event>
 8    1  0.2433467E-024  0.7421099E+02  0.7818608E-02  0.1346332E+00
         -1   -1    0    0    0  501 -0.00000000000E+00  0.00000000000E+00  0.32028364675E+01  0.32028404330E+01  0.50400000000E-02 0.  1.
          2   -1    0    0  501    0  0.00000000000E+00 -0.00000000000E+00 -0.42987427206E+03  0.42987427207E+03  0.25500000000E-02 0. -1.
         24    2    1    2    0    0 -0.44408920985E-15  0.00000000000E+00 -0.42667143559E+03  0.43307711250E+03  0.74210992591E+02 0.  0.
         66    2    3    3    0    0 -0.34346167167E+01  0.28728085776E+02 -0.34881349594E+03  0.35001707737E+03  0.19999997337E+01 0.  0.
        -13    1    3    3    0    0  0.34346167167E+01 -0.28728085776E+02 -0.77857939657E+02  0.83060035131E+02  0.10566000000E+00 0.  1.
         13    1    4    4    0    0 -0.22241414203E+01  0.22624213132E+02 -0.27378081565E+03  0.27472303873E+03  0.10566000000E+00 0. -1.
        -13    1    4    4    0    0  0.80674486729E-01  0.65395687146E+00 -0.79746914864E+01  0.80025643578E+01  0.10566000000E+00 0.  1.
         14    1    4    4    0    0 -0.12911497831E+01  0.54499157730E+01 -0.67057988797E+02  0.67291474283E+02  0.00000000000E+00 0. -1.
<mgrwt>
<rscale>  0 0.74210993E+02</rscale>
<asrwt>0</asrwt>
<pdfrwt beam="1">  1        2 0.66134458E-01 0.74210993E+02</pdfrwt>
<pdfrwt beam="2">  1       -1 0.49274472E-03 0.74210993E+02</pdfrwt>
<totfact> 0.35213049E+05</totfact>
</mgrwt>
</event>
<event>
 8    1  0.2433467E-024  0.8069078E+02  0.7818608E-02  0.1327102E+00
         -1   -1    0    0    0  501 -0.00000000000E+00  0.00000000000E+00  0.87941061549E+02  0.87941061693E+02  0.50400000000E-02 0.  1.
          2   -1    0    0  501    0  0.00000000000E+00 -0.00000000000E+00 -0.18509562782E+02  0.18509562957E+02  0.25500000000E-02 0. -1.
         24    2    1    2    0    0  0.35527136788E-14  0.00000000000E+00  0.69431498767E+02  0.10645062465E+03  0.80690783039E+02 0.  0.
         66    2    3    3    0    0 -0.31302331902E+02  0.24758914779E+02  0.27169376823E+02  0.48321991785E+02  0.20000023901E+01 0.  0.
        -13    1    3    3    0    0  0.31302331902E+02 -0.24758914779E+02  0.42262121944E+02  0.58128632865E+02  0.10566000000E+00 0.  1.
         13    1    4    4    0    0 -0.47692606572E+01  0.44597418958E+01  0.42867170556E+01  0.78116740936E+01  0.10566000000E+00 0. -1.
        -13    1    4    4    0    0 -0.76552250287E+01  0.54772556982E+01  0.59273154881E+01  0.11124164380E+02  0.10566000000E+00 0.  1.
        -14    1    4    4    0    0 -0.18877846216E+02  0.14821917185E+02  0.16955344279E+02  0.29386153311E+02  0.00000000000E+00 0.  1.
<mgrwt>
<rscale>  0 0.80690783E+02</rscale>
<asrwt>0</asrwt>
<pdfrwt beam="1">  1        2 0.28476251E-02 0.80690783E+02</pdfrwt>
<pdfrwt beam="2">  1       -1 0.13529394E-01 0.80690783E+02</pdfrwt>
<totfact> 0.11921052E+05</totfact>
</mgrwt>
</event>
<event>
 8    1  0.2433467E-024  0.8439093E+02  0.7818608E-02  0.1317033E+00
         -1   -1    0    0    0  501 -0.00000000000E+00  0.00000000000E+00  0.22192910533E+01  0.22192967762E+01  0.50400000000E-02 0.  1.
          2   -1    0    0  501    0  0.00000000000E+00 -0.00000000000E+00 -0.80226298503E+03  0.80226298504E+03  0.25500000000E-02 0. -1.
         24    2    1    2    0    0  0.00000000000E+00 -0.35527136788E-14 -0.80004369398E+03  0.80448228181E+03  0.84390932420E+02 0.  0.
         66    2    3    3    0    0  0.21487137646E+02 -0.31136119045E+02 -0.57789843888E+03  0.57913880948E+03  0.19999997426E+01 0.  0.
        -13    1    3    3    0    0 -0.21487137646E+02  0.31136119045E+02 -0.22214525510E+03  0.22534347233E+03  0.10566000000E+00 0.  1.
         13    1    4    4    0    0  0.10103075011E+02 -0.15868992146E+02 -0.28871090200E+03  0.28932316384E+03  0.10566000000E+00 0. -1.
        -13    1    4    4    0    0  0.95601667828E+01 -0.13387299203E+02 -0.24888402156E+03  0.24942711144E+03  0.10566000000E+00 0.  1.
        -14    1    4    4    0    0  0.18238958525E+01 -0.18798276957E+01 -0.40303515312E+02  0.40388534199E+02  0.00000000000E+00 0.  1.
<mgrwt>
<rscale>  0 0.84390932E+02</rscale>
<asrwt>0</asrwt>
<pdfrwt beam="1">  1        2 0.12342484E+00 0.84390932E+02</pdfrwt>
<pdfrwt beam="2">  1       -1 0.34143048E-03 0.84390932E+02</pdfrwt>
<totfact> 0.29915186E+05</totfact>
</mgrwt>
</event>
<event>
 8    1  0.2433467E-024  0.8177950E+02  0.7818608E-02  0.1324076E+00
         -1   -1    0    0    0  501 -0.00000000000E+00  0.00000000000E+00  0.32785333895E+01  0.32785372634E+01  0.50400000000E-02 0.  1.
          2   -1    0    0  501    0  0.00000000000E+00 -0.00000000000E+00 -0.50997521393E+03  0.50997521394E+03  0.25500000000E-02 0. -1.
         24    2    1    2    0    0  0.00000000000E+00 -0.17763568394E-14 -0.50669668054E+03  0.51325375120E+03  0.81779502627E+02 0.  0.
         66    2    3    3    0    0  0.39436136554E+02 -0.93878446878E+01 -0.28588437130E+03  0.28875112856E+03  0.19999998275E+01 0.  0.
        -13    1    3    3    0    0 -0.39436136554E+02  0.93878446878E+01 -0.22081230925E+03  0.22450262264E+03  0.10566000000E+00 0.  1.
         13    1    4    4    0    0  0.27362433207E+02 -0.63919941960E+01 -0.19617655162E+03  0.19817873475E+03  0.10566000000E+00 0. -1.
        -13    1    4    4    0    0  0.27780914685E+00 -0.11672869746E+00 -0.15713084403E+01  0.16034268805E+01  0.10566000000E+00 0.  1.
        -14    1    4    4    0    0  0.11795894200E+02 -0.28791217944E+01 -0.88136511241E+02  0.88968966926E+02  0.00000000000E+00 0.  1.
<mgrwt>
<rscale>  0 0.81779503E+02</rscale>
<asrwt>0</asrwt>
<pdfrwt beam="1">  1        2 0.78457662E-01 0.81779503E+02</pdfrwt>
<pdfrwt beam="2">  1       -1 0.50439046E-03 0.81779503E+02</pdfrwt>
<totfact> 0.28933491E+05</totfact>
</mgrwt>
</event>
<event>
 8    1  0.2433467E-024  0.8040066E+02  0.7818608E-02  0.1327918E+00
         -1   -1    0    0    0  501 -0.00000000000E+00  0.00000000000E+00  0.84274688025E+02  0.84274688175E+02  0.50400000000E-02 0.  1.
          2   -1    0    0  501    0  0.00000000000E+00 -0.00000000000E+00 -0.19176179853E+02  0.19176180022E+02  0.25500000000E-02 0. -1.
         24    2    1    2    0    0  0.00000000000E+00 -0.35527136788E-14  0.65098508172E+02  0.10345086820E+03  0.80400661469E+02 0.  0.
         66    2    3    3    0    0 -0.20765131221E+02  0.30717059136E+02  0.12663705393E+02  0.39231337655E+02  0.20000058387E+01 0.  0.
        -13    1    3    3    0    0  0.20765131221E+02 -0.30717059136E+02  0.52434802779E+02  0.64219530542E+02  0.10566000000E+00 0.  1.
         13    1    4    4    0    0 -0.72349928720E+01  0.10723318373E+02  0.50570225195E+01  0.13889539934E+02  0.10566000000E+00 0. -1.
        -13    1    4    4    0    0 -0.10996911936E+01  0.16917218097E+01  0.98583506983E+00  0.22481721961E+01  0.10566000000E+00 0. -1.
        -14    1    4    4    0    0 -0.12430447155E+02  0.18302018953E+02  0.66208478038E+01  0.23093625525E+02  0.00000000000E+00 0.  1.
<mgrwt>
<rscale>  0 0.80400661E+02</rscale>
<asrwt>0</asrwt>
<pdfrwt beam="1">  1        2 0.29501815E-02 0.80400661E+02</pdfrwt>
<pdfrwt beam="2">  1       -1 0.12965337E-01 0.80400661E+02</pdfrwt>
<totfact> 0.12134101E+05</totfact>
</mgrwt>
</event>
<event>
 8    1  0.2433467E-024  0.8109340E+02  0.7818608E-02  0.1325977E+00
         -1   -1    0    0    0  501 -0.00000000000E+00  0.00000000000E+00  0.69921445871E+01  0.69921464036E+01  0.50400000000E-02 0.  1.
          2   -1    0    0  501    0  0.00000000000E+00 -0.00000000000E+00 -0.23512595343E+03  0.23512595344E+03  0.25500000000E-02 0. -1.
         24    2    1    2    0    0  0.00000000000E+00  0.00000000000E+00 -0.22813380884E+03  0.24211809985E+03  0.81093400080E+02 0.  0.
         66    2    3    3    0    0  0.33768772156E+01 -0.32708183207E+02 -0.18484046601E+03  0.18775309965E+03  0.20000015600E+01 0.  0.
        -13    1    3    3    0    0 -0.33768772156E+01  0.32708183207E+02 -0.43293342833E+02  0.54365000194E+02  0.10566000000E+00 0.  1.
         13    1    4    4    0    0  0.17316505211E+01 -0.14013832674E+02 -0.79415638632E+02  0.80661272883E+02  0.10566000000E+00 0. -1.
        -13    1    4    4    0    0  0.35190601168E+00 -0.12381755251E+01 -0.59322443823E+01  0.60712110751E+01  0.10566000000E+00 0.  1.
         14    1    4    4    0    0  0.12933206828E+01 -0.17456175007E+02 -0.99492582994E+02  0.10102061569E+03  0.00000000000E+00 0. -1.
<mgrwt>
<rscale>  0 0.81093400E+02</rscale>
<asrwt>0</asrwt>
<pdfrwt beam="1">  1        2 0.36173217E-01 0.81093400E+02</pdfrwt>
<pdfrwt beam="2">  1       -1 0.10757149E-02 0.81093400E+02</pdfrwt>
<totfact> 0.22531182E+05</totfact>
</mgrwt>
</event>
<event>
 8    1  0.2433467E-024  0.7921599E+02  0.7818608E-02  0.1331291E+00
         -1   -1    0    0    0  501 -0.00000000000E+00  0.00000000000E+00  0.28792726065E+02  0.28792726506E+02  0.50400000000E-02 0.  1.
          2   -1    0    0  501    0  0.00000000000E+00 -0.00000000000E+00 -0.54485746953E+02  0.54485747013E+02  0.25500000000E-02 0. -1.
         24    2    1    2    0    0  0.00000000000E+00  0.00000000000E+00 -0.25693020888E+02  0.83278473519E+02  0.79215988470E+02 0.  0.
         66    2    3    3    0    0 -0.12514601258E+01 -0.14512005158E+02 -0.51547396694E+02  0.53603157876E+02  0.19999955461E+01 0.  0.
        -13    1    3    3    0    0  0.12514601258E+01  0.14512005158E+02  0.25854375806E+02  0.29675315643E+02  0.10566000000E+00 0.  1.
         13    1    4    4    0    0  0.24371816703E+00 -0.42026097600E+01 -0.15500567532E+02  0.16062381056E+02  0.10566000000E+00 0. -1.
        -13    1    4    4    0    0 -0.14492727262E+01 -0.76620668670E+01 -0.28247851244E+02  0.29304605850E+02  0.10566000000E+00 0.  1.
        -14    1    4    4    0    0 -0.45905566674E-01 -0.26473285309E+01 -0.77989779182E+01  0.82361709696E+01  0.00000000000E+00 0.  1.
<mgrwt>
<rscale>  0 0.79215988E+02</rscale>
<asrwt>0</asrwt>
<pdfrwt beam="1">  1        2 0.83824226E-02 0.79215988E+02</pdfrwt>
<pdfrwt beam="2">  1       -1 0.44296502E-02 0.79215988E+02</pdfrwt>
<totfact> 0.15643690E+05</totfact>
</mgrwt>
</event>
<event>
 8    1  0.2433467E-024  0.8152251E+02  0.7818608E-02  0.1324785E+00
          2   -1    0    0  501    0  0.00000000000E+00  0.00000000000E+00  0.51609446446E+02  0.51609446509E+02  0.25500000000E-02 0. -1.
         -1   -1    0    0    0  501 -0.00000000000E+00 -0.00000000000E+00 -0.32193326330E+02  0.32193326724E+02  0.50400000000E-02 0.  1.
         24    2    1    2    0    0  0.00000000000E+00  0.00000000000E+00  0.19416120116E+02  0.83802773233E+02  0.81522506593E+02 0.  0.
         66    2    3    3    0    0 -0.37071439096E+02  0.15873054380E+02  0.15639614693E+02  0.43299457206E+02  0.19999986410E+01 0.  0.
        -13    1    3    3    0    0  0.37071439096E+02 -0.15873054380E+02  0.37765054229E+01  0.40503316027E+02  0.10566000000E+00 0.  1.
         13    1    4    4    0    0 -0.31010578714E+00  0.16656515393E+00  0.42156581962E-01  0.36993345716E+00  0.10566000000E+00 0. -1.
        -13    1    4    4    0    0 -0.71696499687E+01  0.34487364308E+01  0.27397972805E+01  0.84151837066E+01  0.10566000000E+00 0.  1.
         14    1    4    4    0    0 -0.29591683340E+02  0.12257752795E+02  0.12857660831E+02  0.34514340042E+02  0.00000000000E+00 0. -1.
<mgrwt>
<rscale>  0 0.81522507E+02</rscale>
<asrwt>0</asrwt>
<pdfrwt beam="1">  1        2 0.79399148E-02 0.81522507E+02</pdfrwt>
<pdfrwt beam="2">  1       -1 0.49528195E-02 0.81522507E+02</pdfrwt>
<totfact> 0.14289473E+05</totfact>
</mgrwt>
</event>
<event>
 8    1  0.2433467E-024  0.8059096E+02  0.7818608E-02  0.1327383E+00
         -1   -1    0    0    0  501 -0.00000000000E+00  0.00000000000E+00  0.43816593217E+01  0.43816622203E+01  0.50400000000E-02 0.  1.
          2   -1    0    0  501    0  0.00000000000E+00 -0.00000000000E+00 -0.37057316114E+03  0.37057316115E+03  0.25500000000E-02 0. -1.
         24    2    1    2    0    0  0.71054273576E-14  0.00000000000E+00 -0.36619150182E+03  0.37495482337E+03  0.80590964529E+02 0.  0.
         66    2    3    3    0    0 -0.40061752982E+02 -0.40762383788E+01 -0.18134050115E+03  0.18576850414E+03  0.20000004392E+01 0.  0.
        -13    1    3    3    0    0  0.40061752982E+02  0.40762383788E+01 -0.18485100066E+03  0.18918631922E+03  0.10566000000E+00 0.  1.
         13    1    4    4    0    0 -0.77989320044E+01 -0.13623428392E+01 -0.34530600672E+02  0.35426725297E+02  0.10566000000E+00 0. -1.
        -13    1    4    4    0    0 -0.42509685199E+01 -0.68748327326E+00 -0.18784461642E+02  0.19272014161E+02  0.10566000000E+00 0.  1.
         14    1    4    4    0    0 -0.28011852458E+02 -0.20264122664E+01 -0.12802543884E+03  0.13106976469E+03  0.00000000000E+00 0. -1.
<mgrwt>
<rscale>  0 0.80590965E+02</rscale>
<asrwt>0</asrwt>
<pdfrwt beam="1">  1        2 0.57011231E-01 0.80590965E+02</pdfrwt>
<pdfrwt beam="2">  1       -1 0.67410195E-03 0.80590965E+02</pdfrwt>
<totfact> 0.26977878E+05</totfact>
</mgrwt>
</event>
<event>
 8    1  0.2433467E-024  0.8016588E+02  0.7818608E-02  0.1328581E+00
         -1   -1    0    0    0  501 -0.00000000000E+00  0.00000000000E+00  0.96343446627E+01  0.96343459810E+01  0.50400000000E-02 0.  1.
          2   -1    0    0  501    0  0.00000000000E+00 -0.00000000000E+00 -0.16676192257E+03  0.16676192259E+03  0.25500000000E-02 0. -1.
         24    2    1    2    0    0  0.17763568394E-14  0.00000000000E+00 -0.15712757790E+03  0.17639626857E+03  0.80165876946E+02 0.  0.
         66    2    3    3    0    0 -0.10941460303E+02  0.35661115602E+02 -0.46483356631E+02  0.59633322456E+02  0.19999959729E+01 0.  0.
        -13    1    3    3    0    0  0.10941460303E+02 -0.35661115602E+02 -0.11064422127E+03  0.11676294611E+03  0.10566000000E+00 0.  1.
         13    1    4    4    0    0 -0.41442691565E+01  0.13344568854E+02 -0.16984781224E+02  0.21994236563E+02  0.10566000000E+00 0. -1.
        -13    1    4    4    0    0 -0.90630927898E+00  0.48259336980E+01 -0.57450018251E+01  0.75582565829E+01  0.10566000000E+00 0.  1.
        -14    1    4    4    0    0 -0.58908818671E+01  0.17490613050E+02 -0.23753573582E+02  0.30080829310E+02  0.00000000000E+00 0.  1.
<mgrwt>
<rscale>  0 0.80165877E+02</rscale>
<asrwt>0</asrwt>
<pdfrwt beam="1">  1        2 0.25655678E-01 0.80165877E+02</pdfrwt>
<pdfrwt beam="2">  1       -1 0.14822071E-02 0.80165877E+02</pdfrwt>
<totfact> 0.20622798E+05</totfact>
</mgrwt>
</event>
<event>
 8    1  0.2433467E-024  0.7363001E+02  0.7818608E-02  0.1348167E+00
         -1   -1    0    0    0  501 -0.00000000000E+00  0.00000000000E+00  0.10644147809E+02  0.10644149002E+02  0.50400000000E-02 0.  1.
          2   -1    0    0  501    0  0.00000000000E+00 -0.00000000000E+00 -0.12733235565E+03  0.12733235568E+03  0.25500000000E-02 0. -1.
         24    2    1    2    0    0  0.35527136788E-14  0.00000000000E+00 -0.11668820784E+03  0.13797650468E+03  0.73630007430E+02 0.  0.
         66    2    3    3    0    0 -0.24166030547E+02 -0.21189493706E+02 -0.91926894158E+02  0.97404032543E+02  0.20000025453E+01 0.  0.
        -13    1    3    3    0    0  0.24166030547E+02  0.21189493706E+02 -0.24761313686E+02  0.40572472138E+02  0.10566000000E+00 0.  1.
         13    1    4    4    0    0 -0.15396093627E+02 -0.13892912081E+02 -0.58442333358E+02  0.62012661589E+02  0.10566000000E+00 0. -1.
        -13    1    4    4    0    0 -0.56450718367E+01 -0.42674053058E+01 -0.19456887095E+02  0.20704086639E+02  0.10566000000E+00 0.  1.
        -14    1    4    4    0    0 -0.31248650832E+01 -0.30291763189E+01 -0.14027673706E+02  0.14687284315E+02  0.00000000000E+00 0.  1.
<mgrwt>
<rscale>  0 0.73630007E+02</rscale>
<asrwt>0</asrwt>
<pdfrwt beam="1">  1        2 0.19589592E-01 0.73630007E+02</pdfrwt>
<pdfrwt beam="2">  1       -1 0.16375614E-02 0.73630007E+02</pdfrwt>
<totfact> 0.23702046E+05</totfact>
</mgrwt>
</event>
<event>
 8    1  0.2433467E-024  0.7802967E+02  0.7818608E-02  0.1334738E+00
          2   -1    0    0  501    0  0.00000000000E+00  0.00000000000E+00  0.18240524320E+02  0.18240524498E+02  0.25500000000E-02 0. -1.
         -1   -1    0    0    0  501 -0.00000000000E+00 -0.00000000000E+00 -0.83449218035E+02  0.83449218187E+02  0.50400000000E-02 0.  1.
         24    2    1    2    0    0 -0.17763568394E-14 -0.71054273576E-14 -0.65208693715E+02  0.10168974269E+03  0.78029674045E+02 0.  0.
         66    2    3    3    0    0 -0.13593798538E+02 -0.29508021023E+02 -0.45342227586E+01  0.32864476589E+02  0.19999955137E+01 0.  0.
        -13    1    3    3    0    0  0.13593798538E+02  0.29508021023E+02 -0.60674470956E+02  0.68825266097E+02  0.10566000000E+00 0.  1.
         13    1    4    4    0    0 -0.11232409552E+02 -0.25278296910E+02 -0.43712306768E+01  0.28004966357E+02  0.10566000000E+00 0. -1.
        -13    1    4    4    0    0 -0.12623587823E+01 -0.19714792317E+01 -0.10547888899E-01  0.23434067829E+01  0.10566000000E+00 0.  1.
         14    1    4    4    0    0 -0.10990302039E+01 -0.22582448819E+01 -0.15244419288E+00  0.25161034494E+01  0.00000000000E+00 0. -1.
<mgrwt>
<rscale>  0 0.78029674E+02</rscale>
<asrwt>0</asrwt>
<pdfrwt beam="1">  1        2 0.28062346E-02 0.78029674E+02</pdfrwt>
<pdfrwt beam="2">  1       -1 0.12838341E-01 0.78029674E+02</pdfrwt>
<totfact> 0.13092760E+05</totfact>
</mgrwt>
</event>
<event>
 8    1  0.2433467E-024  0.8034165E+02  0.7818608E-02  0.1328085E+00
         -1   -1    0    0    0  501 -0.00000000000E+00  0.00000000000E+00  0.19208090765E+03  0.19208090771E+03  0.50400000000E-02 0.  1.
          2   -1    0    0  501    0  0.00000000000E+00 -0.00000000000E+00 -0.84011219092E+01  0.84011222962E+01  0.25500000000E-02 0. -1.
         24    2    1    2    0    0 -0.35527136788E-14  0.35527136788E-14  0.18367978574E+03  0.20048203001E+03  0.80341649647E+02 0.  0.
         66    2    3    3    0    0  0.28348657424E+02 -0.24101253262E+02  0.54285770070E+02  0.65844222388E+02  0.20000007944E+01 0.  0.
        -13    1    3    3    0    0 -0.28348657424E+02  0.24101253262E+02  0.12939401567E+03  0.13463780762E+03  0.10566000000E+00 0.  1.
         13    1    4    4    0    0  0.59632449707E+01 -0.55907361570E+01  0.12620347055E+02  0.15036653390E+02  0.10566000000E+00 0. -1.
        -13    1    4    4    0    0  0.64110967907E+01 -0.46590379593E+01  0.11843450933E+02  0.14250869827E+02  0.10566000000E+00 0.  1.
         14    1    4    4    0    0  0.15974315662E+02 -0.13851479146E+02  0.29821972082E+02  0.36556699171E+02  0.00000000000E+00 0. -1.
<mgrwt>
<rscale>  0 0.80341650E+02</rscale>
<asrwt>0</asrwt>
<pdfrwt beam="1">  1        2 0.12924804E-02 0.80341650E+02</pdfrwt>
<pdfrwt beam="2">  1       -1 0.29550907E-01 0.80341650E+02</pdfrwt>
<totfact> 0.99726459E+04</totfact>
</mgrwt>
</event>
<event>
 8    1  0.2433467E-024  0.7866585E+02  0.7818608E-02  0.1332881E+00
          2   -1    0    0  501    0  0.00000000000E+00  0.00000000000E+00  0.33766857133E+02  0.33766857230E+02  0.25500000000E-02 0. -1.
         -1   -1    0    0    0  501 -0.00000000000E+00 -0.00000000000E+00 -0.45816497854E+02  0.45816498131E+02  0.50400000000E-02 0.  1.
         24    2    1    2    0    0  0.00000000000E+00  0.00000000000E+00 -0.12049640720E+02  0.79583355361E+02  0.78665854149E+02 0.  0.
         66    2    3    3    0    0  0.20840667526E+02 -0.11281447340E+02  0.25697381159E+02  0.35013709840E+02  0.20000003235E+01 0.  0.
        -13    1    3    3    0    0 -0.20840667526E+02  0.11281447340E+02 -0.37747021879E+02  0.44569645521E+02  0.10566000000E+00 0.  1.
         13    1    4    4    0    0  0.35700977670E+01 -0.18770230358E+01  0.41529594002E+01  0.57902546886E+01  0.10566000000E+00 0. -1.
        -13    1    4    4    0    0  0.13686666808E+02 -0.66345956702E+01  0.16867860520E+02  0.22712960850E+02  0.10566000000E+00 0.  1.
        -14    1    4    4    0    0  0.35839029515E+01 -0.27698286342E+01  0.46765612385E+01  0.65104943012E+01  0.00000000000E+00 0.  1.
<mgrwt>
<rscale>  0 0.78665854E+02</rscale>
<asrwt>0</asrwt>
<pdfrwt beam="1">  1        2 0.51949011E-02 0.78665854E+02</pdfrwt>
<pdfrwt beam="2">  1       -1 0.70486920E-02 0.78665854E+02</pdfrwt>
<totfact> 0.14434636E+05</totfact>
</mgrwt>
</event>
<event>
 8    1  0.2622397E-024  0.7935105E+02  0.7818608E-02  0.1330903E+00
          2   -1    0    0  501    0  0.00000000000E+00  0.00000000000E+00  0.53705708805E+03  0.53705708805E+03  0.25500000000E-02 0. -1.
         -1   -1    0    0    0  501 -0.00000000000E+00 -0.00000000000E+00 -0.29310594055E+01  0.29310637386E+01  0.50400000000E-02 0.  1.
         24    2    1    2    0    0  0.35527136788E-14  0.17763568394E-14  0.53412602864E+03  0.53998815179E+03  0.79351052942E+02 0.  0.
         66    2    3    3    0    0 -0.30624707655E+02 -0.12900373113E+02  0.41442443245E+03  0.41575942870E+03  0.19999996242E+01 0.  0.
        -13    1    3    3    0    0  0.30624707655E+02  0.12900373113E+02  0.11970159619E+03  0.12422872309E+03  0.10566000000E+00 0.  1.
         13    1    4    4    0    0 -0.17281376559E+02 -0.73429304653E+01  0.23102383717E+03  0.23178565337E+03  0.10566000000E+00 0. -1.
        -13    1    4    4    0    0 -0.93802717303E+01 -0.39112544552E+01  0.12127333829E+03  0.12169848460E+03  0.10566000000E+00 0.  1.
        -14    1    4    4    0    0 -0.39630593665E+01 -0.16461881928E+01  0.62127256979E+02  0.62275290725E+02  0.00000000000E+00 0.  1.
<mgrwt>
<rscale>  0 0.79351053E+02</rscale>
<asrwt>0</asrwt>
<pdfrwt beam="1">  1        2 0.82624061E-01 0.79351053E+02</pdfrwt>
<pdfrwt beam="2">  1       -1 0.45093313E-03 0.79351053E+02</pdfrwt>
<totfact> 0.31805067E+05</totfact>
</mgrwt>
</event>
<event>
 8    1  0.2433467E-024  0.7808866E+02  0.7818608E-02  0.1334565E+00
         -1   -1    0    0    0  501 -0.00000000000E+00  0.00000000000E+00  0.50199657600E+01  0.50199682901E+01  0.50400000000E-02 0.  1.
          2   -1    0    0  501    0  0.00000000000E+00 -0.00000000000E+00 -0.30367924305E+03  0.30367924306E+03  0.25500000000E-02 0. -1.
         24    2    1    2    0    0 -0.35527136788E-14  0.88817841970E-15 -0.29865927729E+03  0.30869921135E+03  0.78088662283E+02 0.  0.
         66    2    3    3    0    0 -0.30551562581E+02  0.48093641143E+01 -0.24347058940E+03  0.24543523744E+03  0.19999793950E+01 0.  0.
        -13    1    3    3    0    0  0.30551562581E+02 -0.48093641143E+01 -0.55188687894E+02  0.63263973909E+02  0.10566000000E+00 0.  1.
         13    1    4    4    0    0 -0.23832241095E+02  0.44246533637E+01 -0.18946337570E+03  0.19100768354E+03  0.10566000000E+00 0. -1.
        -13    1    4    4    0    0 -0.32838816334E+01  0.27758095251E+00 -0.24523909345E+02  0.24744579677E+02  0.10566000000E+00 0.  1.
         14    1    4    4    0    0 -0.34354398529E+01  0.10712979807E+00 -0.29483304348E+02  0.29682974228E+02  0.00000000000E+00 0. -1.
<mgrwt>
<rscale>  0 0.78088662E+02</rscale>
<asrwt>0</asrwt>
<pdfrwt beam="1">  1        2 0.46719869E-01 0.78088662E+02</pdfrwt>
<pdfrwt beam="2">  1       -1 0.77230286E-03 0.78088662E+02</pdfrwt>
<totfact> 0.27280910E+05</totfact>
</mgrwt>
</event>
<event>
 8    1  0.2433467E-024  0.7265917E+02  0.7818608E-02  0.1351277E+00
          2   -1    0    0  501    0  0.00000000000E+00  0.00000000000E+00  0.23651999768E+03  0.23651999770E+03  0.25500000000E-02 0. -1.
         -1   -1    0    0    0  501 -0.00000000000E+00 -0.00000000000E+00 -0.55802405503E+01  0.55802428264E+01  0.50400000000E-02 0.  1.
         24    2    1    2    0    0 -0.35527136788E-14  0.00000000000E+00  0.23093975713E+03  0.24210024052E+03  0.72659170356E+02 0.  0.
         66    2    3    3    0    0  0.26931495134E+02  0.24185903350E+02  0.12472501212E+03  0.12988684305E+03  0.19999993445E+01 0.  0.
        -13    1    3    3    0    0 -0.26931495134E+02 -0.24185903350E+02  0.10621474501E+03  0.11221339748E+03  0.10566000000E+00 0.  1.
         13    1    4    4    0    0  0.14797112267E+02  0.13851955496E+02  0.67703907686E+02  0.70672919017E+02  0.10566000000E+00 0. -1.
        -13    1    4    4    0    0  0.49226922161E+01  0.41552514238E+01  0.21419835653E+02  0.22367823686E+02  0.10566000000E+00 0.  1.
         14    1    4    4    0    0  0.72116906508E+01  0.61786964298E+01  0.35601268783E+02  0.36846100344E+02  0.00000000000E+00 0. -1.
<mgrwt>
<rscale>  0 0.72659170E+02</rscale>
<asrwt>0</asrwt>
<pdfrwt beam="1">  1        2 0.36387695E-01 0.72659170E+02</pdfrwt>
<pdfrwt beam="2">  1       -1 0.85849864E-03 0.72659170E+02</pdfrwt>
<totfact> 0.30102503E+05</totfact>
</mgrwt>
</event>
<event>
 8    1  0.2433467E-024  0.7253579E+02  0.7818608E-02  0.1351676E+00
         -1   -1    0    0    0  501 -0.00000000000E+00  0.00000000000E+00  0.13459970950E+02  0.13459971894E+02  0.50400000000E-02 0.  1.
          2   -1    0    0  501    0  0.00000000000E+00 -0.00000000000E+00 -0.97723850276E+02  0.97723850310E+02  0.25500000000E-02 0. -1.
         24    2    1    2    0    0  0.00000000000E+00 -0.71054273576E-14 -0.84263879326E+02  0.11118382220E+03  0.72535790894E+02 0.  0.
         66    2    3    3    0    0  0.17278656807E+02  0.27257996532E+02 -0.67434624323E+02  0.74786221403E+02  0.19999995394E+01 0.  0.
        -13    1    3    3    0    0 -0.17278656807E+02 -0.27257996532E+02 -0.16829255003E+02  0.36397600800E+02  0.10566000000E+00 0.  1.
         13    1    4    4    0    0  0.50085680501E+01  0.79618239391E+01 -0.20499467734E+02  0.22554727571E+02  0.10566000000E+00 0. -1.
        -13    1    4    4    0    0  0.47560562520E+01  0.88437401352E+01 -0.20176969956E+02  0.22537814697E+02  0.10566000000E+00 0.  1.
        -14    1    4    4    0    0  0.75140325052E+01  0.10452432458E+02 -0.26758186633E+02  0.29693679136E+02  0.00000000000E+00 0.  1.
<mgrwt>
<rscale>  0 0.72535791E+02</rscale>
<asrwt>0</asrwt>
<pdfrwt beam="1">  1        2 0.15034438E-01 0.72535791E+02</pdfrwt>
<pdfrwt beam="2">  1       -1 0.20707649E-02 0.72535791E+02</pdfrwt>
<totfact> 0.22860792E+05</totfact>
</mgrwt>
</event>
<event>
 8    1  0.2433467E-024  0.8034021E+02  0.7818608E-02  0.1328089E+00
         -1   -1    0    0    0  501 -0.00000000000E+00  0.00000000000E+00  0.19506594541E+01  0.19506659651E+01  0.50400000000E-02 0.  1.
          2   -1    0    0  501    0  0.00000000000E+00 -0.00000000000E+00 -0.82722525711E+03  0.82722525711E+03  0.25500000000E-02 0. -1.
         24    2    1    2    0    0  0.00000000000E+00  0.00000000000E+00 -0.82527459765E+03  0.82917592308E+03  0.80340213329E+02 0.  0.
         66    2    3    3    0    0  0.32905047679E+02 -0.21870239650E+01 -0.64917058283E+03  0.65001074667E+03  0.19999838349E+01 0.  0.
        -13    1    3    3    0    0 -0.32905047679E+02  0.21870239650E+01 -0.17610401483E+03  0.17916517641E+03  0.10566000000E+00 0.  1.
         13    1    4    4    0    0  0.12943230397E+02 -0.10906014267E+01 -0.26491244171E+03  0.26523071007E+03  0.10566000000E+00 0. -1.
        -13    1    4    4    0    0  0.15544718073E+02 -0.12469963898E+01 -0.30619487300E+03  0.30659175572E+03  0.10566000000E+00 0.  1.
        -14    1    4    4    0    0  0.44170992090E+01  0.15057385152E+00 -0.78063268114E+02  0.78188280878E+02  0.00000000000E+00 0.  1.
<mgrwt>
<rscale>  0 0.80340213E+02</rscale>
<asrwt>0</asrwt>
<pdfrwt beam="1">  1        2 0.12726514E+00 0.80340213E+02</pdfrwt>
<pdfrwt beam="2">  1       -1 0.30010262E-03 0.80340213E+02</pdfrwt>
<totfact> 0.34176266E+05</totfact>
</mgrwt>
</event>
<event>
 8    1  0.2433467E-024  0.7916792E+02  0.7818608E-02  0.1331429E+00
          2   -1    0    0  501    0  0.00000000000E+00  0.00000000000E+00  0.28232702348E+03  0.28232702349E+03  0.25500000000E-02 0. -1.
         -1   -1    0    0    0  501 -0.00000000000E+00 -0.00000000000E+00 -0.55499093498E+01  0.55499116383E+01  0.50400000000E-02 0.  1.
         24    2    1    2    0    0  0.00000000000E+00  0.17763568394E-14  0.27677711413E+03  0.28787693513E+03  0.79167915683E+02 0.  0.
         66    2    3    3    0    0  0.11412401606E+02 -0.13127699127E+02  0.26766989648E+03  0.26824196704E+03  0.20000004913E+01 0.  0.
        -13    1    3    3    0    0 -0.11412401606E+02  0.13127699127E+02  0.91072176520E+01  0.19634968097E+02  0.10566000000E+00 0.  1.
         13    1    4    4    0    0  0.62563287734E+00 -0.53971676514E+00  0.84897372232E+01  0.85305048407E+01  0.10566000000E+00 0. -1.
        -13    1    4    4    0    0  0.43593733983E+00 -0.64687984404E+00  0.14757089356E+02  0.14778069738E+02  0.10566000000E+00 0.  1.
         14    1    4    4    0    0  0.10350831389E+02 -0.11941102518E+02  0.24442306990E+03  0.24493339246E+03  0.00000000000E+00 0. -1.
<mgrwt>
<rscale>  0 0.79167916E+02</rscale>
<asrwt>0</asrwt>
<pdfrwt beam="1">  1        2 0.43434922E-01 0.79167916E+02</pdfrwt>
<pdfrwt beam="2">  1       -1 0.85383248E-03 0.79167916E+02</pdfrwt>
<totfact> 0.25633195E+05</totfact>
</mgrwt>
</event>
<event>
 8    1  0.2433467E-024  0.7963323E+02  0.7818608E-02  0.1330095E+00
          2   -1    0    0  501    0  0.00000000000E+00  0.00000000000E+00  0.10533609283E+04  0.10533609283E+04  0.25500000000E-02 0. -1.
         -1   -1    0    0    0  501 -0.00000000000E+00 -0.00000000000E+00 -0.15050478254E+01  0.15050562641E+01  0.50400000000E-02 0.  1.
         24    2    1    2    0    0  0.00000000000E+00  0.00000000000E+00  0.10518558805E+04  0.10548659846E+04  0.79633234946E+02 0.  0.
         66    2    3    3    0    0 -0.19515335764E+02  0.12033258284E+01  0.98533582046E+03  0.98553182365E+03  0.20000012087E+01 0.  0.
        -13    1    3    3    0    0  0.19515335764E+02 -0.12033258284E+01  0.66520060035E+02  0.69334160946E+02  0.10566000000E+00 0.  1.
         13    1    4    4    0    0 -0.54649063271E+01  0.52183313850E-01  0.25133710986E+03  0.25139654310E+03  0.10566000000E+00 0. -1.
        -13    1    4    4    0    0 -0.61946231473E+01  0.25551563968E+00  0.29162306892E+03  0.29168898528E+03  0.10566000000E+00 0.  1.
        -14    1    4    4    0    0 -0.78558062899E+01  0.89562687486E+00  0.44237564169E+03  0.44244629527E+03  0.00000000000E+00 0.  1.
<mgrwt>
<rscale>  0 0.79633235E+02</rscale>
<asrwt>0</asrwt>
<pdfrwt beam="1">  1        2 0.16205657E+00 0.79633235E+02</pdfrwt>
<pdfrwt beam="2">  1       -1 0.23154498E-03 0.79633235E+02</pdfrwt>
<totfact> 0.35696375E+05</totfact>
</mgrwt>
</event>
<event>
 8    1  0.2433467E-024  0.7733336E+02  0.7818608E-02  0.1336794E+00
          2   -1    0    0  501    0  0.00000000000E+00  0.00000000000E+00  0.64590923702E+02  0.64590923753E+02  0.25500000000E-02 0. -1.
         -1   -1    0    0    0  501 -0.00000000000E+00 -0.00000000000E+00 -0.23147399834E+02  0.23147400382E+02  0.50400000000E-02 0.  1.
         24    2    1    2    0    0  0.00000000000E+00 -0.35527136788E-14  0.41443523868E+02  0.87738324135E+02  0.77333355361E+02 0.  0.
         66    2    3    3    0    0  0.10295930891E+02 -0.31790431545E+02 -0.12778244978E+01  0.33500307016E+02  0.20000010058E+01 0.  0.
        -13    1    3    3    0    0 -0.10295930891E+02  0.31790431545E+02  0.42721348366E+02  0.54238017119E+02  0.10566000000E+00 0.  1.
         13    1    4    4    0    0  0.37242858466E+00 -0.10104403573E+01  0.46658994386E-01  0.10830668787E+01  0.10566000000E+00 0.  1.
        -13    1    4    4    0    0  0.14906987193E+01 -0.44941258801E+01 -0.82436771207E+00  0.48072961484E+01  0.10566000000E+00 0.  1.
         14    1    4    4    0    0  0.84328035872E+01 -0.26285865307E+02 -0.50011578009E+00  0.27609943989E+02  0.00000000000E+00 0. -1.
<mgrwt>
<rscale>  0 0.77333355E+02</rscale>
<asrwt>0</asrwt>
<pdfrwt beam="1">  1        2 0.99370652E-02 0.77333355E+02</pdfrwt>
<pdfrwt beam="2">  1       -1 0.35611385E-02 0.77333355E+02</pdfrwt>
<totfact> 0.17359720E+05</totfact>
</mgrwt>
</event>
<event>
 8    1  0.2433467E-024  0.8032448E+02  0.7818608E-02  0.1328133E+00
         -1   -1    0    0    0  501 -0.00000000000E+00  0.00000000000E+00  0.54964714133E+01  0.54964737240E+01  0.50400000000E-02 0.  1.
          2   -1    0    0  501    0  0.00000000000E+00 -0.00000000000E+00 -0.29346190685E+03  0.29346190686E+03  0.25500000000E-02 0. -1.
         24    2    1    2    0    0  0.00000000000E+00  0.00000000000E+00 -0.28796543544E+03  0.29895838058E+03  0.80324475198E+02 0.  0.
         66    2    3    3    0    0 -0.15225914126E+02 -0.34247443057E+02 -0.19752769846E+03  0.20106194934E+03  0.19999991941E+01 0.  0.
        -13    1    3    3    0    0  0.15225914126E+02  0.34247443057E+02 -0.90437736978E+02  0.97896431246E+02  0.10566000000E+00 0.  1.
         13    1    4    4    0    0 -0.87912836949E+01 -0.21062545699E+02 -0.12167588036E+03  0.12379801503E+03  0.10566000000E+00 0. -1.
        -13    1    4    4    0    0 -0.60849672757E+01 -0.12222747547E+02 -0.71631782049E+02  0.72921504015E+02  0.10566000000E+00 0.  1.
        -14    1    4    4    0    0 -0.34966315572E+00 -0.96214981145E+00 -0.42200360521E+01  0.43424302946E+01  0.00000000000E+00 0.  1.
<mgrwt>
<rscale>  0 0.80324475E+02</rscale>
<asrwt>0</asrwt>
<pdfrwt beam="1">  1        2 0.45147974E-01 0.80324475E+02</pdfrwt>
<pdfrwt beam="2">  1       -1 0.84561139E-03 0.80324475E+02</pdfrwt>
<totfact> 0.25024727E+05</totfact>
</mgrwt>
</event>
<event>
 8    1  0.2433467E-024  0.7980101E+02  0.7818608E-02  0.1329617E+00
          2   -1    0    0  501    0  0.00000000000E+00  0.00000000000E+00  0.43416372036E+03  0.43416372036E+03  0.25500000000E-02 0. -1.
         -1   -1    0    0    0  501 -0.00000000000E+00 -0.00000000000E+00 -0.36669338982E+01  0.36669373618E+01  0.50400000000E-02 0.  1.
         24    2    1    2    0    0  0.00000000000E+00  0.00000000000E+00  0.43049678646E+03  0.43783065773E+03  0.79801013112E+02 0.  0.
         66    2    3    3    0    0  0.16873068843E+02  0.34725877726E+02  0.27009975059E+03  0.27285245518E+03  0.19999981799E+01 0.  0.
        -13    1    3    3    0    0 -0.16873068843E+02 -0.34725877726E+02  0.16039703587E+03  0.16497820255E+03  0.10566000000E+00 0.  1.
         13    1    4    4    0    0  0.59953894636E+01  0.11972731077E+02  0.93447005025E+02  0.94401508973E+02  0.10566000000E+00 0. -1.
        -13    1    4    4    0    0  0.52499140235E+01  0.91779583973E+01  0.74160295990E+02  0.74910327612E+02  0.10566000000E+00 0.  1.
         14    1    4    4    0    0  0.56277653562E+01  0.13575188251E+02  0.10249244958E+03  0.10354061860E+03  0.00000000000E+00 0. -1.
<mgrwt>
<rscale>  0 0.79801013E+02</rscale>
<asrwt>0</asrwt>
<pdfrwt beam="1">  1        2 0.66794381E-01 0.79801013E+02</pdfrwt>
<pdfrwt beam="2">  1       -1 0.56414426E-03 0.79801013E+02</pdfrwt>
<totfact> 0.29253838E+05</totfact>
</mgrwt>
</event>
<event>
 8    1  0.2433467E-024  0.8029670E+02  0.7818608E-02  0.1328212E+00
          2   -1    0    0  501    0  0.00000000000E+00  0.00000000000E+00  0.70519999710E+02  0.70519999756E+02  0.25500000000E-02 0. -1.
         -1   -1    0    0    0  501 -0.00000000000E+00 -0.00000000000E+00 -0.22857203056E+02  0.22857203612E+02  0.50400000000E-02 0.  1.
         24    2    1    2    0    0  0.00000000000E+00  0.00000000000E+00  0.47662796654E+02  0.93377203368E+02  0.80296699334E+02 0.  0.
         66    2    3    3    0    0  0.10343601665E+01  0.33254412291E+02  0.49926258989E+02  0.60029635788E+02  0.19999996035E+01 0.  0.
        -13    1    3    3    0    0 -0.10343601665E+01 -0.33254412291E+02 -0.22634623352E+01  0.33347567580E+02  0.10566000000E+00 0.  1.
         13    1    4    4    0    0  0.46568190307E+00  0.11026225406E+02  0.15892320459E+02  0.19348682641E+02  0.10566000000E+00 0. -1.
        -13    1    4    4    0    0  0.98704218581E+00  0.10703656123E+02  0.16058876810E+02  0.19324626649E+02  0.10566000000E+00 0.  1.
        -14    1    4    4    0    0 -0.41836392242E+00  0.11524530762E+02  0.17975061720E+02  0.21356326498E+02  0.00000000000E+00 0.  1.
<mgrwt>
<rscale>  0 0.80296699E+02</rscale>
<asrwt>0</asrwt>
<pdfrwt beam="1">  1        2 0.10849231E-01 0.80296699E+02</pdfrwt>
<pdfrwt beam="2">  1       -1 0.35164929E-02 0.80296699E+02</pdfrwt>
<totfact> 0.16014474E+05</totfact>
</mgrwt>
</event>
<event>
 8    1  0.2801875E-024  0.7961232E+02  0.7818608E-02  0.1330155E+00
          2   -1    0    0  501    0  0.00000000000E+00  0.00000000000E+00  0.27159879647E+03  0.27159879648E+03  0.25500000000E-02 0. -1.
         -1   -1    0    0    0  501 -0.00000000000E+00 -0.00000000000E+00 -0.58340832849E+01  0.58340854619E+01  0.50400000000E-02 0.  1.
         24    2    1    2    0    0  0.00000000000E+00  0.00000000000E+00  0.26576471318E+03  0.27743288194E+03  0.79612318200E+02 0.  0.
         66    2    3    3    0    0 -0.36603175763E+02  0.11312674856E+02  0.17029666108E+03  0.17456437741E+03  0.19999992560E+01 0.  0.
        -13    1    3    3    0    0  0.36603175763E+02 -0.11312674856E+02  0.95468052100E+02  0.10286850453E+03  0.10566000000E+00 0.  1.
         13    1    4    4    0    0 -0.18339368938E+02  0.54047215054E+01  0.85702735079E+02  0.87809529276E+02  0.10566000000E+00 0. -1.
        -13    1    4    4    0    0 -0.16042061505E+02  0.50404268154E+01  0.72059617731E+02  0.73995630354E+02  0.10566000000E+00 0.  1.
        -14    1    4    4    0    0 -0.22217453198E+01  0.86752653490E+00  0.12534308273E+02  0.12759217783E+02  0.00000000000E+00 0.  1.
<mgrwt>
<rscale>  0 0.79612318E+02</rscale>
<asrwt>0</asrwt>
<pdfrwt beam="1">  1        2 0.41784436E-01 0.79612318E+02</pdfrwt>
<pdfrwt beam="2">  1       -1 0.89755132E-03 0.79612318E+02</pdfrwt>
<totfact> 0.24907944E+05</totfact>
</mgrwt>
</event>
<event>
 8    1  0.2433467E-024  0.7987393E+02  0.7818608E-02  0.1329410E+00
         -1   -1    0    0    0  501 -0.00000000000E+00  0.00000000000E+00  0.33691213702E+02  0.33691214079E+02  0.50400000000E-02 0.  1.
          2   -1    0    0  501    0  0.00000000000E+00 -0.00000000000E+00 -0.47340569326E+02  0.47340569395E+02  0.25500000000E-02 0. -1.
         24    2    1    2    0    0 -0.35527136788E-14 -0.14210854715E-13 -0.13649355624E+02  0.81031783474E+02  0.79873932068E+02 0.  0.
         66    2    3    3    0    0  0.14379906774E+02  0.36232239667E+02 -0.15520481136E+02  0.42005264479E+02  0.19999997964E+01 0.  0.
        -13    1    3    3    0    0 -0.14379906774E+02 -0.36232239667E+02  0.18711255120E+01  0.39026518995E+02  0.10566000000E+00 0.  1.
         13    1    4    4    0    0  0.54589237833E+01  0.12664678880E+02 -0.45720263415E+01  0.14529574285E+02  0.10566000000E+00 0. -1.
        -13    1    4    4    0    0  0.67625659791E+01  0.17726500183E+02 -0.82163999029E+01  0.20675625716E+02  0.10566000000E+00 0.  1.
         14    1    4    4    0    0  0.21584170119E+01  0.58410606044E+01 -0.27320548912E+01  0.68000644784E+01  0.00000000000E+00 0. -1.
<mgrwt>
<rscale>  0 0.79873932E+02</rscale>
<asrwt>0</asrwt>
<pdfrwt beam="1">  1        2 0.72831645E-02 0.79873932E+02</pdfrwt>
<pdfrwt beam="2">  1       -1 0.51832637E-02 0.79873932E+02</pdfrwt>
<totfact> 0.14831744E+05</totfact>
</mgrwt>
</event>
<event>
 8    1  0.2433467E-024  0.7691531E+02  0.7818608E-02  0.1338040E+00
          2   -1    0    0  501    0  0.00000000000E+00  0.00000000000E+00  0.19632229729E+03  0.19632229731E+03  0.25500000000E-02 0. -1.
         -1   -1    0    0    0  501 -0.00000000000E+00 -0.00000000000E+00 -0.75334847532E+01  0.75334864391E+01  0.50400000000E-02 0.  1.
         24    2    1    2    0    0  0.00000000000E+00  0.00000000000E+00  0.18878881254E+03  0.20385578375E+03  0.76915309449E+02 0.  0.
         66    2    3    3    0    0 -0.17570721555E+02 -0.32130782029E+02  0.12535177540E+03  0.13060698680E+03  0.19999985862E+01 0.  0.
        -13    1    3    3    0    0  0.17570721555E+02  0.32130782029E+02  0.63437037137E+02  0.73248796950E+02  0.10566000000E+00 0.  1.
         13    1    4    4    0    0 -0.15539502211E+02 -0.28127216313E+02  0.10970493441E+03  0.11431447950E+03  0.10566000000E+00 0. -1.
        -13    1    4    4    0    0 -0.11880980917E+01 -0.17415654083E+01  0.79903988542E+01  0.82645184391E+01  0.10566000000E+00 0.  1.
         14    1    4    4    0    0 -0.84312125291E+00 -0.22620003084E+01  0.76564421404E+01  0.80279888573E+01  0.00000000000E+00 0. -1.
<mgrwt>
<rscale>  0 0.76915309E+02</rscale>
<asrwt>0</asrwt>
<pdfrwt beam="1">  1        2 0.30203436E-01 0.76915309E+02</pdfrwt>
<pdfrwt beam="2">  1       -1 0.11589976E-02 0.76915309E+02</pdfrwt>
<totfact> 0.24308992E+05</totfact>
</mgrwt>
</event>
<event>
 8    1  0.2433467E-024  0.7898929E+02  0.7818608E-02  0.1331944E+00
         -1   -1    0    0    0  501 -0.00000000000E+00  0.00000000000E+00  0.65081779077E+02  0.65081779272E+02  0.50400000000E-02 0.  1.
          2   -1    0    0  501    0  0.00000000000E+00 -0.00000000000E+00 -0.23967184130E+02  0.23967184266E+02  0.25500000000E-02 0. -1.
         24    2    1    2    0    0 -0.35527136788E-14  0.44408920985E-15  0.41114594946E+02  0.89048963538E+02  0.78989290347E+02 0.  0.
         66    2    3    3    0    0 -0.24021960638E+02  0.36743444422E+01 -0.14491324331E+02  0.28364658955E+02  0.19999992091E+01 0.  0.
        -13    1    3    3    0    0  0.24021960638E+02 -0.36743444422E+01  0.55605919277E+02  0.60684304582E+02  0.10566000000E+00 0.  1.
         13    1    4    4    0    0 -0.53530033713E+01  0.74563136489E+00 -0.41470680273E+01  0.68132186581E+01  0.10566000000E+00 0. -1.
        -13    1    4    4    0    0 -0.10925666357E+02  0.19936440759E+01 -0.59981680464E+01  0.12622756671E+02  0.10566000000E+00 0.  1.
         14    1    4    4    0    0 -0.77432909101E+01  0.93506900139E+00 -0.43460882568E+01  0.89286836259E+01  0.00000000000E+00 0. -1.
<mgrwt>
<rscale>  0 0.78989290E+02</rscale>
<asrwt>0</asrwt>
<pdfrwt beam="1">  1        2 0.36872591E-02 0.78989290E+02</pdfrwt>
<pdfrwt beam="2">  1       -1 0.10012581E-01 0.78989290E+02</pdfrwt>
<totfact> 0.13345175E+05</totfact>
</mgrwt>
</event>
<event>
 8    1  0.2433467E-024  0.8010019E+02  0.7818608E-02  0.1328767E+00
         -1   -1    0    0    0  501 -0.00000000000E+00  0.00000000000E+00  0.16247448351E+01  0.16247526522E+01  0.50400000000E-02 0.  1.
          2   -1    0    0  501    0  0.00000000000E+00 -0.00000000000E+00 -0.98723587327E+03  0.98723587327E+03  0.25500000000E-02 0. -1.
         24    2    1    2    0    0  0.00000000000E+00  0.35527136788E-14 -0.98561112844E+03  0.98886062593E+03  0.80100193578E+02 0.  0.
         66    2    3    3    0    0 -0.12046740312E+02 -0.23705089114E+02 -0.86243032436E+03  0.86284246510E+03  0.19999992162E+01 0.  0.
        -13    1    3    3    0    0  0.12046740312E+02  0.23705089114E+02 -0.12318080407E+03  0.12601816083E+03  0.10566000000E+00 0.  1.
         13    1    4    4    0    0 -0.45555169244E+01 -0.10506315732E+02 -0.36240664211E+03  0.36258753538E+03  0.10566000000E+00 0. -1.
        -13    1    4    4    0    0 -0.62549469515E+01 -0.11159342837E+02 -0.40915330863E+03  0.40935326604E+03  0.10566000000E+00 0.  1.
        -14    1    4    4    0    0 -0.12362764366E+01 -0.20394305448E+01 -0.90870373627E+02  0.90901663678E+02  0.00000000000E+00 0.  1.
<mgrwt>
<rscale>  0 0.80100194E+02</rscale>
<asrwt>0</asrwt>
<pdfrwt beam="1">  1        2 0.15188196E+00 0.80100194E+02</pdfrwt>
<pdfrwt beam="2">  1       -1 0.24996213E-03 0.80100194E+02</pdfrwt>
<totfact> 0.35095956E+05</totfact>
</mgrwt>
</event>
<event>
 8    1  0.2433467E-024  0.7897709E+02  0.7818608E-02  0.1331980E+00
         -1   -1    0    0    0  501 -0.00000000000E+00  0.00000000000E+00  0.28700664981E+03  0.28700664986E+03  0.50400000000E-02 0.  1.
          2   -1    0    0  501    0  0.00000000000E+00 -0.00000000000E+00 -0.54331327960E+01  0.54331333944E+01  0.25500000000E-02 0. -1.
         24    2    1    2    0    0  0.00000000000E+00  0.00000000000E+00  0.28157351702E+03  0.29243978325E+03  0.78977093786E+02 0.  0.
         66    2    3    3    0    0  0.90696118035E+01 -0.38240565683E+02  0.12765932126E+03  0.13358705416E+03  0.20000027672E+01 0.  0.
        -13    1    3    3    0    0 -0.90696118035E+01  0.38240565683E+02  0.15391419575E+03  0.15885272909E+03  0.10566000000E+00 0.  1.
         13    1    4    4    0    0  0.15416296841E+01 -0.45349338336E+01  0.14908416647E+02  0.15659319842E+02  0.10566000000E+00 0. -1.
        -13    1    4    4    0    0  0.10982912759E+01 -0.35297864699E+01  0.12733598241E+02  0.13259763363E+02  0.10566000000E+00 0.  1.
         14    1    4    4    0    0  0.64296908435E+01 -0.30175845380E+02  0.10001730638E+03  0.10466797095E+03  0.00000000000E+00 0. -1.
<mgrwt>
<rscale>  0 0.78977094E+02</rscale>
<asrwt>0</asrwt>
<pdfrwt beam="1">  1        2 0.83586659E-03 0.78977094E+02</pdfrwt>
<pdfrwt beam="2">  1       -1 0.44154872E-01 0.78977094E+02</pdfrwt>
<totfact> 0.90919344E+04</totfact>
</mgrwt>
</event>
<event>
 8    1  0.2433467E-024  0.7969542E+02  0.7818608E-02  0.1329918E+00
          2   -1    0    0  501    0  0.00000000000E+00  0.00000000000E+00  0.38508017831E+03  0.38508017832E+03  0.25500000000E-02 0. -1.
         -1   -1    0    0    0  501 -0.00000000000E+00 -0.00000000000E+00 -0.41233996815E+01  0.41234027617E+01  0.50400000000E-02 0.  1.
         24    2    1    2    0    0 -0.35527136788E-14  0.00000000000E+00  0.38095677863E+03  0.38920358108E+03  0.79695422345E+02 0.  0.
         66    2    3    3    0    0 -0.20758025437E+02 -0.33967677402E+02  0.19580407382E+03  0.19981975392E+03  0.20000009257E+01 0.  0.
        -13    1    3    3    0    0  0.20758025437E+02  0.33967677402E+02  0.18515270481E+03  0.18938382716E+03  0.10566000000E+00 0.  1.
         13    1    4    4    0    0 -0.10696721198E+02 -0.18317054423E+02  0.10648659474E+03  0.10857872881E+03  0.10566000000E+00 0. -1.
        -13    1    4    4    0    0 -0.78232588321E+01 -0.11846198950E+02  0.70107912165E+02  0.71530876693E+02  0.10566000000E+00 0.  1.
         14    1    4    4    0    0 -0.22380454076E+01 -0.38044240292E+01  0.19209566922E+02  0.19710148420E+02  0.00000000000E+00 0. -1.
<mgrwt>
<rscale>  0 0.79695422E+02</rscale>
<asrwt>0</asrwt>
<pdfrwt beam="1">  1        2 0.59243107E-01 0.79695422E+02</pdfrwt>
<pdfrwt beam="2">  1       -1 0.63436940E-03 0.79695422E+02</pdfrwt>
<totfact> 0.28158114E+05</totfact>
</mgrwt>
</event>
<event>
 8    1  0.2433467E-024  0.8116544E+02  0.7818608E-02  0.1325776E+00
         -1   -1    0    0    0  501 -0.00000000000E+00  0.00000000000E+00  0.98491619410E+01  0.98491632305E+01  0.50400000000E-02 0.  1.
          2   -1    0    0  501    0  0.00000000000E+00 -0.00000000000E+00 -0.16721797821E+03  0.16721797823E+03  0.25500000000E-02 0. -1.
         24    2    1    2    0    0  0.00000000000E+00  0.35527136788E-14 -0.15736881627E+03  0.17706714146E+03  0.81165437540E+02 0.  0.
         66    2    3    3    0    0 -0.25446081599E+02 -0.25491072912E+02 -0.11940827091E+03  0.12473825809E+03  0.20000005939E+01 0.  0.
        -13    1    3    3    0    0  0.25446081599E+02  0.25491072912E+02 -0.37960545360E+02  0.52328883372E+02  0.10566000000E+00 0.  1.
         13    1    4    4    0    0 -0.12706418333E+01 -0.11666222275E+01 -0.44913367913E+01  0.48123599511E+01  0.10566000000E+00 0. -1.
        -13    1    4    4    0    0 -0.15701714366E+02 -0.15518192697E+02 -0.73918011381E+02  0.77144291488E+02  0.10566000000E+00 0.  1.
         14    1    4    4    0    0 -0.84737253990E+01 -0.88062579875E+01 -0.40998922740E+02  0.42781606652E+02  0.00000000000E+00 0. -1.
<mgrwt>
<rscale>  0 0.81165438E+02</rscale>
<asrwt>0</asrwt>
<pdfrwt beam="1">  1        2 0.25725841E-01 0.81165438E+02</pdfrwt>
<pdfrwt beam="2">  1       -1 0.15152559E-02 0.81165438E+02</pdfrwt>
<totfact> 0.19974689E+05</totfact>
</mgrwt>
</event>
<event>
 8    1  0.2433467E-024  0.8014765E+02  0.7818608E-02  0.1328633E+00
          2   -1    0    0  501    0  0.00000000000E+00  0.00000000000E+00  0.24904431969E+03  0.24904431970E+03  0.25500000000E-02 0. -1.
         -1   -1    0    0    0  501 -0.00000000000E+00 -0.00000000000E+00 -0.64482946497E+01  0.64482966193E+01  0.50400000000E-02 0.  1.
         24    2    1    2    0    0  0.00000000000E+00  0.17763568394E-14  0.24259602504E+03  0.25549261632E+03  0.80147648935E+02 0.  0.
         66    2    3    3    0    0 -0.17903333556E+02 -0.11202396830E+02  0.22984591635E+03  0.23082280719E+03  0.20000015646E+01 0.  0.
        -13    1    3    3    0    0  0.17903333556E+02  0.11202396830E+02  0.12750108684E+02  0.24669809132E+02  0.10566000000E+00 0.  1.
         13    1    4    4    0    0 -0.97439581717E+01 -0.64347992391E+01  0.12785908470E+03  0.12839123049E+03  0.10566000000E+00 0. -1.
        -13    1    4    4    0    0 -0.72128767192E+01 -0.44697361804E+01  0.87393827686E+02  0.87804876936E+02  0.10566000000E+00 0.  1.
         14    1    4    4    0    0 -0.94649866468E+00 -0.29786141025E+00  0.14593003971E+02  0.14626699765E+02  0.00000000000E+00 0. -1.
<mgrwt>
<rscale>  0 0.80147649E+02</rscale>
<asrwt>0</asrwt>
<pdfrwt beam="1">  1        2 0.38314500E-01 0.80147649E+02</pdfrwt>
<pdfrwt beam="2">  1       -1 0.99204578E-03 0.80147649E+02</pdfrwt>
<totfact> 0.23720365E+05</totfact>
</mgrwt>
</event>
<event>
 8    1  0.2433467E-024  0.8202685E+02  0.7818608E-02  0.1323396E+00
         -1   -1    0    0    0  501 -0.00000000000E+00  0.00000000000E+00  0.19657626187E+03  0.19657626193E+03  0.50400000000E-02 0.  1.
          2   -1    0    0  501    0  0.00000000000E+00 -0.00000000000E+00 -0.85569895563E+01  0.85569899362E+01  0.25500000000E-02 0. -1.
         24    2    1    2    0    0  0.00000000000E+00  0.00000000000E+00  0.18801927231E+03  0.20513325187E+03  0.82026850858E+02 0.  0.
         66    2    3    3    0    0  0.12665308704E+02  0.34211547417E+02  0.47329319238E+02  0.59790504953E+02  0.20000004415E+01 0.  0.
        -13    1    3    3    0    0 -0.12665308704E+02 -0.34211547417E+02  0.14068995307E+03  0.14534274692E+03  0.10566000000E+00 0.  1.
         13    1    4    4    0    0  0.52466661936E+01  0.12989360952E+02  0.17829899656E+02  0.22675261627E+02  0.10566000000E+00 0. -1.
        -13    1    4    4    0    0  0.34462788257E+01  0.10469758403E+02  0.13381014657E+02  0.17336533565E+02  0.10566000000E+00 0.  1.
         14    1    4    4    0    0  0.39723636846E+01  0.10752428062E+02  0.16118404925E+02  0.19778709761E+02  0.00000000000E+00 0. -1.
<mgrwt>
<rscale>  0 0.82026851E+02</rscale>
<asrwt>0</asrwt>
<pdfrwt beam="1">  1        2 0.13164600E-02 0.82026851E+02</pdfrwt>
<pdfrwt beam="2">  1       -1 0.30242501E-01 0.82026851E+02</pdfrwt>
<totfact> 0.93944878E+04</totfact>
</mgrwt>
</event>
<event>
 8    1  0.2433467E-024  0.7955128E+02  0.7818608E-02  0.1330330E+00
         -1   -1    0    0    0  501 -0.00000000000E+00  0.00000000000E+00  0.10801191623E+03  0.10801191635E+03  0.50400000000E-02 0.  1.
          2   -1    0    0  501    0  0.00000000000E+00 -0.00000000000E+00 -0.14647473641E+02  0.14647473863E+02  0.25500000000E-02 0. -1.
         24    2    1    2    0    0 -0.71054273576E-14  0.71054273576E-14  0.93364442592E+02  0.12265939021E+03  0.79551284510E+02 0.  0.
         66    2    3    3    0    0 -0.30066435339E+02  0.23121375105E+02  0.28369743418E+02  0.47407077256E+02  0.20000279146E+01 0.  0.
        -13    1    3    3    0    0  0.30066435339E+02 -0.23121375105E+02  0.64994699174E+02  0.75252312958E+02  0.10566000000E+00 0.  1.
         13    1    4    4    0    0 -0.10844105961E+02  0.89322205353E+01  0.10164874982E+02  0.17341137368E+02  0.10566000000E+00 0. -1.
        -13    1    4    4    0    0 -0.72383028349E+00  0.70851354472E+00  0.10397514357E+01  0.14553930074E+01  0.10566000000E+00 0.  1.
        -14    1    4    4    0    0 -0.18498499095E+02  0.13480641025E+02  0.17165117000E+02  0.28610546881E+02  0.00000000000E+00 0.  1.
<mgrwt>
<rscale>  0 0.79551285E+02</rscale>
<asrwt>0</asrwt>
<pdfrwt beam="1">  1        2 0.22534575E-02 0.79551285E+02</pdfrwt>
<pdfrwt beam="2">  1       -1 0.16617218E-01 0.79551285E+02</pdfrwt>
<totfact> 0.11821494E+05</totfact>
</mgrwt>
</event>
<event>
 8    1  0.2433467E-024  0.8158655E+02  0.7818608E-02  0.1324608E+00
          2   -1    0    0  501    0  0.00000000000E+00  0.00000000000E+00  0.20492152115E+03  0.20492152116E+03  0.25500000000E-02 0. -1.
         -1   -1    0    0    0  501 -0.00000000000E+00 -0.00000000000E+00 -0.81206257851E+01  0.81206273491E+01  0.50400000000E-02 0.  1.
         24    2    1    2    0    0  0.00000000000E+00 -0.17763568394E-14  0.19680089536E+03  0.21304214851E+03  0.81586546852E+02 0.  0.
         66    2    3    3    0    0  0.28622445075E+01  0.14879908533E+02  0.19729004698E+03  0.19788119356E+03  0.20000016409E+01 0.  0.
        -13    1    3    3    0    0 -0.28622445075E+01 -0.14879908533E+02 -0.48915162060E+00  0.15160954947E+02  0.10566000000E+00 0.  1.
         13    1    4    4    0    0 -0.26518778350E-01  0.25886986996E+01  0.36455672122E+02  0.36547629993E+02  0.10566000000E+00 0.  1.
        -13    1    4    4    0    0  0.10075209283E+01  0.63827376392E+01  0.86397026984E+02  0.86638397226E+02  0.10566000000E+00 0. -1.
        -14    1    4    4    0    0  0.18812423575E+01  0.59084721943E+01  0.74437347875E+02  0.74695166344E+02  0.00000000000E+00 0.  1.
<mgrwt>
<rscale>  0 0.81586547E+02</rscale>
<asrwt>0</asrwt>
<pdfrwt beam="1">  1        2 0.31526389E-01 0.81586547E+02</pdfrwt>
<pdfrwt beam="2">  1       -1 0.12493271E-02 0.81586547E+02</pdfrwt>
<totfact> 0.21121970E+05</totfact>
</mgrwt>
</event>
<event>
 8    1  0.2433467E-024  0.7805371E+02  0.7818608E-02  0.1334667E+00
          2   -1    0    0  501    0  0.00000000000E+00  0.00000000000E+00  0.50210441621E+01  0.50210448097E+01  0.25500000000E-02 0. -1.
         -1   -1    0    0    0  501 -0.00000000000E+00 -0.00000000000E+00 -0.30334237578E+03  0.30334237582E+03  0.50400000000E-02 0.  1.
         24    2    1    2    0    0 -0.17763568394E-14 -0.71054273576E-14 -0.29832133162E+03  0.30836342063E+03  0.78053714103E+02 0.  0.
         66    2    3    3    0    0 -0.12672435887E+02 -0.34667699164E+02 -0.19901945165E+03  0.20242327467E+03  0.19999993487E+01 0.  0.
        -13    1    3    3    0    0  0.12672435887E+02  0.34667699164E+02 -0.99301879964E+02  0.10594014596E+03  0.10566000000E+00 0.  1.
         13    1    4    4    0    0 -0.56622916439E+01 -0.16342735393E+02 -0.92486167592E+02  0.94089579161E+02  0.10566000000E+00 0. -1.
        -13    1    4    4    0    0 -0.32783495277E+01 -0.10444763503E+02 -0.59993314610E+02  0.60984011201E+02  0.10566000000E+00 0.  1.
         14    1    4    4    0    0 -0.37317947157E+01 -0.78802002677E+01 -0.46539969450E+02  0.47349684312E+02  0.00000000000E+00 0. -1.
<mgrwt>
<rscale>  0 0.78053714E+02</rscale>
<asrwt>0</asrwt>
<pdfrwt beam="1">  1        2 0.77246862E-03 0.78053714E+02</pdfrwt>
<pdfrwt beam="2">  1       -1 0.46668044E-01 0.78053714E+02</pdfrwt>
<totfact> 0.91649002E+04</totfact>
</mgrwt>
</event>
<event>
 8    1  0.2433467E-024  0.7844106E+02  0.7818608E-02  0.1333535E+00
         -1   -1    0    0    0  501 -0.00000000000E+00  0.00000000000E+00  0.25798257529E+02  0.25798258021E+02  0.50400000000E-02 0.  1.
          2   -1    0    0  501    0  0.00000000000E+00 -0.00000000000E+00 -0.59626113901E+02  0.59626113956E+02  0.25500000000E-02 0. -1.
         24    2    1    2    0    0  0.00000000000E+00 -0.35527136788E-14 -0.33827856372E+02  0.85424371977E+02  0.78441057240E+02 0.  0.
         66    2    3    3    0    0  0.50723595100E+01 -0.30651761923E+02 -0.42947508009E+02  0.53044771145E+02  0.19999904280E+01 0.  0.
        -13    1    3    3    0    0 -0.50723595100E+01  0.30651761923E+02  0.91196516367E+01  0.32379600831E+02  0.10566000000E+00 0.  1.
         13    1    4    4    0    0  0.36528023194E+01 -0.22095308599E+02 -0.31184300484E+02  0.38392934084E+02  0.10566000000E+00 0. -1.
        -13    1    4    4    0    0  0.14803468682E+01 -0.81722408489E+01 -0.10890739615E+02  0.13696580622E+02  0.10566000000E+00 0.  1.
         14    1    4    4    0    0 -0.60789677664E-01 -0.38421247541E+00 -0.87246790974E+00  0.95525643923E+00  0.00000000000E+00 0. -1.
<mgrwt>
<rscale>  0 0.78441057E+02</rscale>
<asrwt>0</asrwt>
<pdfrwt beam="1">  1        2 0.91732483E-02 0.78441057E+02</pdfrwt>
<pdfrwt beam="2">  1       -1 0.39689628E-02 0.78441057E+02</pdfrwt>
<totfact> 0.16397688E+05</totfact>
</mgrwt>
</event>
<event>
 8    1  0.2433467E-024  0.7972070E+02  0.7818608E-02  0.1329846E+00
          2   -1    0    0  501    0  0.00000000000E+00  0.00000000000E+00  0.19518316996E+03  0.19518316998E+03  0.25500000000E-02 0. -1.
         -1   -1    0    0    0  501 -0.00000000000E+00 -0.00000000000E+00 -0.81402882576E+01  0.81402898178E+01  0.50400000000E-02 0.  1.
         24    2    1    2    0    0  0.00000000000E+00  0.00000000000E+00  0.18704288170E+03  0.20332345980E+03  0.79720698111E+02 0.  0.
         66    2    3    3    0    0 -0.30693424014E+02  0.13129235334E+02  0.14901230533E+03  0.15271912202E+03  0.19999983508E+01 0.  0.
        -13    1    3    3    0    0  0.30693424014E+02 -0.13129235334E+02  0.38030576377E+02  0.50604337776E+02  0.10566000000E+00 0.  1.
         13    1    4    4    0    0 -0.25450713847E+01  0.90026459627E+00  0.11440555078E+02  0.11755225613E+02  0.10566000000E+00 0. -1.
        -13    1    4    4    0    0 -0.29709790701E+01  0.79424654639E+00  0.12802066927E+02  0.13166686214E+02  0.10566000000E+00 0.  1.
        -14    1    4    4    0    0 -0.25177373560E+02  0.11434724191E+02  0.12476968332E+03  0.12779721019E+03  0.00000000000E+00 0.  1.
<mgrwt>
<rscale>  0 0.79720698E+02</rscale>
<asrwt>0</asrwt>
<pdfrwt beam="1">  1        2 0.30028179E-01 0.79720698E+02</pdfrwt>
<pdfrwt beam="2">  1       -1 0.12523522E-02 0.79720698E+02</pdfrwt>
<totfact> 0.22075874E+05</totfact>
</mgrwt>
</event>
<event>
 8    1  0.2433467E-024  0.8341511E+02  0.7818608E-02  0.1319630E+00
          2   -1    0    0  501    0  0.00000000000E+00  0.00000000000E+00  0.95329366794E+02  0.95329366828E+02  0.25500000000E-02 0. -1.
         -1   -1    0    0    0  501 -0.00000000000E+00 -0.00000000000E+00 -0.18247472419E+02  0.18247473115E+02  0.50400000000E-02 0.  1.
         24    2    1    2    0    0  0.35527136788E-14  0.00000000000E+00  0.77081894374E+02  0.11357683994E+03  0.83415107331E+02 0.  0.
         66    2    3    3    0    0 -0.31682084834E+02 -0.20159920022E+02  0.13928562597E+02  0.40102141214E+02  0.19999998026E+01 0.  0.
        -13    1    3    3    0    0  0.31682084834E+02  0.20159920022E+02  0.63153331778E+02  0.73474698729E+02  0.10566000000E+00 0.  1.
         13    1    4    4    0    0 -0.10263990017E+02 -0.58034533518E+01  0.45215994875E+01  0.12628760344E+02  0.10566000000E+00 0. -1.
        -13    1    4    4    0    0 -0.17113035577E+01 -0.84262417392E+00  0.86688374190E+00  0.20979101083E+01  0.10566000000E+00 0.  1.
         14    1    4    4    0    0 -0.19706791259E+02 -0.13513842497E+02  0.85400793675E+01  0.25375470761E+02  0.00000000000E+00 0. -1.
<mgrwt>
<rscale>  0 0.83415107E+02</rscale>
<asrwt>0</asrwt>
<pdfrwt beam="1">  1        2 0.14666057E-01 0.83415107E+02</pdfrwt>
<pdfrwt beam="2">  1       -1 0.28073035E-02 0.83415107E+02</pdfrwt>
<totfact> 0.15632459E+05</totfact>
</mgrwt>
</event>
<event>
 8    1  0.2433467E-024  0.7925460E+02  0.7818608E-02  0.1331180E+00
         -1   -1    0    0    0  501 -0.00000000000E+00  0.00000000000E+00  0.22214818230E+02  0.22214818802E+02  0.50400000000E-02 0.  1.
          2   -1    0    0  501    0  0.00000000000E+00 -0.00000000000E+00 -0.70688086144E+02  0.70688086190E+02  0.25500000000E-02 0. -1.
         24    2    1    2    0    0  0.22204460493E-15  0.00000000000E+00 -0.48473267914E+02  0.92902904992E+02  0.79254602728E+02 0.  0.
         66    2    3    3    0    0 -0.19528210378E+01  0.38391511798E+02 -0.13094696663E+02  0.40659473290E+02  0.19999998475E+01 0.  0.
        -13    1    3    3    0    0  0.19528210378E+01 -0.38391511798E+02 -0.35378571251E+02  0.52243431702E+02  0.10566000000E+00 0.  1.
         13    1    4    4    0    0 -0.91212849344E+00  0.20690621673E+02 -0.67436431088E+01  0.21781223336E+02  0.10566000000E+00 0. -1.
        -13    1    4    4    0    0 -0.10707728010E+00  0.19965715334E+00 -0.12126811077E+00  0.27784620401E+00  0.10566000000E+00 0.  1.
        -14    1    4    4    0    0 -0.93361526423E+00  0.17501232971E+02 -0.62297854435E+01  0.18600403750E+02  0.00000000000E+00 0.  1.
<mgrwt>
<rscale>  0 0.79254603E+02</rscale>
<asrwt>0</asrwt>
<pdfrwt beam="1">  1        2 0.10875090E-01 0.79254603E+02</pdfrwt>
<pdfrwt beam="2">  1       -1 0.34176644E-02 0.79254603E+02</pdfrwt>
<totfact> 0.16600174E+05</totfact>
</mgrwt>
</event>
<event>
 8    1  0.2433467E-024  0.8067899E+02  0.7818608E-02  0.1327136E+00
          2   -1    0    0  501    0  0.00000000000E+00  0.00000000000E+00  0.16550069000E+03  0.16550069002E+03  0.25500000000E-02 0. -1.
         -1   -1    0    0    0  501 -0.00000000000E+00 -0.00000000000E+00 -0.98324347956E+01  0.98324360873E+01  0.50400000000E-02 0.  1.
         24    2    1    2    0    0  0.88817841970E-15  0.00000000000E+00  0.15566825521E+03  0.17533312611E+03  0.80678990030E+02 0.  0.
         66    2    3    3    0    0 -0.57409288098E+01  0.16647641726E+02  0.15669413960E+03  0.15769323265E+03  0.19999994979E+01 0.  0.
        -13    1    3    3    0    0  0.57409288098E+01 -0.16647641726E+02 -0.10258843941E+01  0.17639893465E+02  0.10566000000E+00 0.  1.
         13    1    4    4    0    0 -0.22086967586E+01  0.43554574497E+01  0.44522624513E+02  0.44789771249E+02  0.10566000000E+00 0. -1.
        -13    1    4    4    0    0 -0.62658365006E+00  0.23823627534E+01  0.18217515301E+02  0.18383614638E+02  0.10566000000E+00 0.  1.
        -14    1    4    4    0    0 -0.29056484011E+01  0.99098215225E+01  0.93953999787E+02  0.94519846759E+02  0.00000000000E+00 0.  1.
<mgrwt>
<rscale>  0 0.80678990E+02</rscale>
<asrwt>0</asrwt>
<pdfrwt beam="1">  1        2 0.25461644E-01 0.80678990E+02</pdfrwt>
<pdfrwt beam="2">  1       -1 0.15126824E-02 0.80678990E+02</pdfrwt>
<totfact> 0.20226092E+05</totfact>
</mgrwt>
</event>
<event>
 8    1  0.2433467E-024  0.7968319E+02  0.7818608E-02  0.1329953E+00
          2   -1    0    0  501    0  0.00000000000E+00  0.00000000000E+00  0.22516052055E+03  0.22516052056E+03  0.25500000000E-02 0. -1.
         -1   -1    0    0    0  501 -0.00000000000E+00 -0.00000000000E+00 -0.70498705474E+01  0.70498723489E+01  0.50400000000E-02 0.  1.
         24    2    1    2    0    0 -0.71054273576E-14  0.17763568394E-14  0.21811065000E+03  0.23221039291E+03  0.79683191027E+02 0.  0.
         66    2    3    3    0    0  0.32482230259E+02 -0.13100243244E+02  0.16431149197E+03  0.16801481499E+03  0.20000018462E+01 0.  0.
        -13    1    3    3    0    0 -0.32482230259E+02  0.13100243244E+02  0.53799158027E+02  0.64195577917E+02  0.10566000000E+00 0.  1.
         13    1    4    4    0    0  0.63998696803E+01 -0.28065111748E+01  0.30171976905E+02  0.30970860357E+02  0.10566000000E+00 0. -1.
        -13    1    4    4    0    0  0.71180969467E+01 -0.32713557126E+01  0.38904454290E+02  0.39685473413E+02  0.10566000000E+00 0.  1.
        -14    1    4    4    0    0  0.18964263632E+02 -0.70223763563E+01  0.95235060777E+02  0.97358481222E+02  0.00000000000E+00 0.  1.
<mgrwt>
<rscale>  0 0.79683191E+02</rscale>
<asrwt>0</asrwt>
<pdfrwt beam="1">  1        2 0.34640077E-01 0.79683191E+02</pdfrwt>
<pdfrwt beam="2">  1       -1 0.10845957E-02 0.79683191E+02</pdfrwt>
<totfact> 0.23236390E+05</totfact>
</mgrwt>
</event>
<event>
 8    1  0.2433467E-024  0.7951293E+02  0.7818608E-02  0.1330439E+00
          2   -1    0    0  501    0  0.00000000000E+00  0.00000000000E+00  0.35668198582E+02  0.35668198673E+02  0.25500000000E-02 0. -1.
         -1   -1    0    0    0  501 -0.00000000000E+00 -0.00000000000E+00 -0.44313322862E+02  0.44313323148E+02  0.50400000000E-02 0.  1.
         24    2    1    2    0    0 -0.35527136788E-14  0.00000000000E+00 -0.86451242796E+01  0.79981521821E+02  0.79512927622E+02 0.  0.
         66    2    3    3    0    0 -0.31284436979E+02  0.24474257866E+02 -0.33891229582E+01  0.39914802351E+02  0.19999992669E+01 0.  0.
        -13    1    3    3    0    0  0.31284436979E+02 -0.24474257866E+02 -0.52560013214E+01  0.40066719471E+02  0.10566000000E+00 0.  1.
         13    1    4    4    0    0 -0.19249990209E+01  0.15402438142E+01 -0.62298378711E+00  0.25450432358E+01  0.10566000000E+00 0. -1.
        -13    1    4    4    0    0 -0.50263664990E+00  0.48873054047E+00 -0.50750700294E-01  0.71080293485E+00  0.10566000000E+00 0. -1.
         14    1    4    4    0    0 -0.28856801308E+02  0.22445283512E+02 -0.27153884707E+01  0.36658956180E+02  0.00000000000E+00 0. -1.
<mgrwt>
<rscale>  0 0.79512928E+02</rscale>
<asrwt>0</asrwt>
<pdfrwt beam="1">  1        2 0.54874152E-02 0.79512928E+02</pdfrwt>
<pdfrwt beam="2">  1       -1 0.68174343E-02 0.79512928E+02</pdfrwt>
<totfact> 0.14165103E+05</totfact>
</mgrwt>
</event>
<event>
 8    1  0.2433467E-024  0.7921580E+02  0.7818608E-02  0.1331292E+00
          2   -1    0    0  501    0  0.00000000000E+00  0.00000000000E+00  0.12742030395E+03  0.12742030398E+03  0.25500000000E-02 0. -1.
         -1   -1    0    0    0  501 -0.00000000000E+00 -0.00000000000E+00 -0.12311896915E+02  0.12311897947E+02  0.50400000000E-02 0.  1.
         24    2    1    2    0    0  0.71054273576E-14 -0.17763568394E-14  0.11510840704E+03  0.13973220192E+03  0.79215799459E+02 0.  0.
         66    2    3    3    0    0 -0.37758198558E+02  0.10771099778E+02  0.48756509600E+02  0.62633021602E+02  0.20000044775E+01 0.  0.
        -13    1    3    3    0    0  0.37758198558E+02 -0.10771099778E+02  0.66351897435E+02  0.77099180320E+02  0.10566000000E+00 0.  1.
         13    1    4    4    0    0 -0.15519382107E+02  0.46075894476E+01  0.18731640777E+02  0.24758162931E+02  0.10566000000E+00 0. -1.
        -13    1    4    4    0    0 -0.12394413699E+01  0.24327373538E+00  0.15486341779E+01  0.20012068539E+01  0.10566000000E+00 0. -1.
         14    1    4    4    0    0 -0.20999375081E+02  0.59202365947E+01  0.28476234645E+02  0.35873651817E+02  0.00000000000E+00 0. -1.
<mgrwt>
<rscale>  0 0.79215799E+02</rscale>
<asrwt>0</asrwt>
<pdfrwt beam="1">  1        2 0.19603124E-01 0.79215799E+02</pdfrwt>
<pdfrwt beam="2">  1       -1 0.18941381E-02 0.79215799E+02</pdfrwt>
<totfact> 0.19534544E+05</totfact>
</mgrwt>
</event>
<event>
 8    1  0.2433467E-024  0.7771428E+02  0.7818608E-02  0.1335666E+00
         -1   -1    0    0    0  501 -0.00000000000E+00  0.00000000000E+00  0.47373775187E+01  0.47373801997E+01  0.50400000000E-02 0.  1.
          2   -1    0    0  501    0  0.00000000000E+00 -0.00000000000E+00 -0.31871576683E+03  0.31871576684E+03  0.25500000000E-02 0. -1.
         24    2    1    2    0    0  0.35527136788E-14  0.88817841970E-15 -0.31397838931E+03  0.32345314704E+03  0.77714280383E+02 0.  0.
         66    2    3    3    0    0  0.31525046192E+02  0.61667659298E+01 -0.24790019033E+03  0.24998072307E+03  0.20000002456E+01 0.  0.
        -13    1    3    3    0    0 -0.31525046192E+02 -0.61667659298E+01 -0.66078198976E+02  0.73472423966E+02  0.10566000000E+00 0.  1.
         13    1    4    4    0    0  0.16527659825E+02  0.42317995260E+01 -0.13231001503E+03  0.13340548305E+03  0.10566000000E+00 0. -1.
        -13    1    4    4    0    0  0.10391703568E+02  0.13180523287E+01 -0.79652662973E+02  0.80338550197E+02  0.10566000000E+00 0.  1.
         14    1    4    4    0    0  0.46056827997E+01  0.61691407503E+00 -0.35937512331E+02  0.36236689827E+02  0.00000000000E+00 0. -1.
<mgrwt>
<rscale>  0 0.77714280E+02</rscale>
<asrwt>0</asrwt>
<pdfrwt beam="1">  1        2 0.49033178E-01 0.77714280E+02</pdfrwt>
<pdfrwt beam="2">  1       -1 0.72882777E-03 0.77714280E+02</pdfrwt>
<totfact> 0.28111217E+05</totfact>
</mgrwt>
</event>
<event>
 8    1  0.2433467E-024  0.8085856E+02  0.7818608E-02  0.1326632E+00
         -1   -1    0    0    0  501 -0.00000000000E+00  0.00000000000E+00  0.92593928903E+01  0.92593942619E+01  0.50400000000E-02 0.  1.
          2   -1    0    0  501    0  0.00000000000E+00 -0.00000000000E+00 -0.17652629877E+03  0.17652629879E+03  0.25500000000E-02 0. -1.
         24    2    1    2    0    0  0.00000000000E+00  0.17763568394E-14 -0.16726690588E+03  0.18578569305E+03  0.80858555143E+02 0.  0.
         66    2    3    3    0    0 -0.26186219042E+02  0.10945821458E+02 -0.14975945971E+03  0.15243826571E+03  0.20000011452E+01 0.  0.
        -13    1    3    3    0    0  0.26186219042E+02 -0.10945821458E+02 -0.17507446177E+02  0.33347427349E+02  0.10566000000E+00 0.  1.
         13    1    4    4    0    0 -0.18505264337E+02  0.79376061086E+01 -0.11018836896E+03  0.11201311628E+03  0.10566000000E+00 0. -1.
        -13    1    4    4    0    0 -0.19203731684E+01  0.60580261030E+00 -0.89277996910E+01  0.91526827360E+01  0.10566000000E+00 0.  1.
         14    1    4    4    0    0 -0.57605815365E+01  0.24024127394E+01 -0.30643291053E+02  0.31272466694E+02  0.00000000000E+00 0. -1.
<mgrwt>
<rscale>  0 0.80858555E+02</rscale>
<asrwt>0</asrwt>
<pdfrwt beam="1">  1        2 0.27157890E-01 0.80858555E+02</pdfrwt>
<pdfrwt beam="2">  1       -1 0.14245222E-02 0.80858555E+02</pdfrwt>
<totfact> 0.20545776E+05</totfact>
</mgrwt>
</event>
<event>
 8    1  0.2433467E-024  0.8004626E+02  0.7818608E-02  0.1328920E+00
         -1   -1    0    0    0  501 -0.00000000000E+00  0.00000000000E+00  0.53516856799E+01  0.53516880531E+01  0.50400000000E-02 0.  1.
          2   -1    0    0  501    0  0.00000000000E+00 -0.00000000000E+00 -0.29931697978E+03  0.29931697979E+03  0.25500000000E-02 0. -1.
         24    2    1    2    0    0  0.00000000000E+00  0.00000000000E+00 -0.29396529410E+03  0.30466866784E+03  0.80046255568E+02 0.  0.
         66    2    3    3    0    0 -0.29329414190E+02  0.45835778696E+01 -0.24910630234E+03  0.25087680946E+03  0.19999837550E+01 0.  0.
        -13    1    3    3    0    0  0.29329414190E+02 -0.45835778696E+01 -0.44858991753E+02  0.53791858380E+02  0.10566000000E+00 0.  1.
         13    1    4    4    0    0 -0.14631563845E+02  0.23273927550E+01 -0.12869403055E+03  0.12954406231E+03  0.10566000000E+00 0. -1.
        -13    1    4    4    0    0 -0.11309465414E+01 -0.12014644390E+00 -0.96825263555E+01  0.97496643998E+01  0.10566000000E+00 0.  1.
        -14    1    4    4    0    0 -0.13566903804E+02  0.23763315585E+01 -0.11072974544E+03  0.11158308275E+03  0.00000000000E+00 0.  1.
<mgrwt>
<rscale>  0 0.80046256E+02</rscale>
<asrwt>0</asrwt>
<pdfrwt beam="1">  1        2 0.46048753E-01 0.80046256E+02</pdfrwt>
<pdfrwt beam="2">  1       -1 0.82333668E-03 0.80046256E+02</pdfrwt>
<totfact> 0.25434878E+05</totfact>
</mgrwt>
</event>
<event>
 8    1  0.2433467E-024  0.8385013E+02  0.7818608E-02  0.1318467E+00
          2   -1    0    0  501    0  0.00000000000E+00  0.00000000000E+00  0.44820691176E+03  0.44820691177E+03  0.25500000000E-02 0. -1.
         -1   -1    0    0    0  501 -0.00000000000E+00 -0.00000000000E+00 -0.39216489696E+01  0.39216522083E+01  0.50400000000E-02 0.  1.
         24    2    1    2    0    0 -0.35527136788E-14  0.71054273576E-14  0.44428526279E+03  0.45212856398E+03  0.83850125998E+02 0.  0.
         66    2    3    3    0    0  0.17840799085E+02 -0.35944943847E+02  0.28728159843E+03  0.29007766182E+03  0.19999987744E+01 0.  0.
        -13    1    3    3    0    0 -0.17840799085E+02  0.35944943847E+02  0.15700366437E+03  0.16205090216E+03  0.10566000000E+00 0.  1.
         13    1    4    4    0    0  0.97146634529E+01 -0.19619577724E+02  0.15421940572E+03  0.15576565340E+03  0.10566000000E+00 0. -1.
        -13    1    4    4    0    0  0.45572180104E+01 -0.91862817621E+01  0.79391566331E+02  0.80051158500E+02  0.10566000000E+00 0.  1.
        -14    1    4    4    0    0  0.35689176219E+01 -0.71390843609E+01  0.53670626376E+02  0.54260849920E+02  0.00000000000E+00 0.  1.
<mgrwt>
<rscale>  0 0.83850126E+02</rscale>
<asrwt>0</asrwt>
<pdfrwt beam="1">  1        2 0.68954854E-01 0.83850126E+02</pdfrwt>
<pdfrwt beam="2">  1       -1 0.60333135E-03 0.83850126E+02</pdfrwt>
<totfact> 0.25980991E+05</totfact>
</mgrwt>
</event>
<event>
 8    1  0.2433467E-024  0.7965072E+02  0.7818608E-02  0.1330046E+00
         -1   -1    0    0    0  501 -0.00000000000E+00  0.00000000000E+00  0.29457085406E+02  0.29457085837E+02  0.50400000000E-02 0.  1.
          2   -1    0    0  501    0  0.00000000000E+00 -0.00000000000E+00 -0.53843053163E+02  0.53843053223E+02  0.25500000000E-02 0. -1.
         24    2    1    2    0    0 -0.35527136788E-14  0.35527136788E-14 -0.24385967757E+02  0.83300139060E+02  0.79650723437E+02 0.  0.
         66    2    3    3    0    0  0.26012654909E+02 -0.29961215010E+02 -0.15461498964E+02  0.42630864078E+02  0.20000003925E+01 0.  0.
        -13    1    3    3    0    0 -0.26012654909E+02  0.29961215010E+02 -0.89244687928E+01  0.40669274982E+02  0.10566000000E+00 0.  1.
         13    1    4    4    0    0  0.88076366874E+00 -0.10747888844E+01 -0.31885401842E+00  0.14295970435E+01  0.10566000000E+00 0. -1.
        -13    1    4    4    0    0  0.92171495595E+01 -0.96855960166E+01 -0.48857734722E+01  0.14235468473E+02  0.10566000000E+00 0.  1.
         14    1    4    4    0    0  0.15914741681E+02 -0.19200830109E+02 -0.10256871473E+02  0.26965798561E+02  0.00000000000E+00 0. -1.
<mgrwt>
<rscale>  0 0.79650723E+02</rscale>
<asrwt>0</asrwt>
<pdfrwt beam="1">  1        2 0.82835466E-02 0.79650723E+02</pdfrwt>
<pdfrwt beam="2">  1       -1 0.45318594E-02 0.79650723E+02</pdfrwt>
<totfact> 0.15371199E+05</totfact>
</mgrwt>
</event>
<event>
 8    1  0.2433467E-024  0.7957220E+02  0.7818608E-02  0.1330270E+00
         -1   -1    0    0    0  501 -0.00000000000E+00  0.00000000000E+00  0.78707123895E+02  0.78707124056E+02  0.50400000000E-02 0.  1.
          2   -1    0    0  501    0  0.00000000000E+00 -0.00000000000E+00 -0.20111695488E+02  0.20111695650E+02  0.25500000000E-02 0. -1.
         24    2    1    2    0    0 -0.71054273576E-14  0.00000000000E+00  0.58595428407E+02  0.98818819706E+02  0.79572199277E+02 0.  0.
         66    2    3    3    0    0  0.35869233395E+02  0.16465827098E+02  0.35298277883E+02  0.52987675787E+02  0.19999993541E+01 0.  0.
        -13    1    3    3    0    0 -0.35869233395E+02 -0.16465827098E+02  0.23297150523E+02  0.45831143919E+02  0.10566000000E+00 0.  1.
         13    1    4    4    0    0  0.67479708269E+01  0.29908954325E+01  0.71014308685E+01  0.10243146498E+02  0.10566000000E+00 0. -1.
        -13    1    4    4    0    0  0.12749278600E+01  0.79673170649E+00  0.16725404452E+01  0.22513946870E+01  0.10566000000E+00 0.  1.
         14    1    4    4    0    0  0.27846334708E+02  0.12678199959E+02  0.26524306570E+02  0.40493134602E+02  0.00000000000E+00 0. -1.
<mgrwt>
<rscale>  0 0.79572199E+02</rscale>
<asrwt>0</asrwt>
<pdfrwt beam="1">  1        2 0.30941069E-02 0.79572199E+02</pdfrwt>
<pdfrwt beam="2">  1       -1 0.12108789E-01 0.79572199E+02</pdfrwt>
<totfact> 0.12622441E+05</totfact>
</mgrwt>
</event>
<event>
 8    1  0.2433467E-024  0.7997024E+02  0.7818608E-02  0.1329136E+00
         -1   -1    0    0    0  501 -0.00000000000E+00  0.00000000000E+00  0.39883222528E+01  0.39883254373E+01  0.50400000000E-02 0.  1.
          2   -1    0    0  501    0  0.00000000000E+00 -0.00000000000E+00 -0.40087264276E+03  0.40087264277E+03  0.25500000000E-02 0. -1.
         24    2    1    2    0    0  0.22204460493E-15  0.00000000000E+00 -0.39688432051E+03  0.40486096821E+03  0.79970242664E+02 0.  0.
         66    2    3    3    0    0 -0.19145489984E+01  0.32380110829E+02 -0.31671855985E+03  0.31838150578E+03  0.19999989873E+01 0.  0.
        -13    1    3    3    0    0  0.19145489984E+01 -0.32380110829E+02 -0.80165760662E+02  0.86479462427E+02  0.10566000000E+00 0.  1.
         13    1    4    4    0    0 -0.15867207730E+01  0.25343995610E+02 -0.24107993358E+03  0.24241365748E+03  0.10566000000E+00 0. -1.
        -13    1    4    4    0    0 -0.36905245168E+00  0.60553536578E+01 -0.63226555613E+02  0.63517021391E+02  0.10566000000E+00 0.  1.
        -14    1    4    4    0    0  0.41224226295E-01  0.98076156126E+00 -0.12412070653E+02  0.12450826903E+02  0.00000000000E+00 0.  1.
<mgrwt>
<rscale>  0 0.79970243E+02</rscale>
<asrwt>0</asrwt>
<pdfrwt beam="1">  1        2 0.61672683E-01 0.79970243E+02</pdfrwt>
<pdfrwt beam="2">  1       -1 0.61358860E-03 0.79970243E+02</pdfrwt>
<totfact> 0.28302623E+05</totfact>
</mgrwt>
</event>
<event>
 8    1  0.2433467E-024  0.7989529E+02  0.7818608E-02  0.1329349E+00
          2   -1    0    0  501    0  0.00000000000E+00  0.00000000000E+00  0.10855155875E+03  0.10855155878E+03  0.25500000000E-02 0. -1.
         -1   -1    0    0    0  501 -0.00000000000E+00 -0.00000000000E+00 -0.14700978494E+02  0.14700979358E+02  0.50400000000E-02 0.  1.
         24    2    1    2    0    0  0.00000000000E+00  0.00000000000E+00  0.93850580255E+02  0.12325253814E+03  0.79895286113E+02 0.  0.
         66    2    3    3    0    0 -0.25213611523E+02 -0.17874713057E+02  0.85938180299E+02  0.91348795253E+02  0.19999970633E+01 0.  0.
        -13    1    3    3    0    0  0.25213611523E+02  0.17874713057E+02  0.79123999566E+01  0.31903742884E+02  0.10566000000E+00 0.  1.
         13    1    4    4    0    0 -0.65975304481E+01 -0.51963831432E+01  0.21595157339E+02  0.23170925539E+02  0.10566000000E+00 0. -1.
        -13    1    4    4    0    0 -0.14241713464E+02 -0.93248768196E+01  0.49379816069E+02  0.52231763604E+02  0.10566000000E+00 0.  1.
        -14    1    4    4    0    0 -0.43743676112E+01 -0.33534530944E+01  0.14963206890E+02  0.15946106111E+02  0.00000000000E+00 0.  1.
<mgrwt>
<rscale>  0 0.79895286E+02</rscale>
<asrwt>0</asrwt>
<pdfrwt beam="1">  1        2 0.16700240E-01 0.79895286E+02</pdfrwt>
<pdfrwt beam="2">  1       -1 0.22616891E-02 0.79895286E+02</pdfrwt>
<totfact> 0.18207723E+05</totfact>
</mgrwt>
</event>
<event>
 8    1  0.2433467E-024  0.8070342E+02  0.7818608E-02  0.1327067E+00
         -1   -1    0    0    0  501 -0.00000000000E+00  0.00000000000E+00  0.12271953841E+02  0.12271954876E+02  0.50400000000E-02 0.  1.
          2   -1    0    0  501    0  0.00000000000E+00 -0.00000000000E+00 -0.13268142288E+03  0.13268142291E+03  0.25500000000E-02 0. -1.
         24    2    1    2    0    0  0.35527136788E-14  0.00000000000E+00 -0.12040946904E+03  0.14495337778E+03  0.80703416879E+02 0.  0.
         66    2    3    3    0    0 -0.19315828668E+02 -0.39162375671E+01 -0.12343398185E+03  0.12501354339E+03  0.20000006262E+01 0.  0.
        -13    1    3    3    0    0  0.19315828668E+02  0.39162375671E+01  0.30245128074E+01  0.19939834391E+02  0.10566000000E+00 0.  1.
         13    1    4    4    0    0 -0.20219806274E+01 -0.56142950744E+00 -0.10883671561E+02  0.11084632580E+02  0.10566000000E+00 0. -1.
        -13    1    4    4    0    0 -0.38260670097E+01 -0.12579184145E+01 -0.27395359368E+02  0.27690034786E+02  0.10566000000E+00 0. -1.
        -14    1    4    4    0    0 -0.13467781030E+02 -0.20968896451E+01 -0.85154950921E+02  0.86238876027E+02  0.00000000000E+00 0.  1.
<mgrwt>
<rscale>  0 0.80703417E+02</rscale>
<asrwt>0</asrwt>
<pdfrwt beam="1">  1        2 0.20412526E-01 0.80703417E+02</pdfrwt>
<pdfrwt beam="2">  1       -1 0.18879931E-02 0.80703417E+02</pdfrwt>
<totfact> 0.18823976E+05</totfact>
</mgrwt>
</event>
<event>
 8    1  0.2433467E-024  0.7918513E+02  0.7818608E-02  0.1331380E+00
         -1   -1    0    0    0  501 -0.00000000000E+00  0.00000000000E+00  0.13980364933E+01  0.13980455781E+01  0.50400000000E-02 0.  1.
          2   -1    0    0  501    0  0.00000000000E+00 -0.00000000000E+00 -0.11212627847E+04  0.11212627847E+04  0.25500000000E-02 0. -1.
         24    2    1    2    0    0 -0.35527136788E-14  0.44408920985E-15 -0.11198647482E+04  0.11226608303E+04  0.79185134787E+02 0.  0.
         66    2    3    3    0    0  0.28249569578E+02 -0.17914120517E+01 -0.95224904313E+03  0.95267176272E+03  0.20000001363E+01 0.  0.
        -13    1    3    3    0    0 -0.28249569578E+02  0.17914120517E+01 -0.16761570509E+03  0.16998906758E+03  0.10566000000E+00 0.  1.
         13    1    4    4    0    0  0.68934370576E+01  0.50613097552E-01 -0.23268148165E+03  0.23278360145E+03  0.10566000000E+00 0.  1.
        -13    1    4    4    0    0  0.76841171285E+01 -0.94838622093E+00 -0.23962374075E+03  0.23974881311E+03  0.10566000000E+00 0. -1.
         14    1    4    4    0    0  0.13672015392E+02 -0.89363892837E+00 -0.47994382073E+03  0.48013934816E+03  0.00000000000E+00 0. -1.
<mgrwt>
<rscale>  0 0.79185135E+02</rscale>
<asrwt>0</asrwt>
<pdfrwt beam="1">  1        2 0.17250125E+00 0.79185135E+02</pdfrwt>
<pdfrwt beam="2">  1       -1 0.21508413E-03 0.79185135E+02</pdfrwt>
<totfact> 0.36173441E+05</totfact>
</mgrwt>
</event>
<event>
 8    1  0.2433467E-024  0.7631809E+02  0.7818608E-02  0.1339837E+00
          2   -1    0    0  501    0  0.00000000000E+00  0.00000000000E+00  0.60134069985E+01  0.60134075391E+01  0.25500000000E-02 0. -1.
         -1   -1    0    0    0  501 -0.00000000000E+00 -0.00000000000E+00 -0.24214436323E+03  0.24214436328E+03  0.50400000000E-02 0.  1.
         24    2    1    2    0    0  0.00000000000E+00 -0.17763568394E-14 -0.23613095623E+03  0.24815777082E+03  0.76318089129E+02 0.  0.
         66    2    3    3    0    0 -0.36315159761E+02  0.10571540703E+02 -0.10236356525E+03  0.10914599306E+03  0.20000024648E+01 0.  0.
        -13    1    3    3    0    0  0.36315159761E+02 -0.10571540703E+02 -0.13376739098E+03  0.13901177776E+03  0.10566000000E+00 0.  1.
         13    1    4    4    0    0 -0.13232830997E+02  0.37940161647E+01 -0.36748227301E+02  0.39242142508E+02  0.10566000000E+00 0. -1.
        -13    1    4    4    0    0 -0.20057527593E+02  0.64196141175E+01 -0.57053405540E+02  0.60816265146E+02  0.10566000000E+00 0.  1.
        -14    1    4    4    0    0 -0.30248011714E+01  0.35791042100E+00 -0.85619324070E+01  0.90875854074E+01  0.00000000000E+00 0.  1.
<mgrwt>
<rscale>  0 0.76318089E+02</rscale>
<asrwt>0</asrwt>
<pdfrwt beam="1">  1        2 0.92513977E-03 0.76318089E+02</pdfrwt>
<pdfrwt beam="2">  1       -1 0.37252972E-01 0.76318089E+02</pdfrwt>
<totfact> 0.10560904E+05</totfact>
</mgrwt>
</event>
<event>
 8    1  0.2433467E-024  0.7816963E+02  0.7818608E-02  0.1334327E+00
          2   -1    0    0  501    0  0.00000000000E+00  0.00000000000E+00  0.17509476716E+02  0.17509476902E+02  0.25500000000E-02 0. -1.
         -1   -1    0    0    0  501 -0.00000000000E+00 -0.00000000000E+00 -0.87245484947E+02  0.87245485092E+02  0.50400000000E-02 0.  1.
         24    2    1    2    0    0  0.35527136788E-14  0.00000000000E+00 -0.69736008231E+02  0.10475496199E+03  0.78169631050E+02 0.  0.
         66    2    3    3    0    0 -0.28278304237E+02 -0.21939626708E+02 -0.13931695084E+02  0.38459093039E+02  0.19999997139E+01 0.  0.
        -13    1    3    3    0    0  0.28278304237E+02  0.21939626708E+02 -0.55804313147E+02  0.66295868955E+02  0.10566000000E+00 0.  1.
         13    1    4    4    0    0 -0.51178689440E+01 -0.33473774807E+01 -0.24510438768E+01  0.65891045407E+01  0.10566000000E+00 0. -1.
        -13    1    4    4    0    0 -0.85105399413E+01 -0.71679615073E+01 -0.36695739248E+01  0.11716906549E+02  0.10566000000E+00 0.  1.
        -14    1    4    4    0    0 -0.14649895352E+02 -0.11424287720E+02 -0.78110772822E+01  0.20153081949E+02  0.00000000000E+00 0.  1.
<mgrwt>
<rscale>  0 0.78169631E+02</rscale>
<asrwt>0</asrwt>
<pdfrwt beam="1">  1        2 0.26937657E-02 0.78169631E+02</pdfrwt>
<pdfrwt beam="2">  1       -1 0.13422382E-01 0.78169631E+02</pdfrwt>
<totfact> 0.12917845E+05</totfact>
</mgrwt>
</event>
<event>
 8    1  0.2433467E-024  0.8190352E+02  0.7818608E-02  0.1323735E+00
          2   -1    0    0  501    0  0.00000000000E+00  0.00000000000E+00  0.50048300180E+03  0.50048300181E+03  0.25500000000E-02 0. -1.
         -1   -1    0    0    0  501 -0.00000000000E+00 -0.00000000000E+00 -0.33508544331E+01  0.33508582234E+01  0.50400000000E-02 0.  1.
         24    2    1    2    0    0  0.88817841970E-15 -0.71054273576E-14  0.49713214737E+03  0.50383386003E+03  0.81903519869E+02 0.  0.
         66    2    3    3    0    0 -0.40917228747E+01  0.33259123142E+02  0.39325969393E+03  0.39468987616E+03  0.20000009944E+01 0.  0.
        -13    1    3    3    0    0  0.40917228747E+01 -0.33259123142E+02  0.10387245344E+03  0.10914398387E+03  0.10566000000E+00 0.  1.
         13    1    4    4    0    0 -0.19979533023E+01  0.12370902258E+02  0.14084247835E+03  0.14139888936E+03  0.10566000000E+00 0. -1.
        -13    1    4    4    0    0 -0.95519016179E+00  0.11997095611E+02  0.13896426782E+03  0.13948448511E+03  0.10566000000E+00 0.  1.
        -14    1    4    4    0    0 -0.11385794107E+01  0.88911252728E+01  0.11345294776E+03  0.11380650169E+03  0.00000000000E+00 0.  1.
<mgrwt>
<rscale>  0 0.81903520E+02</rscale>
<asrwt>0</asrwt>
<pdfrwt beam="1">  1        2 0.76997363E-01 0.81903520E+02</pdfrwt>
<pdfrwt beam="2">  1       -1 0.51551651E-03 0.81903520E+02</pdfrwt>
<totfact> 0.28647927E+05</totfact>
</mgrwt>
</event>
<event>
 8    1  0.2433467E-024  0.7943590E+02  0.7818608E-02  0.1330660E+00
         -1   -1    0    0    0  501 -0.00000000000E+00  0.00000000000E+00  0.92142513658E+01  0.92142527442E+01  0.50400000000E-02 0.  1.
          2   -1    0    0  501    0  0.00000000000E+00 -0.00000000000E+00 -0.17120386303E+03  0.17120386305E+03  0.25500000000E-02 0. -1.
         24    2    1    2    0    0 -0.44408920985E-15  0.35527136788E-14 -0.16198961167E+03  0.18041811580E+03  0.79435900067E+02 0.  0.
         66    2    3    3    0    0  0.38869623765E+01 -0.24124126868E+02 -0.15209008641E+03  0.15405348536E+03  0.19999985560E+01 0.  0.
        -13    1    3    3    0    0 -0.38869623765E+01  0.24124126868E+02 -0.98995252595E+01  0.26364630437E+02  0.10566000000E+00 0.  1.
         13    1    4    4    0    0  0.18918428342E+01 -0.63635918033E+01 -0.40191059940E+02  0.40735817570E+02  0.10566000000E+00 0. -1.
        -13    1    4    4    0    0  0.37344600642E+00 -0.40110837434E+01 -0.25327500352E+02  0.25646085332E+02  0.10566000000E+00 0.  1.
         14    1    4    4    0    0  0.16216735359E+01 -0.13749451321E+02 -0.86571526118E+02  0.87671582460E+02  0.00000000000E+00 0. -1.
<mgrwt>
<rscale>  0 0.79435900E+02</rscale>
<asrwt>0</asrwt>
<pdfrwt beam="1">  1        2 0.26339054E-01 0.79435900E+02</pdfrwt>
<pdfrwt beam="2">  1       -1 0.14175774E-02 0.79435900E+02</pdfrwt>
<totfact> 0.21313836E+05</totfact>
</mgrwt>
</event>
<event>
 8    1  0.2433467E-024  0.7210629E+02  0.7818608E-02  0.1353074E+00
          2   -1    0    0  501    0  0.00000000000E+00  0.00000000000E+00  0.23845976168E+02  0.23845976305E+02  0.25500000000E-02 0. -1.
         -1   -1    0    0    0  501 -0.00000000000E+00 -0.00000000000E+00 -0.54509370615E+02  0.54509370848E+02  0.50400000000E-02 0.  1.
         24    2    1    2    0    0  0.17763568394E-14  0.00000000000E+00 -0.30663394447E+02  0.78355347152E+02  0.72106287301E+02 0.  0.
         66    2    3    3    0    0  0.88173261278E+01 -0.34042497151E+02 -0.68433045481E+01  0.35881299793E+02  0.20000013362E+01 0.  0.
        -13    1    3    3    0    0 -0.88173261278E+01  0.34042497151E+02 -0.23820089898E+02  0.42474047360E+02  0.10566000000E+00 0.  1.
         13    1    4    4    0    0  0.50342291260E+01 -0.18530385743E+02 -0.29197455021E+01  0.19423046530E+02  0.10566000000E+00 0. -1.
        -13    1    4    4    0    0  0.62848875620E+00 -0.27659916975E+01 -0.96854617190E+00  0.29991588671E+01  0.10566000000E+00 0.  1.
         14    1    4    4    0    0  0.31546082456E+01 -0.12746119710E+02 -0.29550128740E+01  0.13459094395E+02  0.00000000000E+00 0. -1.
<mgrwt>
<rscale>  0 0.72106287E+02</rscale>
<asrwt>0</asrwt>
<pdfrwt beam="1">  1        2 0.36686117E-02 0.72106287E+02</pdfrwt>
<pdfrwt beam="2">  1       -1 0.83860570E-02 0.72106287E+02</pdfrwt>
<totfact> 0.17219094E+05</totfact>
</mgrwt>
</event>
<event>
 8    1  0.2433467E-024  0.7883281E+02  0.7818608E-02  0.1332397E+00
          2   -1    0    0  501    0  0.00000000000E+00  0.00000000000E+00  0.22227013028E+02  0.22227013174E+02  0.25500000000E-02 0. -1.
         -1   -1    0    0    0  501 -0.00000000000E+00 -0.00000000000E+00 -0.69899310476E+02  0.69899310658E+02  0.50400000000E-02 0.  1.
         24    2    1    2    0    0  0.00000000000E+00  0.17763568394E-14 -0.47672297448E+02  0.92126323832E+02  0.78832807883E+02 0.  0.
         66    2    3    3    0    0 -0.36043173654E+02 -0.15006280234E+02 -0.29962958972E+02  0.49255230461E+02  0.20000009816E+01 0.  0.
        -13    1    3    3    0    0  0.36043173654E+02  0.15006280234E+02 -0.17709338476E+02  0.42871093371E+02  0.10566000000E+00 0.  1.
         13    1    4    4    0    0 -0.14776756319E+02 -0.54817581231E+01 -0.12111697442E+02  0.19877288004E+02  0.10566000000E+00 0. -1.
        -13    1    4    4    0    0 -0.83440349071E+01 -0.37109192087E+01 -0.62768867430E+01  0.11081710659E+02  0.10566000000E+00 0.  1.
        -14    1    4    4    0    0 -0.12922382428E+02 -0.58136029023E+01 -0.11574374787E+02  0.18296231799E+02  0.00000000000E+00 0.  1.
<mgrwt>
<rscale>  0 0.78832808E+02</rscale>
<asrwt>0</asrwt>
<pdfrwt beam="1">  1        2 0.34195405E-02 0.78832808E+02</pdfrwt>
<pdfrwt beam="2">  1       -1 0.10753740E-01 0.78832808E+02</pdfrwt>
<totfact> 0.13223636E+05</totfact>
</mgrwt>
</event>
<event>
 8    1  0.2433467E-024  0.8649164E+02  0.7818608E-02  0.1311577E+00
         -1   -1    0    0    0  501 -0.00000000000E+00  0.00000000000E+00  0.12813322980E+02  0.12813323971E+02  0.50400000000E-02 0.  1.
          2   -1    0    0  501    0  0.00000000000E+00 -0.00000000000E+00 -0.14595752238E+03  0.14595752240E+03  0.25500000000E-02 0. -1.
         24    2    1    2    0    0  0.35527136788E-14  0.35527136788E-14 -0.13314419940E+03  0.15877084637E+03  0.86491640198E+02 0.  0.
         66    2    3    3    0    0 -0.29681884000E+02  0.27150911939E+02 -0.37582410612E+02  0.55087420035E+02  0.20000004440E+01 0.  0.
        -13    1    3    3    0    0  0.29681884000E+02 -0.27150911939E+02 -0.95561788784E+02  0.10368342634E+03  0.10566000000E+00 0.  1.
         13    1    4    4    0    0 -0.23580672988E+01  0.19897783001E+01 -0.24784544014E+01  0.39589896848E+01  0.10566000000E+00 0.  1.
        -13    1    4    4    0    0 -0.55961433910E+01  0.45873952712E+01 -0.63014924354E+01  0.95958838663E+01  0.10566000000E+00 0. -1.
        -14    1    4    4    0    0 -0.21727673310E+02  0.20573738368E+02 -0.28802463775E+02  0.41532546484E+02  0.00000000000E+00 0.  1.
<mgrwt>
<rscale>  0 0.86491640E+02</rscale>
<asrwt>0</asrwt>
<pdfrwt beam="1">  1        2 0.22455002E-01 0.86491640E+02</pdfrwt>
<pdfrwt beam="2">  1       -1 0.19712806E-02 0.86491640E+02</pdfrwt>
<totfact> 0.16126014E+05</totfact>
</mgrwt>
</event>
<event>
 8    1  0.2433467E-024  0.8290001E+02  0.7818608E-02  0.1321017E+00
          2   -1    0    0  501    0  0.00000000000E+00  0.00000000000E+00  0.12250253834E+03  0.12250253836E+03  0.25500000000E-02 0. -1.
         -1   -1    0    0    0  501 -0.00000000000E+00 -0.00000000000E+00 -0.14025038220E+02  0.14025039125E+02  0.50400000000E-02 0.  1.
         24    2    1    2    0    0  0.00000000000E+00  0.00000000000E+00  0.10847750012E+03  0.13652757749E+03  0.82900008343E+02 0.  0.
         66    2    3    3    0    0 -0.74703996918E+01 -0.33260838984E+02  0.93033790914E+02  0.99102858393E+02  0.20000020957E+01 0.  0.
        -13    1    3    3    0    0  0.74703996918E+01  0.33260838984E+02  0.15443709204E+02  0.37424719097E+02  0.10566000000E+00 0.  1.
         13    1    4    4    0    0 -0.39072329114E+00 -0.27022495878E+01  0.87652816935E+01  0.91812931947E+01  0.10566000000E+00 0. -1.
        -13    1    4    4    0    0 -0.30758041769E+01 -0.14439399404E+02  0.38690533756E+02  0.41411657693E+02  0.10566000000E+00 0.  1.
        -14    1    4    4    0    0 -0.40038722238E+01 -0.16119189992E+02  0.45577975464E+02  0.48509907506E+02  0.00000000000E+00 0.  1.
<mgrwt>
<rscale>  0 0.82900008E+02</rscale>
<asrwt>0</asrwt>
<pdfrwt beam="1">  1        2 0.18846544E-01 0.82900008E+02</pdfrwt>
<pdfrwt beam="2">  1       -1 0.21576983E-02 0.82900008E+02</pdfrwt>
<totfact> 0.17096862E+05</totfact>
</mgrwt>
</event>
<event>
 8    1  0.2433467E-024  0.7971632E+02  0.7818608E-02  0.1329858E+00
          2   -1    0    0  501    0  0.00000000000E+00  0.00000000000E+00  0.42764805400E+03  0.42764805401E+03  0.25500000000E-02 0. -1.
         -1   -1    0    0    0  501 -0.00000000000E+00 -0.00000000000E+00 -0.37149054763E+01  0.37149088952E+01  0.50400000000E-02 0.  1.
         24    2    1    2    0    0  0.00000000000E+00  0.00000000000E+00  0.42393314852E+03  0.43136296290E+03  0.79716317947E+02 0.  0.
         66    2    3    3    0    0  0.63865242541E+01 -0.32251677611E+02  0.33378718107E+03  0.33540846841E+03  0.20000087972E+01 0.  0.
        -13    1    3    3    0    0 -0.63865242541E+01  0.32251677611E+02  0.90145967455E+02  0.95954494492E+02  0.10566000000E+00 0.  1.
         13    1    4    4    0    0  0.27423344627E+01 -0.97366831051E+01  0.10684396299E+03  0.10732179176E+03  0.10566000000E+00 0. -1.
        -13    1    4    4    0    0  0.26177155362E+01 -0.15378764305E+02  0.15571819357E+03  0.15649768624E+03  0.10566000000E+00 0.  1.
         14    1    4    4    0    0  0.10264742551E+01 -0.71362302012E+01  0.71225024507E+02  0.71588990403E+02  0.00000000000E+00 0. -1.
<mgrwt>
<rscale>  0 0.79716318E+02</rscale>
<asrwt>0</asrwt>
<pdfrwt beam="1">  1        2 0.65791999E-01 0.79716318E+02</pdfrwt>
<pdfrwt beam="2">  1       -1 0.57152426E-03 0.79716318E+02</pdfrwt>
<totfact> 0.29184016E+05</totfact>
</mgrwt>
</event>
<event>
 8    1  0.2433467E-024  0.7807975E+02  0.7818608E-02  0.1334591E+00
          2   -1    0    0  501    0  0.00000000000E+00  0.00000000000E+00  0.99211327311E+02  0.99211327344E+02  0.25500000000E-02 0. -1.
         -1   -1    0    0    0  501 -0.00000000000E+00 -0.00000000000E+00 -0.15362276604E+02  0.15362277431E+02  0.50400000000E-02 0.  1.
         24    2    1    2    0    0 -0.35527136788E-14 -0.17763568394E-14  0.83849050707E+02  0.11457360477E+03  0.78079751579E+02 0.  0.
         66    2    3    3    0    0 -0.24177766324E+02 -0.13648668960E+02  0.82171788294E+02  0.86758592245E+02  0.19999970591E+01 0.  0.
        -13    1    3    3    0    0  0.24177766324E+02  0.13648668960E+02  0.16772624130E+01  0.27815012529E+02  0.10566000000E+00 0.  1.
         13    1    4    4    0    0 -0.60687156694E+01 -0.33987377848E+01  0.20769538590E+02  0.21903552809E+02  0.10566000000E+00 0. -1.
        -13    1    4    4    0    0 -0.14667831275E+02 -0.75834809481E+01  0.49506166112E+02  0.52187413279E+02  0.10566000000E+00 0.  1.
        -14    1    4    4    0    0 -0.34412193795E+01 -0.26664502267E+01  0.11896083592E+02  0.12667626157E+02  0.00000000000E+00 0.  1.
<mgrwt>
<rscale>  0 0.78079752E+02</rscale>
<asrwt>0</asrwt>
<pdfrwt beam="1">  1        2 0.15263281E-01 0.78079752E+02</pdfrwt>
<pdfrwt beam="2">  1       -1 0.23634272E-02 0.78079752E+02</pdfrwt>
<totfact> 0.18874588E+05</totfact>
</mgrwt>
</event>
<event>
 8    1  0.2433467E-024  0.8068373E+02  0.7818608E-02  0.1327122E+00
         -1   -1    0    0    0  501 -0.00000000000E+00  0.00000000000E+00  0.12373367389E+01  0.12373470035E+01  0.50400000000E-02 0.  1.
          2   -1    0    0  501    0  0.00000000000E+00 -0.00000000000E+00 -0.13152921117E+04  0.13152921117E+04  0.25500000000E-02 0. -1.
         24    2    1    2    0    0  0.00000000000E+00 -0.17763568394E-14 -0.13140547749E+04  0.13165294587E+04  0.80683728487E+02 0.  0.
         66    2    3    3    0    0 -0.24201394082E+02 -0.95607625128E+01 -0.11599205120E+04  0.11602140793E+04  0.19999995042E+01 0.  0.
        -13    1    3    3    0    0  0.24201394082E+02  0.95607625128E+01 -0.15413426293E+03  0.15631537938E+03  0.10566000000E+00 0.  1.
         13    1    4    4    0    0 -0.12558251560E+02 -0.47012491359E+01 -0.63069270627E+03  0.63083524975E+03  0.10566000000E+00 0. -1.
        -13    1    4    4    0    0 -0.44303368896E+01 -0.22817415738E+01 -0.20793312272E+03  0.20799285785E+03  0.10566000000E+00 0.  1.
        -14    1    4    4    0    0 -0.72128056327E+01 -0.25777718030E+01 -0.32129468300E+03  0.32138597168E+03  0.00000000000E+00 0.  1.
<mgrwt>
<rscale>  0 0.80683728E+02</rscale>
<asrwt>0</asrwt>
<pdfrwt beam="1">  1        2 0.20235151E+00 0.80683728E+02</pdfrwt>
<pdfrwt beam="2">  1       -1 0.19036134E-03 0.80683728E+02</pdfrwt>
<totfact> 0.33780685E+05</totfact>
</mgrwt>
</event>
<event>
 8    1  0.2433467E-024  0.7955846E+02  0.7818608E-02  0.1330309E+00
         -1   -1    0    0    0  501 -0.00000000000E+00  0.00000000000E+00  0.20548022547E+01  0.20548084357E+01  0.50400000000E-02 0.  1.
          2   -1    0    0  501    0  0.00000000000E+00 -0.00000000000E+00 -0.77009103764E+03  0.77009103765E+03  0.25500000000E-02 0. -1.
         24    2    1    2    0    0  0.00000000000E+00  0.00000000000E+00 -0.76803623539E+03  0.77214584608E+03  0.79558461233E+02 0.  0.
         66    2    3    3    0    0  0.56320450715E+01 -0.16003571288E+02 -0.73318851294E+03  0.73338750311E+03  0.19999987345E+01 0.  0.
        -13    1    3    3    0    0 -0.56320450715E+01  0.16003571288E+02 -0.34847722453E+02  0.38758342971E+02  0.10566000000E+00 0.  1.
         13    1    4    4    0    0  0.43969528631E+01 -0.12372671678E+02 -0.55511751177E+03  0.55527279713E+03  0.10566000000E+00 0. -1.
        -13    1    4    4    0    0  0.37327552238E+00 -0.12125546358E+01 -0.41320072088E+02  0.41339680027E+02  0.10566000000E+00 0.  1.
         14    1    4    4    0    0  0.86181668600E+00 -0.24183449738E+01 -0.13675092908E+03  0.13677502595E+03  0.00000000000E+00 0. -1.
<mgrwt>
<rscale>  0 0.79558461E+02</rscale>
<asrwt>0</asrwt>
<pdfrwt beam="1">  1        2 0.11847531E+00 0.79558461E+02</pdfrwt>
<pdfrwt beam="2">  1       -1 0.31612451E-03 0.79558461E+02</pdfrwt>
<totfact> 0.34623202E+05</totfact>
</mgrwt>
</event>
<event>
 8    1  0.2433467E-024  0.8307136E+02  0.7818608E-02  0.1320555E+00
          2   -1    0    0  501    0  0.00000000000E+00  0.00000000000E+00  0.55762112107E+03  0.55762112108E+03  0.25500000000E-02 0. -1.
         -1   -1    0    0    0  501 -0.00000000000E+00 -0.00000000000E+00 -0.30938776339E+01  0.30938817390E+01  0.50400000000E-02 0.  1.
         24    2    1    2    0    0  0.35527136788E-14  0.00000000000E+00  0.55452724344E+03  0.56071500282E+03  0.83071358896E+02 0.  0.
         66    2    3    3    0    0  0.29096081713E+02  0.21353705075E+02  0.41585978058E+03  0.41742774200E+03  0.19999999707E+01 0.  0.
        -13    1    3    3    0    0 -0.29096081713E+02 -0.21353705075E+02  0.13866746286E+03  0.14328726081E+03  0.10566000000E+00 0.  1.
         13    1    4    4    0    0  0.23372888108E+02  0.17831652518E+02  0.33775203310E+03  0.33902906477E+03  0.10566000000E+00 0. -1.
        -13    1    4    4    0    0  0.10953913168E+01  0.85503279278E+00  0.18211192904E+02  0.18264437419E+02  0.10566000000E+00 0.  1.
        -14    1    4    4    0    0  0.46278022881E+01  0.26670197637E+01  0.59896554570E+02  0.60134239812E+02  0.00000000000E+00 0.  1.
<mgrwt>
<rscale>  0 0.83071359E+02</rscale>
<asrwt>0</asrwt>
<pdfrwt beam="1">  1        2 0.85787904E-01 0.83071359E+02</pdfrwt>
<pdfrwt beam="2">  1       -1 0.47598128E-03 0.83071359E+02</pdfrwt>
<totfact> 0.28544667E+05</totfact>
</mgrwt>
</event>
<event>
 8    1  0.2433467E-024  0.8066868E+02  0.7818608E-02  0.1327164E+00
          2   -1    0    0  501    0  0.00000000000E+00  0.00000000000E+00  0.61453088722E+02  0.61453088775E+02  0.25500000000E-02 0. -1.
         -1   -1    0    0    0  501 -0.00000000000E+00 -0.00000000000E+00 -0.26473182274E+02  0.26473182754E+02  0.50400000000E-02 0.  1.
         24    2    1    2    0    0  0.00000000000E+00  0.88817841970E-15  0.34979906448E+02  0.87926271529E+02  0.80668676510E+02 0.  0.
         66    2    3    3    0    0  0.23096555938E+02  0.51984148505E+01  0.53060691637E+02  0.58137005505E+02  0.19999997327E+01 0.  0.
        -13    1    3    3    0    0 -0.23096555938E+02 -0.51984148505E+01 -0.18080785189E+02  0.29789266024E+02  0.10566000000E+00 0.  1.
         13    1    4    4    0    0  0.10785282523E+02  0.27562020599E+01  0.24244934542E+02  0.26678586617E+02  0.10566000000E+00 0. -1.
        -13    1    4    4    0    0  0.34702210396E+00 -0.82487500809E-01  0.12072796422E+01  0.12632959663E+01  0.10566000000E+00 0.  1.
        -14    1    4    4    0    0  0.11964251311E+02  0.25247002914E+01  0.27608477453E+02  0.30195122922E+02  0.00000000000E+00 0.  1.
<mgrwt>
<rscale>  0 0.80668677E+02</rscale>
<asrwt>0</asrwt>
<pdfrwt beam="1">  1        2 0.94543212E-02 0.80668677E+02</pdfrwt>
<pdfrwt beam="2">  1       -1 0.40727974E-02 0.80668677E+02</pdfrwt>
<totfact> 0.15302420E+05</totfact>
</mgrwt>
</event>
<event>
 8    1  0.2433467E-024  0.7557731E+02  0.7818608E-02  0.1342093E+00
         -1   -1    0    0    0  501 -0.00000000000E+00  0.00000000000E+00  0.47480067172E+02  0.47480067440E+02  0.50400000000E-02 0.  1.
          2   -1    0    0  501    0  0.00000000000E+00 -0.00000000000E+00 -0.30075412072E+02  0.30075412180E+02  0.25500000000E-02 0. -1.
         24    2    1    2    0    0  0.17763568394E-14  0.00000000000E+00  0.17404655100E+02  0.77555479620E+02  0.75577314056E+02 0.  0.
         66    2    3    3    0    0  0.15805257205E+02  0.32355923732E+01 -0.26327626041E+02  0.30942189764E+02  0.20000002901E+01 0.  0.
        -13    1    3    3    0    0 -0.15805257205E+02 -0.32355923732E+01  0.43732281141E+02  0.46613289855E+02  0.10566000000E+00 0.  1.
         13    1    4    4    0    0  0.42011648291E+01  0.46252260221E+00 -0.69020310850E+01  0.80940045844E+01  0.10566000000E+00 0. -1.
        -13    1    4    4    0    0  0.59516227027E+01  0.11621531124E+01 -0.84991152145E+01  0.10441194190E+02  0.10566000000E+00 0. -1.
         14    1    4    4    0    0  0.56524696728E+01  0.16109166586E+01 -0.10926479741E+02  0.12406990990E+02  0.00000000000E+00 0. -1.
<mgrwt>
<rscale>  0 0.75577314E+02</rscale>
<asrwt>0</asrwt>
<pdfrwt beam="1">  1        2 0.46269865E-02 0.75577314E+02</pdfrwt>
<pdfrwt beam="2">  1       -1 0.73046258E-02 0.75577314E+02</pdfrwt>
<totfact> 0.15775849E+05</totfact>
</mgrwt>
</event>
<event>
 8    1  0.2433467E-024  0.8103336E+02  0.7818608E-02  0.1326144E+00
         -1   -1    0    0    0  501 -0.00000000000E+00  0.00000000000E+00  0.16769142867E+01  0.16769218606E+01  0.50400000000E-02 0.  1.
          2   -1    0    0  501    0  0.00000000000E+00 -0.00000000000E+00 -0.97893960268E+03  0.97893960269E+03  0.25500000000E-02 0. -1.
         24    2    1    2    0    0  0.00000000000E+00  0.00000000000E+00 -0.97726268840E+03  0.98061652455E+03  0.81033364012E+02 0.  0.
         66    2    3    3    0    0 -0.17931909954E+02  0.10877215842E+02 -0.90808541274E+03  0.90832977714E+03  0.19999984714E+01 0.  0.
        -13    1    3    3    0    0  0.17931909954E+02 -0.10877215842E+02 -0.69177275661E+02  0.72286747409E+02  0.10566000000E+00 0.  1.
         13    1    4    4    0    0 -0.19906671990E+01  0.12595242822E+01 -0.10681518996E+03  0.10684121455E+03  0.10566000000E+00 0. -1.
        -13    1    4    4    0    0 -0.10095996618E+02  0.52261201778E+01 -0.46649355239E+03  0.46663206819E+03  0.10566000000E+00 0.  1.
        -14    1    4    4    0    0 -0.58452461369E+01  0.43915713820E+01 -0.33477667039E+03  0.33485649440E+03  0.00000000000E+00 0.  1.
<mgrwt>
<rscale>  0 0.81033364E+02</rscale>
<asrwt>0</asrwt>
<pdfrwt beam="1">  1        2 0.15060564E+00 0.81033364E+02</pdfrwt>
<pdfrwt beam="2">  1       -1 0.25798818E-03 0.81033364E+02</pdfrwt>
<totfact> 0.34040095E+05</totfact>
</mgrwt>
</event>
<event>
 8    1  0.2433467E-024  0.7689539E+02  0.7818608E-02  0.1338100E+00
         -1   -1    0    0    0  501 -0.00000000000E+00  0.00000000000E+00  0.12908805912E+02  0.12908806896E+02  0.50400000000E-02 0.  1.
          2   -1    0    0  501    0  0.00000000000E+00 -0.00000000000E+00 -0.11451292341E+03  0.11451292344E+03  0.25500000000E-02 0. -1.
         24    2    1    2    0    0  0.00000000000E+00  0.00000000000E+00 -0.10160411750E+03  0.12742173034E+03  0.76895387828E+02 0.  0.
         66    2    3    3    0    0 -0.28300242849E+02 -0.20081066147E+02 -0.78168956819E+02  0.85548458634E+02  0.20000004193E+01 0.  0.
        -13    1    3    3    0    0  0.28300242849E+02  0.20081066147E+02 -0.23435160681E+02  0.41873271703E+02  0.10566000000E+00 0.  1.
         13    1    4    4    0    0 -0.98211654733E+01 -0.72151695382E+01 -0.25870575249E+02  0.28597408807E+02  0.10566000000E+00 0. -1.
        -13    1    4    4    0    0 -0.13842881938E+02 -0.91535647137E+01 -0.37745333958E+02  0.41232687603E+02  0.10566000000E+00 0.  1.
        -14    1    4    4    0    0 -0.46361954377E+01 -0.37123318948E+01 -0.14553047611E+02  0.15718362224E+02  0.00000000000E+00 0.  1.
<mgrwt>
<rscale>  0 0.76895388E+02</rscale>
<asrwt>0</asrwt>
<pdfrwt beam="1">  1        2 0.17617372E-01 0.76895388E+02</pdfrwt>
<pdfrwt beam="2">  1       -1 0.19859703E-02 0.76895388E+02</pdfrwt>
<totfact> 0.20478043E+05</totfact>
</mgrwt>
</event>
<event>
 8    1  0.2433467E-024  0.7587151E+02  0.7818608E-02  0.1341193E+00
         -1   -1    0    0    0  501 -0.00000000000E+00  0.00000000000E+00  0.97937333130E+02  0.97937333260E+02  0.50400000000E-02 0.  1.
          2   -1    0    0  501    0  0.00000000000E+00 -0.00000000000E+00 -0.14694309787E+02  0.14694310009E+02  0.25500000000E-02 0. -1.
         24    2    1    2    0    0 -0.35527136788E-14  0.88817841970E-15  0.83243023343E+02  0.11263164327E+03  0.75871510662E+02 0.  0.
         66    2    3    3    0    0  0.20649788404E+02 -0.54562386446E+01 -0.48441081974E+01  0.21992037089E+02  0.20000024605E+01 0.  0.
        -13    1    3    3    0    0 -0.20649788404E+02  0.54562386446E+01  0.88087131540E+02  0.90639606179E+02  0.10566000000E+00 0.  1.
         13    1    4    4    0    0  0.16194239699E+02 -0.44498900711E+01 -0.42410040325E+01  0.17322014904E+02  0.10566000000E+00 0. -1.
        -13    1    4    4    0    0  0.10581759531E+01 -0.54971369112E+00 -0.25952240157E+00  0.12249234271E+01  0.10566000000E+00 0.  1.
        -14    1    4    4    0    0  0.33973727513E+01 -0.45663488233E+00 -0.34358176335E+00  0.34450987584E+01  0.00000000000E+00 0.  1.
<mgrwt>
<rscale>  0 0.75871511E+02</rscale>
<asrwt>0</asrwt>
<pdfrwt beam="1">  1        2 0.22606631E-02 0.75871511E+02</pdfrwt>
<pdfrwt beam="2">  1       -1 0.15067282E-01 0.75871511E+02</pdfrwt>
<totfact> 0.13585475E+05</totfact>
</mgrwt>
</event>
<event>
 8    1  0.2433467E-024  0.7897542E+02  0.7818608E-02  0.1331984E+00
         -1   -1    0    0    0  501 -0.00000000000E+00  0.00000000000E+00  0.31442689207E+02  0.31442689611E+02  0.50400000000E-02 0.  1.
          2   -1    0    0  501    0  0.00000000000E+00 -0.00000000000E+00 -0.49591147861E+02  0.49591147927E+02  0.25500000000E-02 0. -1.
         24    2    1    2    0    0 -0.35527136788E-14  0.00000000000E+00 -0.18148458654E+02  0.81033837537E+02  0.78975415633E+02 0.  0.
         66    2    3    3    0    0 -0.22625284089E+02 -0.23813102440E+02 -0.31520286300E+02  0.45568583181E+02  0.19999992035E+01 0.  0.
        -13    1    3    3    0    0  0.22625284089E+02  0.23813102440E+02  0.13371827645E+02  0.35465254356E+02  0.10566000000E+00 0.  1.
         13    1    4    4    0    0 -0.20425035247E+02 -0.21855864623E+02 -0.29309686334E+02  0.41879944607E+02  0.10566000000E+00 0. -1.
        -13    1    4    4    0    0 -0.67971324479E+00 -0.63066687888E+00 -0.64060018001E+00  0.11319379106E+01  0.10566000000E+00 0.  1.
         14    1    4    4    0    0 -0.15205355973E+01 -0.13265709382E+01 -0.15699997856E+01  0.25567006636E+01  0.00000000000E+00 0. -1.
<mgrwt>
<rscale>  0 0.78975416E+02</rscale>
<asrwt>0</asrwt>
<pdfrwt beam="1">  1        2 0.76294074E-02 0.78975416E+02</pdfrwt>
<pdfrwt beam="2">  1       -1 0.48373368E-02 0.78975416E+02</pdfrwt>
<totfact> 0.15452109E+05</totfact>
</mgrwt>
</event>
<event>
 8    1  0.2433467E-024  0.7960031E+02  0.7818608E-02  0.1330190E+00
         -1   -1    0    0    0  501 -0.00000000000E+00  0.00000000000E+00  0.84321953652E+01  0.84321968714E+01  0.50400000000E-02 0.  1.
          2   -1    0    0  501    0  0.00000000000E+00 -0.00000000000E+00 -0.18785761022E+03  0.18785761024E+03  0.25500000000E-02 0. -1.
         24    2    1    2    0    0  0.00000000000E+00  0.00000000000E+00 -0.17942541486E+03  0.19628980711E+03  0.79600307029E+02 0.  0.
         66    2    3    3    0    0  0.99027344466E+00 -0.36140695388E+02 -0.48882337905E+02  0.60832667732E+02  0.19999999138E+01 0.  0.
        -13    1    3    3    0    0 -0.99027344466E+00  0.36140695388E+02 -0.13054307695E+03  0.13545713938E+03  0.10566000000E+00 0.  1.
         13    1    4    4    0    0  0.77473286980E+00 -0.26320625387E+02 -0.36534039438E+02  0.45034683673E+02  0.10566000000E+00 0. -1.
        -13    1    4    4    0    0  0.29529513447E+00 -0.71791365808E+01 -0.85089314261E+01  0.11137337173E+02  0.10566000000E+00 0.  1.
        -14    1    4    4    0    0 -0.79754559607E-01 -0.26409334209E+01 -0.38393670409E+01  0.46606468862E+01  0.00000000000E+00 0.  1.
<mgrwt>
<rscale>  0 0.79600307E+02</rscale>
<asrwt>0</asrwt>
<pdfrwt beam="1">  1        2 0.28901168E-01 0.79600307E+02</pdfrwt>
<pdfrwt beam="2">  1       -1 0.12972611E-02 0.79600307E+02</pdfrwt>
<totfact> 0.21874310E+05</totfact>
</mgrwt>
</event>
<event>
 8    1  0.2433467E-024  0.8087681E+02  0.7818608E-02  0.1326581E+00
         -1   -1    0    0    0  501 -0.00000000000E+00  0.00000000000E+00  0.31251693534E+02  0.31251693940E+02  0.50400000000E-02 0.  1.
          2   -1    0    0  501    0  0.00000000000E+00 -0.00000000000E+00 -0.52325626825E+02  0.52325626887E+02  0.25500000000E-02 0. -1.
         24    2    1    2    0    0  0.00000000000E+00  0.35527136788E-14 -0.21073933291E+02  0.83577320828E+02  0.80876806888E+02 0.  0.
         66    2    3    3    0    0 -0.56947218878E+01 -0.20718463547E+02 -0.45914566687E+02  0.50732948088E+02  0.19999996510E+01 0.  0.
        -13    1    3    3    0    0  0.56947218878E+01  0.20718463547E+02  0.24840633396E+02  0.32844372739E+02  0.10566000000E+00 0.  1.
         13    1    4    4    0    0 -0.33120756150E+01 -0.10195892221E+02 -0.21559817515E+02  0.24078267346E+02  0.10566000000E+00 0. -1.
        -13    1    4    4    0    0 -0.18983629555E+01 -0.71866112212E+01 -0.17598659227E+02  0.19104322374E+02  0.10566000000E+00 0.  1.
        -14    1    4    4    0    0 -0.48428331722E+00 -0.33359601044E+01 -0.67560899448E+01  0.75503583684E+01  0.00000000000E+00 0.  1.
<mgrwt>
<rscale>  0 0.80876807E+02</rscale>
<asrwt>0</asrwt>
<pdfrwt beam="1">  1        2 0.80500965E-02 0.80876807E+02</pdfrwt>
<pdfrwt beam="2">  1       -1 0.48079529E-02 0.80876807E+02</pdfrwt>
<totfact> 0.14649069E+05</totfact>
</mgrwt>
</event>
<event>
 8    1  0.2433467E-024  0.7157692E+02  0.7818608E-02  0.1354811E+00
         -1   -1    0    0    0  501 -0.00000000000E+00  0.00000000000E+00  0.17976915915E+02  0.17976916621E+02  0.50400000000E-02 0.  1.
          2   -1    0    0  501    0  0.00000000000E+00 -0.00000000000E+00 -0.71247686782E+02  0.71247686828E+02  0.25500000000E-02 0. -1.
         24    2    1    2    0    0  0.00000000000E+00  0.00000000000E+00 -0.53270770867E+02  0.89224603449E+02  0.71576915495E+02 0.  0.
         66    2    3    3    0    0  0.34119774057E+02 -0.10341389895E+01 -0.39941182203E+02  0.52578764352E+02  0.19999999704E+01 0.  0.
        -13    1    3    3    0    0 -0.34119774057E+02  0.10341389895E+01 -0.13329588664E+02  0.36645839097E+02  0.10566000000E+00 0.  1.
         13    1    4    4    0    0  0.62226164119E+01  0.13561052780E+00 -0.79760209587E+01  0.10117678567E+02  0.10566000000E+00 0. -1.
        -13    1    4    4    0    0  0.57560375046E+01 -0.88159953795E-01 -0.73227739104E+01  0.93152521012E+01  0.10566000000E+00 0.  1.
        -14    1    4    4    0    0  0.22141120140E+02 -0.10815895635E+01 -0.24642387334E+02  0.33145833683E+02  0.00000000000E+00 0.  1.
<mgrwt>
<rscale>  0 0.71576915E+02</rscale>
<asrwt>0</asrwt>
<pdfrwt beam="1">  1        2 0.10961182E-01 0.71576915E+02</pdfrwt>
<pdfrwt beam="2">  1       -1 0.27656795E-02 0.71576915E+02</pdfrwt>
<totfact> 0.21858053E+05</totfact>
</mgrwt>
</event>
<event>
 8    1  0.2433467E-024  0.7987006E+02  0.7818608E-02  0.1329421E+00
         -1   -1    0    0    0  501 -0.00000000000E+00  0.00000000000E+00  0.17803576589E+01  0.17803647927E+01  0.50400000000E-02 0.  1.
          2   -1    0    0  501    0  0.00000000000E+00 -0.00000000000E+00 -0.89577705123E+03  0.89577705124E+03  0.25500000000E-02 0. -1.
         24    2    1    2    0    0  0.00000000000E+00  0.00000000000E+00 -0.89399669357E+03  0.89755741603E+03  0.79870062901E+02 0.  0.
         66    2    3    3    0    0 -0.80004564615E+01 -0.14060220352E+02 -0.85727828369E+03  0.85743323518E+03  0.20000037062E+01 0.  0.
        -13    1    3    3    0    0  0.80004564615E+01  0.14060220352E+02 -0.36718409887E+02  0.40124180847E+02  0.10566000000E+00 0.  1.
         13    1    4    4    0    0 -0.35419782508E+01 -0.53435636718E+01 -0.33025156456E+03  0.33031379980E+03  0.10566000000E+00 0. -1.
        -13    1    4    4    0    0 -0.23879479564E+01 -0.59490150301E+01 -0.35749880178E+03  0.35755628580E+03  0.10566000000E+00 0.  1.
        -14    1    4    4    0    0 -0.20705302542E+01 -0.27676416498E+01 -0.16952791735E+03  0.16956314958E+03  0.00000000000E+00 0.  1.
<mgrwt>
<rscale>  0 0.79870063E+02</rscale>
<asrwt>0</asrwt>
<pdfrwt beam="1">  1        2 0.13781149E+00 0.79870063E+02</pdfrwt>
<pdfrwt beam="2">  1       -1 0.27390244E-03 0.79870063E+02</pdfrwt>
<totfact> 0.35075984E+05</totfact>
</mgrwt>
</event>
<event>
 8    1  0.2433467E-024  0.7859296E+02  0.7818608E-02  0.1333093E+00
         -1   -1    0    0    0  501 -0.00000000000E+00  0.00000000000E+00  0.47713386688E+01  0.47713413307E+01  0.50400000000E-02 0.  1.
          2   -1    0    0  501    0  0.00000000000E+00 -0.00000000000E+00 -0.32364350486E+03  0.32364350487E+03  0.25500000000E-02 0. -1.
         24    2    1    2    0    0  0.00000000000E+00 -0.35527136788E-14 -0.31887216619E+03  0.32841484620E+03  0.78592956641E+02 0.  0.
         66    2    3    3    0    0  0.20002827655E+02 -0.26858001695E+02 -0.24525221120E+03  0.24753608319E+03  0.20000032409E+01 0.  0.
        -13    1    3    3    0    0 -0.20002827655E+02  0.26858001695E+02 -0.73619954989E+02  0.80878763009E+02  0.10566000000E+00 0.  1.
         13    1    4    4    0    0  0.39822211413E+01 -0.60913071882E+01 -0.51088718574E+02  0.51604558306E+02  0.10566000000E+00 0. -1.
        -13    1    4    4    0    0  0.42339280289E+01 -0.45705980741E+01 -0.46013378278E+02  0.46433378704E+02  0.10566000000E+00 0.  1.
         14    1    4    4    0    0  0.11786678485E+02 -0.16196096433E+02 -0.14815011435E+03  0.14949814618E+03  0.00000000000E+00 0. -1.
<mgrwt>
<rscale>  0 0.78592957E+02</rscale>
<asrwt>0</asrwt>
<pdfrwt beam="1">  1        2 0.49791292E-01 0.78592957E+02</pdfrwt>
<pdfrwt beam="2">  1       -1 0.73405256E-03 0.78592957E+02</pdfrwt>
<totfact> 0.27448389E+05</totfact>
</mgrwt>
</event>
<event>
 8    1  0.2433467E-024  0.7816806E+02  0.7818608E-02  0.1334332E+00
          2   -1    0    0  501    0  0.00000000000E+00  0.00000000000E+00  0.62044026019E+02  0.62044026071E+02  0.25500000000E-02 0. -1.
         -1   -1    0    0    0  501 -0.00000000000E+00 -0.00000000000E+00 -0.24620605516E+02  0.24620606032E+02  0.50400000000E-02 0.  1.
         24    2    1    2    0    0  0.17763568394E-14  0.00000000000E+00  0.37423420503E+02  0.86664632103E+02  0.78168062886E+02 0.  0.
         66    2    3    3    0    0 -0.12166848851E+02  0.14577658605E+02  0.56566313826E+02  0.59701659897E+02  0.19999982953E+01 0.  0.
        -13    1    3    3    0    0  0.12166848851E+02 -0.14577658605E+02 -0.19142893323E+02  0.26962972206E+02  0.10566000000E+00 0.  1.
         13    1    4    4    0    0 -0.43249314491E+01  0.43651741336E+01  0.16401647384E+02  0.17515278422E+02  0.10566000000E+00 0. -1.
        -13    1    4    4    0    0 -0.73838899513E+00  0.13362889939E+01  0.51169718850E+01  0.53409223821E+01  0.10566000000E+00 0.  1.
         14    1    4    4    0    0 -0.71035284068E+01  0.88761954779E+01  0.35047694558E+02  0.36845459093E+02  0.00000000000E+00 0. -1.
<mgrwt>
<rscale>  0 0.78168063E+02</rscale>
<asrwt>0</asrwt>
<pdfrwt beam="1">  1        2 0.95452346E-02 0.78168063E+02</pdfrwt>
<pdfrwt beam="2">  1       -1 0.37877856E-02 0.78168063E+02</pdfrwt>
<totfact> 0.16705535E+05</totfact>
</mgrwt>
</event>
<event>
 8    1  0.2433467E-024  0.7794616E+02  0.7818608E-02  0.1334983E+00
          2   -1    0    0  501    0  0.00000000000E+00  0.00000000000E+00  0.60017056900E+03  0.60017056901E+03  0.25500000000E-02 0. -1.
         -1   -1    0    0    0  501 -0.00000000000E+00 -0.00000000000E+00 -0.25307796653E+01  0.25307846838E+01  0.50400000000E-02 0.  1.
         24    2    1    2    0    0  0.00000000000E+00 -0.71054273576E-14  0.59763978933E+03  0.60270135369E+03  0.77946160539E+02 0.  0.
         66    2    3    3    0    0  0.82587200016E+01  0.28152668380E+02  0.49707665675E+03  0.49794576199E+03  0.20000012898E+01 0.  0.
        -13    1    3    3    0    0 -0.82587200016E+01 -0.28152668380E+02  0.10056313259E+03  0.10475559170E+03  0.10566000000E+00 0.  1.
         13    1    4    4    0    0  0.26489664304E+01  0.10288657781E+02  0.17986754053E+03  0.18018106671E+03  0.10566000000E+00 0.  1.
        -13    1    4    4    0    0  0.36224626232E+01  0.12203693332E+02  0.20415862564E+03  0.20455514649E+03  0.10566000000E+00 0. -1.
         14    1    4    4    0    0  0.19872909480E+01  0.56603172672E+01  0.11305049058E+03  0.11320954879E+03  0.00000000000E+00 0. -1.
<mgrwt>
<rscale>  0 0.77946161E+02</rscale>
<asrwt>0</asrwt>
<pdfrwt beam="1">  1        2 0.92333948E-01 0.77946161E+02</pdfrwt>
<pdfrwt beam="2">  1       -1 0.38935104E-03 0.77946161E+02</pdfrwt>
<totfact> 0.34415341E+05</totfact>
</mgrwt>
</event>
<event>
 8    1  0.2433467E-024  0.8050768E+02  0.7818608E-02  0.1327617E+00
          2   -1    0    0  501    0  0.00000000000E+00  0.00000000000E+00  0.52669128051E+03  0.52669128052E+03  0.25500000000E-02 0. -1.
         -1   -1    0    0    0  501 -0.00000000000E+00 -0.00000000000E+00 -0.30765093939E+01  0.30765135222E+01  0.50400000000E-02 0.  1.
         24    2    1    2    0    0  0.00000000000E+00 -0.35527136788E-14  0.52361477112E+03  0.52976779404E+03  0.80507683294E+02 0.  0.
         66    2    3    3    0    0  0.10111187541E+02  0.16245584930E+02  0.49482432557E+03  0.49519821113E+03  0.19999986865E+01 0.  0.
        -13    1    3    3    0    0 -0.10111187541E+02 -0.16245584930E+02  0.28790445549E+02  0.34569582904E+02  0.10566000000E+00 0.  1.
         13    1    4    4    0    0  0.28459502749E+01  0.41807539026E+01  0.12567890333E+03  0.12578066641E+03  0.10566000000E+00 0. -1.
        -13    1    4    4    0    0  0.44784301121E+01  0.81814322977E+01  0.26076955842E+03  0.26093632544E+03  0.10566000000E+00 0.  1.
        -14    1    4    4    0    0  0.27868071541E+01  0.38833987294E+01  0.10837586381E+03  0.10848121928E+03  0.00000000000E+00 0.  1.
<mgrwt>
<rscale>  0 0.80507683E+02</rscale>
<asrwt>0</asrwt>
<pdfrwt beam="1">  1        2 0.81029298E-01 0.80507683E+02</pdfrwt>
<pdfrwt beam="2">  1       -1 0.47331021E-03 0.80507683E+02</pdfrwt>
<totfact> 0.30446185E+05</totfact>
</mgrwt>
</event>
<event>
 8    1  0.2433467E-024  0.8144522E+02  0.7818608E-02  0.1324999E+00
          2   -1    0    0  501    0  0.00000000000E+00  0.00000000000E+00  0.73309307711E+03  0.73309307711E+03  0.25500000000E-02 0. -1.
         -1   -1    0    0    0  501 -0.00000000000E+00 -0.00000000000E+00 -0.22620985860E+01  0.22621042006E+01  0.50400000000E-02 0.  1.
         24    2    1    2    0    0  0.00000000000E+00  0.00000000000E+00  0.73083097852E+03  0.73535518131E+03  0.81445217885E+02 0.  0.
         66    2    3    3    0    0  0.31793207638E+02 -0.60462182694E+01  0.58844094716E+03  0.58933361783E+03  0.20000001020E+01 0.  0.
        -13    1    3    3    0    0 -0.31793207638E+02  0.60462182694E+01  0.14239003135E+03  0.14602156348E+03  0.10566000000E+00 0.  1.
         13    1    4    4    0    0  0.10099110410E+02 -0.19076782723E+01  0.19873134379E+03  0.19899695836E+03  0.10566000000E+00 0. -1.
        -13    1    4    4    0    0  0.19733969728E+01 -0.21414989582E+00  0.30470750867E+02  0.30535519943E+02  0.10566000000E+00 0.  1.
         14    1    4    4    0    0  0.19720700255E+02 -0.39243901013E+01  0.35923885251E+03  0.35980113953E+03  0.00000000000E+00 0. -1.
<mgrwt>
<rscale>  0 0.81445218E+02</rscale>
<asrwt>0</asrwt>
<pdfrwt beam="1">  1        2 0.11278359E+00 0.81445218E+02</pdfrwt>
<pdfrwt beam="2">  1       -1 0.34801548E-03 0.81445218E+02</pdfrwt>
<totfact> 0.32255715E+05</totfact>
</mgrwt>
</event>
<event>
 8    1  0.2433467E-024  0.8775928E+02  0.7818608E-02  0.1308370E+00
          2   -1    0    0  501    0  0.00000000000E+00  0.00000000000E+00  0.17991026391E+03  0.17991026393E+03  0.25500000000E-02 0. -1.
         -1   -1    0    0    0  501 -0.00000000000E+00 -0.00000000000E+00 -0.10702127420E+02  0.10702128607E+02  0.50400000000E-02 0.  1.
         24    2    1    2    0    0  0.00000000000E+00  0.00000000000E+00  0.16920813649E+03  0.19061239254E+03  0.87759277194E+02 0.  0.
         66    2    3    3    0    0  0.12607720596E+02 -0.24196282800E+02  0.15922671018E+03  0.16155977208E+03  0.20000001908E+01 0.  0.
        -13    1    3    3    0    0 -0.12607720596E+02  0.24196282800E+02  0.99814263117E+01  0.29052620454E+02  0.10566000000E+00 0.  1.
         13    1    4    4    0    0  0.64508356971E+01 -0.11132127709E+02  0.73221134334E+02  0.74343010604E+02  0.10566000000E+00 0. -1.
        -13    1    4    4    0    0  0.11850092148E+01 -0.34764213165E+01  0.23277620677E+02  0.23565834176E+02  0.10566000000E+00 0.  1.
        -14    1    4    4    0    0  0.49718756843E+01 -0.95877337745E+01  0.62727955170E+02  0.63650927303E+02  0.00000000000E+00 0.  1.
<mgrwt>
<rscale>  0 0.87759277E+02</rscale>
<asrwt>0</asrwt>
<pdfrwt beam="1">  1        2 0.27678501E-01 0.87759277E+02</pdfrwt>
<pdfrwt beam="2">  1       -1 0.16464813E-02 0.87759277E+02</pdfrwt>
<totfact> 0.16632853E+05</totfact>
</mgrwt>
</event>
<event>
 8    1  0.2433467E-024  0.7956894E+02  0.7818608E-02  0.1330279E+00
          2   -1    0    0  501    0  0.00000000000E+00  0.00000000000E+00  0.74253875335E+02  0.74253875379E+02  0.25500000000E-02 0. -1.
         -1   -1    0    0    0  501 -0.00000000000E+00 -0.00000000000E+00 -0.21316113190E+02  0.21316113786E+02  0.50400000000E-02 0.  1.
         24    2    1    2    0    0  0.35527136788E-14 -0.35527136788E-14  0.52937762145E+02  0.95569989164E+02  0.79568939719E+02 0.  0.
         66    2    3    3    0    0 -0.27967635725E+02  0.22629809696E+02  0.61553449658E+01  0.36553867163E+02  0.19999995026E+01 0.  0.
        -13    1    3    3    0    0  0.27967635725E+02 -0.22629809696E+02  0.46782417179E+02  0.59016122001E+02  0.10566000000E+00 0.  1.
         13    1    4    4    0    0 -0.11951154733E+02  0.10115528752E+02  0.29308257765E+01  0.15929686913E+02  0.10566000000E+00 0. -1.
        -13    1    4    4    0    0 -0.11349296573E+02  0.95358685014E+01  0.20594044345E+01  0.14966349971E+02  0.10566000000E+00 0.  1.
         14    1    4    4    0    0 -0.46671844188E+01  0.29784124419E+01  0.11651147547E+01  0.56578302789E+01  0.00000000000E+00 0. -1.
<mgrwt>
<rscale>  0 0.79568940E+02</rscale>
<asrwt>0</asrwt>
<pdfrwt beam="1">  1        2 0.11423673E-01 0.79568940E+02</pdfrwt>
<pdfrwt beam="2">  1       -1 0.32794020E-02 0.79568940E+02</pdfrwt>
<totfact> 0.16624280E+05</totfact>
</mgrwt>
</event>
<event>
 8    1  0.2433467E-024  0.7905431E+02  0.7818608E-02  0.1331757E+00
         -1   -1    0    0    0  501 -0.00000000000E+00  0.00000000000E+00  0.49998675277E+01  0.49998700679E+01  0.50400000000E-02 0.  1.
          2   -1    0    0  501    0  0.00000000000E+00 -0.00000000000E+00 -0.31248737265E+03  0.31248737266E+03  0.25500000000E-02 0. -1.
         24    2    1    2    0    0  0.17763568394E-14  0.00000000000E+00 -0.30748750513E+03  0.31748724273E+03  0.79054307213E+02 0.  0.
         66    2    3    3    0    0 -0.90406061350E+01 -0.37455843890E+02 -0.11889562334E+03  0.12499936820E+03  0.20000002802E+01 0.  0.
        -13    1    3    3    0    0  0.90406061350E+01  0.37455843890E+02 -0.18859188179E+03  0.19248787453E+03  0.10566000000E+00 0.  1.
         13    1    4    4    0    0 -0.31040463704E+01 -0.10573806609E+02 -0.34870740015E+02  0.36570755575E+02  0.10566000000E+00 0. -1.
        -13    1    4    4    0    0 -0.96830562453E-01 -0.17419984952E+01 -0.51831691854E+01  0.54699489719E+01  0.10566000000E+00 0.  1.
        -14    1    4    4    0    0 -0.58397292022E+01 -0.25140038786E+02 -0.78841714136E+02  0.82958663654E+02  0.00000000000E+00 0.  1.
<mgrwt>
<rscale>  0 0.79054307E+02</rscale>
<asrwt>0</asrwt>
<pdfrwt beam="1">  1        2 0.48074965E-01 0.79054307E+02</pdfrwt>
<pdfrwt beam="2">  1       -1 0.76921083E-03 0.79054307E+02</pdfrwt>
<totfact> 0.26691780E+05</totfact>
</mgrwt>
</event>
<event>
 8    1  0.2433467E-024  0.8059508E+02  0.7818608E-02  0.1327371E+00
          2   -1    0    0  501    0  0.00000000000E+00  0.00000000000E+00  0.15522285868E+02  0.15522286077E+02  0.25500000000E-02 0. -1.
         -1   -1    0    0    0  501 -0.00000000000E+00 -0.00000000000E+00 -0.10461678642E+03  0.10461678654E+03  0.50400000000E-02 0.  1.
         24    2    1    2    0    0  0.00000000000E+00 -0.35527136788E-14 -0.89094500552E+02  0.12013907262E+03  0.80595078888E+02 0.  0.
         66    2    3    3    0    0 -0.21043446598E+02  0.30104298435E+02 -0.69194773095E+02  0.78364609775E+02  0.20000031165E+01 0.  0.
        -13    1    3    3    0    0  0.21043446598E+02 -0.30104298435E+02 -0.19899727457E+02  0.41774462844E+02  0.10566000000E+00 0.  1.
         13    1    4    4    0    0 -0.19158318673E+02  0.27463283349E+02 -0.63512717072E+02  0.71799369778E+02  0.10566000000E+00 0. -1.
        -13    1    4    4    0    0 -0.56682872782E+00  0.12220676320E+01 -0.24050668676E+01  0.27586690228E+01  0.10566000000E+00 0.  1.
         14    1    4    4    0    0 -0.13182991971E+01  0.14189474542E+01 -0.32769891553E+01  0.38065709733E+01  0.00000000000E+00 0. -1.
<mgrwt>
<rscale>  0 0.80595079E+02</rscale>
<asrwt>0</asrwt>
<pdfrwt beam="1">  1        2 0.23880441E-02 0.80595079E+02</pdfrwt>
<pdfrwt beam="2">  1       -1 0.16094890E-01 0.80595079E+02</pdfrwt>
<totfact> 0.11522862E+05</totfact>
</mgrwt>
</event>
<event>
 8    1  0.2433467E-024  0.8953812E+02  0.7818608E-02  0.1303974E+00
          2   -1    0    0  501    0  0.00000000000E+00  0.00000000000E+00  0.48483522265E+03  0.48483522266E+03  0.25500000000E-02 0. -1.
         -1   -1    0    0    0  501 -0.00000000000E+00 -0.00000000000E+00 -0.41339160246E+01  0.41339190969E+01  0.50400000000E-02 0.  1.
         24    2    1    2    0    0 -0.35527136788E-14  0.00000000000E+00  0.48070130662E+03  0.48896914175E+03  0.89538122584E+02 0.  0.
         66    2    3    3    0    0  0.20857776358E+02  0.13274928611E+02  0.44414441564E+03  0.44483652336E+03  0.20000002072E+01 0.  0.
        -13    1    3    3    0    0 -0.20857776358E+02 -0.13274928611E+02  0.36556890979E+02  0.44132618394E+02  0.10566000000E+00 0.  1.
         13    1    4    4    0    0  0.61483512723E+01  0.31006072205E+01  0.11406397062E+03  0.11427167867E+03  0.10566000000E+00 0. -1.
        -13    1    4    4    0    0  0.54041012530E+01  0.38684659367E+01  0.12060693662E+03  0.12078995680E+03  0.10566000000E+00 0.  1.
         14    1    4    4    0    0  0.93053238323E+01  0.63058554536E+01  0.20947350841E+03  0.20977488790E+03  0.00000000000E+00 0. -1.
<mgrwt>
<rscale>  0 0.89538123E+02</rscale>
<asrwt>0</asrwt>
<pdfrwt beam="1">  1        2 0.74590006E-01 0.89538123E+02</pdfrwt>
<pdfrwt beam="2">  1       -1 0.63598756E-03 0.89538123E+02</pdfrwt>
<totfact> 0.22442930E+05</totfact>
</mgrwt>
</event>
<event>
 8    1  0.2433467E-024  0.8021621E+02  0.7818608E-02  0.1328439E+00
         -1   -1    0    0    0  501 -0.00000000000E+00  0.00000000000E+00  0.16114548932E+01  0.16114627748E+01  0.50400000000E-02 0.  1.
          2   -1    0    0  501    0  0.00000000000E+00 -0.00000000000E+00 -0.99826313715E+03  0.99826313715E+03  0.25500000000E-02 0. -1.
         24    2    1    2    0    0  0.00000000000E+00  0.00000000000E+00 -0.99665168226E+03  0.99987459993E+03  0.80216206817E+02 0.  0.
         66    2    3    3    0    0  0.21451973045E+02  0.22233487003E+02 -0.81694733291E+03  0.81753376679E+03  0.19999996887E+01 0.  0.
        -13    1    3    3    0    0 -0.21451973045E+02 -0.22233487003E+02 -0.17970434935E+03  0.18234083314E+03  0.10566000000E+00 0.  1.
         13    1    4    4    0    0  0.96341645920E+01  0.97187496441E+01 -0.35081386755E+03  0.35108069165E+03  0.10566000000E+00 0. -1.
        -13    1    4    4    0    0  0.28339398112E+01  0.34690183774E+01 -0.13469025750E+03  0.13476476517E+03  0.10566000000E+00 0.  1.
        -14    1    4    4    0    0  0.89838686417E+01  0.90457189819E+01 -0.33144320787E+03  0.33168830997E+03  0.00000000000E+00 0.  1.
<mgrwt>
<rscale>  0 0.80216207E+02</rscale>
<asrwt>0</asrwt>
<pdfrwt beam="1">  1        2 0.15357845E+00 0.80216207E+02</pdfrwt>
<pdfrwt beam="2">  1       -1 0.24791754E-03 0.80216207E+02</pdfrwt>
<totfact> 0.34982558E+05</totfact>
</mgrwt>
</event>
<event>
 8    1  0.2433467E-024  0.8023575E+02  0.7818608E-02  0.1328384E+00
         -1   -1    0    0    0  501 -0.00000000000E+00  0.00000000000E+00  0.53644617770E+01  0.53644641445E+01  0.50400000000E-02 0.  1.
          2   -1    0    0  501    0  0.00000000000E+00 -0.00000000000E+00 -0.30001954468E+03  0.30001954470E+03  0.25500000000E-02 0. -1.
         24    2    1    2    0    0  0.00000000000E+00 -0.35527136788E-14 -0.29465508291E+03  0.30538400884E+03  0.80235746222E+02 0.  0.
         66    2    3    3    0    0 -0.15159752668E+02  0.28497863160E+02 -0.23792783454E+03  0.24011580695E+03  0.19999990610E+01 0.  0.
        -13    1    3    3    0    0  0.15159752668E+02 -0.28497863160E+02 -0.56727248373E+02  0.65268201888E+02  0.10566000000E+00 0.  1.
         13    1    4    4    0    0 -0.76759553587E+01  0.14571365730E+02 -0.11706886224E+03  0.11822171822E+03  0.10566000000E+00 0. -1.
        -13    1    4    4    0    0 -0.42381912067E+01  0.88538523892E+01 -0.72475629804E+02  0.73137412084E+02  0.10566000000E+00 0.  1.
        -14    1    4    4    0    0 -0.32456061029E+01  0.50726450413E+01 -0.48383342496E+02  0.48756676648E+02  0.00000000000E+00 0.  1.
<mgrwt>
<rscale>  0 0.80235746E+02</rscale>
<asrwt>0</asrwt>
<pdfrwt beam="1">  1        2 0.46156840E-01 0.80235746E+02</pdfrwt>
<pdfrwt beam="2">  1       -1 0.82530223E-03 0.80235746E+02</pdfrwt>
<totfact> 0.25299132E+05</totfact>
</mgrwt>
</event>
<event>
 8    1  0.2433467E-024  0.6948148E+02  0.7818608E-02  0.1361865E+00
         -1   -1    0    0    0  501 -0.00000000000E+00  0.00000000000E+00  0.10606566821E+02  0.10606568018E+02  0.50400000000E-02 0.  1.
          2   -1    0    0  501    0  0.00000000000E+00 -0.00000000000E+00 -0.11378978322E+03  0.11378978325E+03  0.25500000000E-02 0. -1.
         24    2    1    2    0    0  0.00000000000E+00  0.00000000000E+00 -0.10318321640E+03  0.12439635126E+03  0.69481479992E+02 0.  0.
         66    2    3    3    0    0 -0.23680263880E+02  0.10847805791E+02 -0.92714323276E+02  0.96324324706E+02  0.20000004051E+01 0.  0.
        -13    1    3    3    0    0  0.23680263880E+02 -0.10847805791E+02 -0.10468893121E+02  0.28072026558E+02  0.10566000000E+00 0.  1.
         13    1    4    4    0    0 -0.14261849494E+02  0.64854148728E+01 -0.52514456997E+02  0.54801827659E+02  0.10566000000E+00 0. -1.
        -13    1    4    4    0    0 -0.53674255747E+00  0.29317029638E+00 -0.27702249933E+01  0.28388997772E+01  0.10566000000E+00 0.  1.
        -14    1    4    4    0    0 -0.88816718282E+01  0.40692206222E+01 -0.37429641286E+02  0.38683597270E+02  0.00000000000E+00 0.  1.
<mgrwt>
<rscale>  0 0.69481480E+02</rscale>
<asrwt>0</asrwt>
<pdfrwt beam="1">  1        2 0.17506120E-01 0.69481480E+02</pdfrwt>
<pdfrwt beam="2">  1       -1 0.16317797E-02 0.69481480E+02</pdfrwt>
<totfact> 0.26708909E+05</totfact>
</mgrwt>
</event>
<event>
 8    1  0.2433467E-024  0.8000749E+02  0.7818608E-02  0.1329030E+00
         -1   -1    0    0    0  501 -0.00000000000E+00  0.00000000000E+00  0.76958139211E+02  0.76958139376E+02  0.50400000000E-02 0.  1.
          2   -1    0    0  501    0  0.00000000000E+00 -0.00000000000E+00 -0.20794418450E+02  0.20794418607E+02  0.25500000000E-02 0. -1.
         24    2    1    2    0    0  0.35527136788E-14 -0.17763568394E-14  0.56163720760E+02  0.97752557983E+02  0.80007493790E+02 0.  0.
         66    2    3    3    0    0 -0.25933058057E+02  0.80871162900E+01 -0.77383346985E+01  0.28316192827E+02  0.20000005693E+01 0.  0.
        -13    1    3    3    0    0  0.25933058057E+02 -0.80871162900E+01  0.63902055459E+02  0.69436365155E+02  0.10566000000E+00 0.  1.
         13    1    4    4    0    0 -0.11647916921E+02  0.41430709595E+01 -0.33566177345E+01  0.12810817781E+02  0.10566000000E+00 0. -1.
        -13    1    4    4    0    0 -0.15830168772E+01  0.75906054502E+00 -0.77841397766E+00  0.19233324467E+01  0.10566000000E+00 0.  1.
        -14    1    4    4    0    0 -0.12702124258E+02  0.31849847855E+01 -0.36033029863E+01  0.13582042599E+02  0.00000000000E+00 0.  1.
<mgrwt>
<rscale>  0 0.80007494E+02</rscale>
<asrwt>0</asrwt>
<pdfrwt beam="1">  1        2 0.31991413E-02 0.80007494E+02</pdfrwt>
<pdfrwt beam="2">  1       -1 0.11839714E-01 0.80007494E+02</pdfrwt>
<totfact> 0.12510272E+05</totfact>
</mgrwt>
</event>
<event>
 8    1  0.2433467E-024  0.7752526E+02  0.7818608E-02  0.1336225E+00
         -1   -1    0    0    0  501 -0.00000000000E+00  0.00000000000E+00  0.13903462003E+02  0.13903462917E+02  0.50400000000E-02 0.  1.
          2   -1    0    0  501    0  0.00000000000E+00 -0.00000000000E+00 -0.10806958987E+03  0.10806958990E+03  0.25500000000E-02 0. -1.
         24    2    1    2    0    0  0.35527136788E-14  0.35527136788E-14 -0.94166127866E+02  0.12197305282E+03  0.77525260244E+02 0.  0.
         66    2    3    3    0    0  0.21982251631E+02 -0.20087364659E+02 -0.86094093532E+02  0.91120329953E+02  0.19999959657E+01 0.  0.
        -13    1    3    3    0    0 -0.21982251631E+02  0.20087364659E+02 -0.80720343336E+01  0.30852722863E+02  0.10566000000E+00 0.  1.
         13    1    4    4    0    0  0.68616197840E+01 -0.60105652797E+01 -0.28009993662E+02  0.29458099566E+02  0.10566000000E+00 0. -1.
        -13    1    4    4    0    0  0.26708539721E+01 -0.21627331399E+01 -0.84968211086E+01  0.91661337849E+01  0.10566000000E+00 0.  1.
        -14    1    4    4    0    0  0.12449777875E+02 -0.11914066240E+02 -0.49587278761E+02  0.52496096602E+02  0.00000000000E+00 0.  1.
<mgrwt>
<rscale>  0 0.77525260E+02</rscale>
<asrwt>0</asrwt>
<pdfrwt beam="1">  1        2 0.16626090E-01 0.77525260E+02</pdfrwt>
<pdfrwt beam="2">  1       -1 0.21389943E-02 0.77525260E+02</pdfrwt>
<totfact> 0.19705965E+05</totfact>
</mgrwt>
</event>
<event>
 8    1  0.2433467E-024  0.8103901E+02  0.7818608E-02  0.1326128E+00
          2   -1    0    0  501    0  0.00000000000E+00  0.00000000000E+00  0.85045349245E+02  0.85045349283E+02  0.25500000000E-02 0. -1.
         -1   -1    0    0    0  501 -0.00000000000E+00 -0.00000000000E+00 -0.19305350792E+02  0.19305351450E+02  0.50400000000E-02 0.  1.
         24    2    1    2    0    0  0.00000000000E+00  0.00000000000E+00  0.65739998453E+02  0.10435070073E+03  0.81039011266E+02 0.  0.
         66    2    3    3    0    0  0.13815811212E+02  0.36737811589E+02  0.45720249231E+02  0.60290004384E+02  0.19999997574E+01 0.  0.
        -13    1    3    3    0    0 -0.13815811212E+02 -0.36737811589E+02  0.20019749221E+02  0.44060696349E+02  0.10566000000E+00 0.  1.
         13    1    4    4    0    0  0.95091450112E+01  0.25132770545E+02  0.31387734188E+02  0.41319257201E+02  0.10566000000E+00 0. -1.
        -13    1    4    4    0    0  0.24510301210E+01  0.80848913320E+01  0.96809694943E+01  0.12849332702E+02  0.10566000000E+00 0.  1.
         14    1    4    4    0    0  0.18556360799E+01  0.35201497123E+01  0.46515455487E+01  0.61214144811E+01  0.00000000000E+00 0. -1.
<mgrwt>
<rscale>  0 0.81039011E+02</rscale>
<asrwt>0</asrwt>
<pdfrwt beam="1">  1        2 0.13083900E-01 0.81039011E+02</pdfrwt>
<pdfrwt beam="2">  1       -1 0.29700541E-02 0.81039011E+02</pdfrwt>
<totfact> 0.16383843E+05</totfact>
</mgrwt>
</event>
<event>
 8    1  0.2433467E-024  0.7719138E+02  0.7818608E-02  0.1337216E+00
          2   -1    0    0  501    0  0.00000000000E+00  0.00000000000E+00  0.22854082546E+03  0.22854082548E+03  0.25500000000E-02 0. -1.
         -1   -1    0    0    0  501 -0.00000000000E+00 -0.00000000000E+00 -0.65179904227E+01  0.65179923713E+01  0.50400000000E-02 0.  1.
         24    2    1    2    0    0  0.00000000000E+00  0.00000000000E+00  0.22202283504E+03  0.23505881785E+03  0.77191376260E+02 0.  0.
         66    2    3    3    0    0 -0.37287335874E+02 -0.85083907031E+01  0.95895342121E+02  0.10326013135E+03  0.19999891853E+01 0.  0.
        -13    1    3    3    0    0  0.37287335874E+02  0.85083907031E+01  0.12612749292E+03  0.13179868650E+03  0.10566000000E+00 0.  1.
         13    1    4    4    0    0 -0.78024716028E+01 -0.20787514028E+01  0.19860940426E+02  0.21439866818E+02  0.10566000000E+00 0. -1.
        -13    1    4    4    0    0 -0.20600901544E+02 -0.45797694943E+01  0.51134955173E+02  0.55318769307E+02  0.10566000000E+00 0.  1.
         14    1    4    4    0    0 -0.88839627274E+01 -0.18498698060E+01  0.24899446522E+02  0.26501495224E+02  0.00000000000E+00 0. -1.
<mgrwt>
<rscale>  0 0.77191376E+02</rscale>
<asrwt>0</asrwt>
<pdfrwt beam="1">  1        2 0.35160121E-01 0.77191376E+02</pdfrwt>
<pdfrwt beam="2">  1       -1 0.10027681E-02 0.77191376E+02</pdfrwt>
<totfact> 0.25392988E+05</totfact>
</mgrwt>
</event>
<event>
 8    1  0.2433467E-024  0.8490126E+02  0.7818608E-02  0.1315691E+00
         -1   -1    0    0    0  501 -0.00000000000E+00  0.00000000000E+00  0.43013293529E+01  0.43013323056E+01  0.50400000000E-02 0.  1.
          2   -1    0    0  501    0  0.00000000000E+00 -0.00000000000E+00 -0.41895309462E+03  0.41895309463E+03  0.25500000000E-02 0. -1.
         24    2    1    2    0    0  0.00000000000E+00  0.00000000000E+00 -0.41465176527E+03  0.42325442694E+03  0.84901257232E+02 0.  0.
         66    2    3    3    0    0  0.23138803606E+02 -0.28302934114E+01 -0.38416323238E+03  0.38487504973E+03  0.19999991409E+01 0.  0.
        -13    1    3    3    0    0 -0.23138803606E+02  0.28302934114E+01 -0.30488532888E+02  0.38379377207E+02  0.10566000000E+00 0.  1.
         13    1    4    4    0    0  0.11600831485E+02 -0.13949790680E+01 -0.18728098372E+03  0.18764515257E+03  0.10566000000E+00 0. -1.
        -13    1    4    4    0    0  0.90571288885E+01 -0.81153035478E+00 -0.16094585716E+03  0.16120257525E+03  0.10566000000E+00 0.  1.
         14    1    4    4    0    0  0.24808432322E+01 -0.62378398858E+00 -0.35936391504E+02  0.36027321909E+02  0.00000000000E+00 0. -1.
<mgrwt>
<rscale>  0 0.84901257E+02</rscale>
<asrwt>0</asrwt>
<pdfrwt beam="1">  1        2 0.64454290E-01 0.84901257E+02</pdfrwt>
<pdfrwt beam="2">  1       -1 0.66174354E-03 0.84901257E+02</pdfrwt>
<totfact> 0.24571650E+05</totfact>
</mgrwt>
</event>
<event>
 8    1  0.2433467E-024  0.8639064E+02  0.7818608E-02  0.1311835E+00
          2   -1    0    0  501    0  0.00000000000E+00  0.00000000000E+00  0.84198175155E+02  0.84198175194E+02  0.25500000000E-02 0. -1.
         -1   -1    0    0    0  501 -0.00000000000E+00 -0.00000000000E+00 -0.22160046757E+02  0.22160047330E+02  0.50400000000E-02 0.  1.
         24    2    1    2    0    0  0.00000000000E+00  0.00000000000E+00  0.62038128398E+02  0.10635822252E+03  0.86390636780E+02 0.  0.
         66    2    3    3    0    0 -0.32995271982E+02  0.14202351425E+02  0.60516951879E+02  0.70403808314E+02  0.20000003207E+01 0.  0.
        -13    1    3    3    0    0  0.32995271982E+02 -0.14202351425E+02  0.15211765193E+01  0.35954414210E+02  0.10566000000E+00 0.  1.
         13    1    4    4    0    0 -0.27023032200E+02  0.11237519104E+02  0.50179798051E+02  0.58090871929E+02  0.10566000000E+00 0. -1.
        -13    1    4    4    0    0 -0.55862375278E+01  0.29098042167E+01  0.97579972420E+01  0.11614761492E+02  0.10566000000E+00 0.  1.
         14    1    4    4    0    0 -0.38600225345E+00  0.55028104274E-01  0.57915658521E+00  0.69817489365E+00  0.00000000000E+00 0. -1.
<mgrwt>
<rscale>  0 0.86390637E+02</rscale>
<asrwt>0</asrwt>
<pdfrwt beam="1">  1        2 0.12953565E-01 0.86390637E+02</pdfrwt>
<pdfrwt beam="2">  1       -1 0.34092381E-02 0.86390637E+02</pdfrwt>
<totfact> 0.13743215E+05</totfact>
</mgrwt>
</event>
<event>
 8    1  0.2433467E-024  0.7992444E+02  0.7818608E-02  0.1329266E+00
          2   -1    0    0  501    0  0.00000000000E+00  0.00000000000E+00  0.14480523571E+03  0.14480523573E+03  0.25500000000E-02 0. -1.
         -1   -1    0    0    0  501 -0.00000000000E+00 -0.00000000000E+00 -0.11028461726E+02  0.11028462878E+02  0.50400000000E-02 0.  1.
         24    2    1    2    0    0 -0.71054273576E-14 -0.17763568394E-14  0.13377677399E+03  0.15583369861E+03  0.79924441599E+02 0.  0.
         66    2    3    3    0    0 -0.35024706982E+02 -0.11522702072E+02  0.96849412602E+02  0.10364994688E+03  0.20000010555E+01 0.  0.
        -13    1    3    3    0    0  0.35024706982E+02  0.11522702072E+02  0.36927361384E+02  0.52183751734E+02  0.10566000000E+00 0.  1.
         13    1    4    4    0    0 -0.44567578554E+01 -0.16130180940E+01  0.12190835659E+02  0.13080220031E+02  0.10566000000E+00 0. -1.
        -13    1    4    4    0    0 -0.19145833575E+02 -0.63244964067E+01  0.55494129173E+02  0.59043811994E+02  0.10566000000E+00 0.  1.
        -14    1    4    4    0    0 -0.11422115552E+02 -0.35851875718E+01  0.29164447770E+02  0.31525914854E+02  0.00000000000E+00 0.  1.
<mgrwt>
<rscale>  0 0.79924442E+02</rscale>
<asrwt>0</asrwt>
<pdfrwt beam="1">  1        2 0.22277728E-01 0.79924442E+02</pdfrwt>
<pdfrwt beam="2">  1       -1 0.16966866E-02 0.79924442E+02</pdfrwt>
<totfact> 0.19854755E+05</totfact>
</mgrwt>
</event>
<event>
 8    1  0.2433467E-024  0.8113504E+02  0.7818608E-02  0.1325861E+00
          2   -1    0    0  501    0  0.00000000000E+00  0.00000000000E+00  0.18793851745E+02  0.18793851918E+02  0.25500000000E-02 0. -1.
         -1   -1    0    0    0  501 -0.00000000000E+00 -0.00000000000E+00 -0.87567127849E+02  0.87567127994E+02  0.50400000000E-02 0.  1.
         24    2    1    2    0    0 -0.35527136788E-14  0.35527136788E-14 -0.68773276104E+02  0.10636097991E+03  0.81135038927E+02 0.  0.
         66    2    3    3    0    0  0.29137115466E+02 -0.25805426417E+02 -0.19528344503E+02  0.43591831577E+02  0.20000027571E+01 0.  0.
        -13    1    3    3    0    0 -0.29137115466E+02  0.25805426417E+02 -0.49244931601E+02  0.62769148335E+02  0.10566000000E+00 0.  1.
         13    1    4    4    0    0  0.11960503722E+02 -0.10192564360E+02 -0.72191155247E+01  0.17293606058E+02  0.10566000000E+00 0. -1.
        -13    1    4    4    0    0  0.90022687022E+01 -0.88489353159E+01 -0.63884435944E+01  0.14148069607E+02  0.10566000000E+00 0.  1.
        -14    1    4    4    0    0  0.81743430419E+01 -0.67639267405E+01 -0.59207853835E+01  0.12150155912E+02  0.00000000000E+00 0.  1.
<mgrwt>
<rscale>  0 0.81135039E+02</rscale>
<asrwt>0</asrwt>
<pdfrwt beam="1">  1        2 0.28913619E-02 0.81135039E+02</pdfrwt>
<pdfrwt beam="2">  1       -1 0.13471866E-01 0.81135039E+02</pdfrwt>
<totfact> 0.11770400E+05</totfact>
</mgrwt>
</event>
<event>
 8    1  0.2433467E-024  0.7923440E+02  0.7818608E-02  0.1331238E+00
         -1   -1    0    0    0  501 -0.00000000000E+00  0.00000000000E+00  0.21968214617E+02  0.21968215195E+02  0.50400000000E-02 0.  1.
          2   -1    0    0  501    0  0.00000000000E+00 -0.00000000000E+00 -0.71445157884E+02  0.71445157930E+02  0.25500000000E-02 0. -1.
         24    2    1    2    0    0  0.44408920985E-15  0.00000000000E+00 -0.49476943267E+02  0.93413373125E+02  0.79234401390E+02 0.  0.
         66    2    3    3    0    0 -0.38452393211E+01  0.21301818495E+02 -0.63837115127E+02  0.67436863803E+02  0.19999988036E+01 0.  0.
        -13    1    3    3    0    0  0.38452393211E+01 -0.21301818495E+02  0.14360171861E+02  0.25976509322E+02  0.10566000000E+00 0.  1.
         13    1    4    4    0    0 -0.16200026339E+01  0.64279726616E+01 -0.21769695896E+02  0.22756846542E+02  0.10566000000E+00 0. -1.
        -13    1    4    4    0    0 -0.28223869093E+00  0.32995943480E+01 -0.87966330030E+01  0.93999413703E+01  0.10566000000E+00 0.  1.
         14    1    4    4    0    0 -0.19429979964E+01  0.11574251485E+02 -0.33270786228E+02  0.35280075891E+02  0.00000000000E+00 0. -1.
<mgrwt>
<rscale>  0 0.79234401E+02</rscale>
<asrwt>0</asrwt>
<pdfrwt beam="1">  1        2 0.10991563E-01 0.79234401E+02</pdfrwt>
<pdfrwt beam="2">  1       -1 0.33797254E-02 0.79234401E+02</pdfrwt>
<totfact> 0.16654990E+05</totfact>
</mgrwt>
</event>
<event>
 8    1  0.2433467E-024  0.7488086E+02  0.7818608E-02  0.1344240E+00
          2   -1    0    0  501    0  0.00000000000E+00  0.00000000000E+00  0.21641496678E+03  0.21641496680E+03  0.25500000000E-02 0. -1.
         -1   -1    0    0    0  501 -0.00000000000E+00 -0.00000000000E+00 -0.64773034906E+01  0.64773054514E+01  0.50400000000E-02 0.  1.
         24    2    1    2    0    0  0.17763568394E-14  0.00000000000E+00  0.20993766329E+03  0.22289227225E+03  0.74880855763E+02 0.  0.
         66    2    3    3    0    0 -0.65941610689E+01 -0.82078607826E+01  0.21190929012E+03  0.21218011023E+03  0.19999995609E+01 0.  0.
        -13    1    3    3    0    0  0.65941610689E+01  0.82078607826E+01 -0.19716268263E+01  0.10712162023E+02  0.10566000000E+00 0.  1.
         13    1    4    4    0    0 -0.11130640268E+00  0.33597067734E-01  0.16519956970E+01  0.16594492149E+01  0.10566000000E+00 0. -1.
        -13    1    4    4    0    0 -0.16145170499E+01 -0.17471598541E+01  0.41426888588E+02  0.41495270754E+02  0.10566000000E+00 0.  1.
         14    1    4    4    0    0 -0.48683376164E+01 -0.64942979963E+01  0.16883040583E+03  0.16902539026E+03  0.00000000000E+00 0. -1.
<mgrwt>
<rscale>  0 0.74880856E+02</rscale>
<asrwt>0</asrwt>
<pdfrwt beam="1">  1        2 0.33294608E-01 0.74880856E+02</pdfrwt>
<pdfrwt beam="2">  1       -1 0.99650844E-03 0.74880856E+02</pdfrwt>
<totfact> 0.26975281E+05</totfact>
</mgrwt>
</event>
<event>
 8    1  0.2433467E-024  0.7569204E+02  0.7818608E-02  0.1341741E+00
          2   -1    0    0  501    0  0.00000000000E+00  0.00000000000E+00  0.68401882873E+02  0.68401882921E+02  0.25500000000E-02 0. -1.
         -1   -1    0    0    0  501 -0.00000000000E+00 -0.00000000000E+00 -0.20939790983E+02  0.20939791589E+02  0.50400000000E-02 0.  1.
         24    2    1    2    0    0  0.00000000000E+00 -0.17763568394E-14  0.47462091890E+02  0.89341674510E+02  0.75692038139E+02 0.  0.
         66    2    3    3    0    0  0.26571889377E+02  0.14427684700E+02  0.50561951752E+02  0.58946877488E+02  0.20000024388E+01 0.  0.
        -13    1    3    3    0    0 -0.26571889377E+02 -0.14427684700E+02 -0.30998598612E+01  0.30394797023E+02  0.10566000000E+00 0.  1.
         13    1    4    4    0    0  0.19995696960E+01  0.11992651365E+01  0.44410209747E+01  0.50170057974E+01  0.10566000000E+00 0.  1.
        -13    1    4    4    0    0  0.18116512444E+02  0.10479519240E+02  0.34072509857E+02  0.39987190932E+02  0.10566000000E+00 0. -1.
         14    1    4    4    0    0  0.64558072368E+01  0.27489003230E+01  0.12048420920E+02  0.13942680758E+02  0.00000000000E+00 0. -1.
<mgrwt>
<rscale>  0 0.75692038E+02</rscale>
<asrwt>0</asrwt>
<pdfrwt beam="1">  1        2 0.10523367E-01 0.75692038E+02</pdfrwt>
<pdfrwt beam="2">  1       -1 0.32215063E-02 0.75692038E+02</pdfrwt>
<totfact> 0.18643480E+05</totfact>
</mgrwt>
</event>
<event>
 8    1  0.3274709E-024  0.8020085E+02  0.7818608E-02  0.1328482E+00
         -1   -1    0    0    0  501 -0.00000000000E+00  0.00000000000E+00  0.18873819540E+01  0.18873886834E+01  0.50400000000E-02 0.  1.
          2   -1    0    0  501    0  0.00000000000E+00 -0.00000000000E+00 -0.85199571830E+03  0.85199571830E+03  0.25500000000E-02 0. -1.
         24    2    1    2    0    0  0.00000000000E+00  0.00000000000E+00 -0.85010833634E+03  0.85388310698E+03  0.80200853319E+02 0.  0.
         66    2    3    3    0    0  0.30965564813E+02  0.12822763200E+01 -0.69582397671E+03  0.69651670260E+03  0.20000005842E+01 0.  0.
        -13    1    3    3    0    0 -0.30965564813E+02 -0.12822763200E+01 -0.15428435963E+03  0.15736640438E+03  0.10566000000E+00 0.  1.
         13    1    4    4    0    0  0.16889064357E+02  0.82569372952E+00 -0.38801386233E+03  0.38838214530E+03  0.10566000000E+00 0. -1.
        -13    1    4    4    0    0  0.45464720031E+01 -0.42400983008E-01 -0.11124596235E+03  0.11133888588E+03  0.10566000000E+00 0.  1.
        -14    1    4    4    0    0  0.95300284528E+01  0.49898357344E+00 -0.19656415203E+03  0.19679567142E+03  0.00000000000E+00 0.  1.
<mgrwt>
<rscale>  0 0.80200853E+02</rscale>
<asrwt>0</asrwt>
<pdfrwt beam="1">  1        2 0.13107596E+00 0.80200853E+02</pdfrwt>
<pdfrwt beam="2">  1       -1 0.29036765E-03 0.80200853E+02</pdfrwt>
<totfact> 0.34481476E+05</totfact>
</mgrwt>
</event>
<event>
 8    1  0.2433467E-024  0.8025387E+02  0.7818608E-02  0.1328333E+00
          2   -1    0    0  501    0  0.00000000000E+00  0.00000000000E+00  0.17917506048E+04  0.17917506048E+04  0.25500000000E-02 0. -1.
         -1   -1    0    0    0  501 -0.00000000000E+00 -0.00000000000E+00 -0.89865089659E+00  0.89866502967E+00  0.50400000000E-02 0.  1.
         24    2    1    2    0    0  0.00000000000E+00  0.00000000000E+00  0.17908519540E+04  0.17926492699E+04  0.80253871108E+02 0.  0.
         66    2    3    3    0    0  0.14140359278E+02  0.70403237660E+01  0.17193279848E+04  0.17194017085E+04  0.19999989590E+01 0.  0.
        -13    1    3    3    0    0 -0.14140359278E+02 -0.70403237660E+01  0.71523969170E+02  0.73247561387E+02  0.10566000000E+00 0.  1.
         13    1    4    4    0    0  0.66045391024E+01  0.24448669499E+01  0.76239901143E+03  0.76243154519E+03  0.10566000000E+00 0. -1.
        -13    1    4    4    0    0  0.55246353684E+00  0.63036050528E+00  0.99247255537E+02  0.99250851210E+02  0.10566000000E+00 0.  1.
         14    1    4    4    0    0  0.69833566389E+01  0.39650963108E+01  0.85768171782E+03  0.85771931209E+03  0.00000000000E+00 0. -1.
<mgrwt>
<rscale>  0 0.80253871E+02</rscale>
<asrwt>0</asrwt>
<pdfrwt beam="1">  1        2 0.27565256E+00 0.80253871E+02</pdfrwt>
<pdfrwt beam="2">  1       -1 0.13825577E-03 0.80253871E+02</pdfrwt>
<totfact> 0.30065105E+05</totfact>
</mgrwt>
</event>
<event>
 8    1  0.2433467E-024  0.7870102E+02  0.7818608E-02  0.1332779E+00
         -1   -1    0    0    0  501 -0.00000000000E+00  0.00000000000E+00  0.11761032109E+02  0.11761033189E+02  0.50400000000E-02 0.  1.
          2   -1    0    0  501    0  0.00000000000E+00 -0.00000000000E+00 -0.13166043512E+03  0.13166043514E+03  0.25500000000E-02 0. -1.
         24    2    1    2    0    0  0.00000000000E+00  0.35527136788E-14 -0.11989940301E+03  0.14342146833E+03  0.78701021192E+02 0.  0.
         66    2    3    3    0    0  0.19074070325E+02 -0.27743160261E+02 -0.97020974711E+02  0.10271598043E+03  0.20000003938E+01 0.  0.
        -13    1    3    3    0    0 -0.19074070325E+02  0.27743160261E+02 -0.22878428298E+02  0.40705487903E+02  0.10566000000E+00 0.  1.
         13    1    4    4    0    0  0.11759995537E+02 -0.17375607757E+02 -0.61818795930E+02  0.65282340141E+02  0.10566000000E+00 0. -1.
        -13    1    4    4    0    0  0.13653476581E+01 -0.14115206559E+01 -0.48578038280E+01  0.52408002114E+01  0.10566000000E+00 0.  1.
        -14    1    4    4    0    0  0.59487271292E+01 -0.89560318488E+01 -0.30344374953E+02  0.32192840077E+02  0.00000000000E+00 0.  1.
<mgrwt>
<rscale>  0 0.78701021E+02</rscale>
<asrwt>0</asrwt>
<pdfrwt beam="1">  1        2 0.20255451E-01 0.78701021E+02</pdfrwt>
<pdfrwt beam="2">  1       -1 0.18093897E-02 0.78701021E+02</pdfrwt>
<totfact> 0.20076702E+05</totfact>
</mgrwt>
</event>
<event>
 8    1  0.2433467E-024  0.8244709E+02  0.7818608E-02  0.1322247E+00
          2   -1    0    0  501    0  0.00000000000E+00  0.00000000000E+00  0.40105027058E+03  0.40105027059E+03  0.25500000000E-02 0. -1.
         -1   -1    0    0    0  501 -0.00000000000E+00 -0.00000000000E+00 -0.42373238490E+01  0.42373268463E+01  0.50400000000E-02 0.  1.
         24    2    1    2    0    0  0.00000000000E+00 -0.17763568394E-14  0.39681294673E+03  0.40528759743E+03  0.82447085702E+02 0.  0.
         66    2    3    3    0    0 -0.25134012331E+02 -0.14929570319E+02  0.34122856333E+03  0.34248436911E+03  0.20000018760E+01 0.  0.
        -13    1    3    3    0    0  0.25134012331E+02  0.14929570319E+02  0.55584383406E+02  0.62803228328E+02  0.10566000000E+00 0.  1.
         13    1    4    4    0    0 -0.13139418515E+01 -0.73413468814E+00  0.13667550487E+02  0.13750581707E+02  0.10566000000E+00 0.  1.
        -13    1    4    4    0    0 -0.68509561611E+01 -0.38559929023E+01  0.88940240649E+02  0.89287075506E+02  0.10566000000E+00 0. -1.
         14    1    4    4    0    0 -0.16969114319E+02 -0.10339442729E+02  0.23862077219E+03  0.23944671189E+03  0.00000000000E+00 0. -1.
<mgrwt>
<rscale>  0 0.82447086E+02</rscale>
<asrwt>0</asrwt>
<pdfrwt beam="1">  1        2 0.61700076E-01 0.82447086E+02</pdfrwt>
<pdfrwt beam="2">  1       -1 0.65189585E-03 0.82447086E+02</pdfrwt>
<totfact> 0.26136110E+05</totfact>
</mgrwt>
</event>
<event>
 8    1  0.2433467E-024  0.7811177E+02  0.7818608E-02  0.1334497E+00
          2   -1    0    0  501    0  0.00000000000E+00  0.00000000000E+00  0.23399957090E+03  0.23399957092E+03  0.25500000000E-02 0. -1.
         -1   -1    0    0    0  501 -0.00000000000E+00 -0.00000000000E+00 -0.65186521627E+01  0.65186541111E+01  0.50400000000E-02 0.  1.
         24    2    1    2    0    0  0.00000000000E+00  0.35527136788E-14  0.22748091874E+03  0.24051822503E+03  0.78111767229E+02 0.  0.
         66    2    3    3    0    0 -0.33749228579E+02  0.19261275151E+02  0.10256432445E+03  0.10969707290E+03  0.20000008802E+01 0.  0.
        -13    1    3    3    0    0  0.33749228579E+02 -0.19261275151E+02  0.12491659429E+03  0.13082115212E+03  0.10566000000E+00 0.  1.
         13    1    4    4    0    0 -0.11462038246E+02  0.70262148126E+01  0.35526623190E+02  0.37985499005E+02  0.10566000000E+00 0. -1.
        -13    1    4    4    0    0 -0.44968133745E+01  0.30858100496E+01  0.14991040250E+02  0.15952617528E+02  0.10566000000E+00 0.  1.
        -14    1    4    4    0    0 -0.17790376959E+02  0.91492502887E+01  0.52046661010E+02  0.55758956370E+02  0.00000000000E+00 0.  1.
<mgrwt>
<rscale>  0 0.78111767E+02</rscale>
<asrwt>0</asrwt>
<pdfrwt beam="1">  1        2 0.35999935E-01 0.78111767E+02</pdfrwt>
<pdfrwt beam="2">  1       -1 0.10028697E-02 0.78111767E+02</pdfrwt>
<totfact> 0.24821843E+05</totfact>
</mgrwt>
</event>
<event>
 8    1  0.2433467E-024  0.7925305E+02  0.7818608E-02  0.1331185E+00
         -1   -1    0    0    0  501 -0.00000000000E+00  0.00000000000E+00  0.51091993393E+02  0.51091993642E+02  0.50400000000E-02 0.  1.
          2   -1    0    0  501    0  0.00000000000E+00 -0.00000000000E+00 -0.30734002813E+02  0.30734002919E+02  0.25500000000E-02 0. -1.
         24    2    1    2    0    0  0.00000000000E+00  0.00000000000E+00  0.20357990580E+02  0.81825996561E+02  0.79253049990E+02 0.  0.
         66    2    3    3    0    0  0.12614188023E+01 -0.37276503919E+02 -0.35555452344E+01  0.37520271412E+02  0.19999857691E+01 0.  0.
        -13    1    3    3    0    0 -0.12614188023E+01  0.37276503919E+02  0.23913535815E+02  0.44305725149E+02  0.10566000000E+00 0.  1.
         13    1    4    4    0    0 -0.59055090236E-01 -0.11632015603E+02 -0.72470740021E+00  0.11655197954E+02  0.10566000000E+00 0. -1.
        -13    1    4    4    0    0  0.20523211830E+00 -0.37463377319E+01 -0.85581299409E+00  0.38497722712E+01  0.10566000000E+00 0.  1.
         14    1    4    4    0    0  0.11152417742E+01 -0.21898150584E+02 -0.19750248401E+01  0.22015301187E+02  0.00000000000E+00 0. -1.
<mgrwt>
<rscale>  0 0.79253050E+02</rscale>
<asrwt>0</asrwt>
<pdfrwt beam="1">  1        2 0.47283082E-02 0.79253050E+02</pdfrwt>
<pdfrwt beam="2">  1       -1 0.78603066E-02 0.79253050E+02</pdfrwt>
<totfact> 0.13879071E+05</totfact>
</mgrwt>
</event>
<event>
 8    1  0.2433467E-024  0.8116700E+02  0.7818608E-02  0.1325772E+00
         -1   -1    0    0    0  501 -0.00000000000E+00  0.00000000000E+00  0.21727642280E+01  0.21727700734E+01  0.50400000000E-02 0.  1.
          2   -1    0    0  501    0  0.00000000000E+00 -0.00000000000E+00 -0.75802906777E+03  0.75802906778E+03  0.25500000000E-02 0. -1.
         24    2    1    2    0    0  0.00000000000E+00  0.00000000000E+00 -0.75585630354E+03  0.76020183785E+03  0.81167004767E+02 0.  0.
         66    2    3    3    0    0  0.36009613486E+02 -0.52612474154E+01 -0.54586740801E+03  0.54708280914E+03  0.19999845018E+01 0.  0.
        -13    1    3    3    0    0 -0.36009613486E+02  0.52612474154E+01 -0.20998889553E+03  0.21311902871E+03  0.10566000000E+00 0.  1.
         13    1    4    4    0    0  0.49293346092E+01 -0.56048376546E+00 -0.67266508851E+02  0.67449291017E+02  0.10566000000E+00 0. -1.
        -13    1    4    4    0    0  0.95659463701E+01 -0.10679849717E+01 -0.15251157733E+03  0.15281505261E+03  0.10566000000E+00 0.  1.
         14    1    4    4    0    0  0.21514332507E+02 -0.36327786782E+01 -0.32608932183E+03  0.32681846551E+03  0.00000000000E+00 0. -1.
<mgrwt>
<rscale>  0 0.81167005E+02</rscale>
<asrwt>0</asrwt>
<pdfrwt beam="1">  1        2 0.11661965E+00 0.81167005E+02</pdfrwt>
<pdfrwt beam="2">  1       -1 0.33427248E-03 0.81167005E+02</pdfrwt>
<totfact> 0.32767405E+05</totfact>
</mgrwt>
</event>
<event>
 8    1  0.2433467E-024  0.7662421E+02  0.7818608E-02  0.1338914E+00
          2   -1    0    0  501    0  0.00000000000E+00  0.00000000000E+00  0.78450226231E+01  0.78450230376E+01  0.25500000000E-02 0. -1.
         -1   -1    0    0    0  501 -0.00000000000E+00 -0.00000000000E+00 -0.18710175349E+03  0.18710175355E+03  0.50400000000E-02 0.  1.
         24    2    1    2    0    0 -0.35527136788E-14  0.17763568394E-14 -0.17925673086E+03  0.19494677659E+03  0.76624213821E+02 0.  0.
         66    2    3    3    0    0 -0.26684613276E+02  0.15369194466E+02 -0.31810580955E+02  0.44319225954E+02  0.20000010757E+01 0.  0.
        -13    1    3    3    0    0  0.26684613276E+02 -0.15369194466E+02 -0.14744614991E+03  0.15062755064E+03  0.10566000000E+00 0.  1.
         13    1    4    4    0    0 -0.59510165324E+01  0.32208154119E+01 -0.59803662595E+01  0.90312897373E+01  0.10566000000E+00 0. -1.
        -13    1    4    4    0    0 -0.13957293117E+02  0.82436810315E+01 -0.17926056236E+02  0.24168553211E+02  0.10566000000E+00 0.  1.
         14    1    4    4    0    0 -0.67763036263E+01  0.39046980223E+01 -0.79041584593E+01  0.11119383006E+02  0.00000000000E+00 0. -1.
<mgrwt>
<rscale>  0 0.76624214E+02</rscale>
<asrwt>0</asrwt>
<pdfrwt beam="1">  1        2 0.12069267E-02 0.76624214E+02</pdfrwt>
<pdfrwt beam="2">  1       -1 0.28784882E-01 0.76624214E+02</pdfrwt>
<totfact> 0.11334587E+05</totfact>
</mgrwt>
</event>
<event>
 8    1  0.2433467E-024  0.8206120E+02  0.7818608E-02  0.1323302E+00
          2   -1    0    0  501    0  0.00000000000E+00  0.00000000000E+00  0.62226408455E+02  0.62226408508E+02  0.25500000000E-02 0. -1.
         -1   -1    0    0    0  501 -0.00000000000E+00 -0.00000000000E+00 -0.27054591119E+02  0.27054591589E+02  0.50400000000E-02 0.  1.
         24    2    1    2    0    0  0.00000000000E+00  0.00000000000E+00  0.35171817336E+02  0.89281000096E+02  0.82061198160E+02 0.  0.
         66    2    3    3    0    0 -0.24827418557E+02  0.23696082951E+01  0.53009877011E+02  0.58617939377E+02  0.20000000958E+01 0.  0.
        -13    1    3    3    0    0  0.24827418557E+02 -0.23696082951E+01 -0.17838059675E+02  0.30663060719E+02  0.10566000000E+00 0.  1.
         13    1    4    4    0    0 -0.17085343137E+02  0.18405082048E+01  0.35207173194E+02  0.39177195266E+02  0.10566000000E+00 0. -1.
        -13    1    4    4    0    0 -0.31145030529E+01 -0.18148253856E+00  0.67141840957E+01  0.74043566422E+01  0.10566000000E+00 0.  1.
         14    1    4    4    0    0 -0.46275723674E+01  0.71058262886E+00  0.11088519721E+02  0.12036387469E+02  0.00000000000E+00 0. -1.
<mgrwt>
<rscale>  0 0.82061198E+02</rscale>
<asrwt>0</asrwt>
<pdfrwt beam="1">  1        2 0.95732935E-02 0.82061198E+02</pdfrwt>
<pdfrwt beam="2">  1       -1 0.41622449E-02 0.82061198E+02</pdfrwt>
<totfact> 0.14648348E+05</totfact>
</mgrwt>
</event>
<event>
 8    1  0.2433467E-024  0.8007944E+02  0.7818608E-02  0.1328826E+00
          2   -1    0    0  501    0  0.00000000000E+00  0.00000000000E+00  0.67335342605E+02  0.67335342654E+02  0.25500000000E-02 0. -1.
         -1   -1    0    0    0  501 -0.00000000000E+00 -0.00000000000E+00 -0.23808883670E+02  0.23808884204E+02  0.50400000000E-02 0.  1.
         24    2    1    2    0    0  0.00000000000E+00  0.00000000000E+00  0.43526458935E+02  0.91144226858E+02  0.80079444691E+02 0.  0.
         66    2    3    3    0    0 -0.29916232892E+02  0.11155457681E+02  0.49228893750E+02  0.58710384141E+02  0.19999998800E+01 0.  0.
        -13    1    3    3    0    0  0.29916232892E+02 -0.11155457681E+02 -0.57024348153E+01  0.32433842717E+02  0.10566000000E+00 0.  1.
         13    1    4    4    0    0 -0.12870308390E+02  0.52660140093E+01  0.20494549193E+02  0.24767184988E+02  0.10566000000E+00 0. -1.
        -13    1    4    4    0    0 -0.23554107695E+01  0.11208272934E+01  0.37164443448E+01  0.45417327441E+01  0.10566000000E+00 0.  1.
         14    1    4    4    0    0 -0.14690513733E+02  0.47686163787E+01  0.25017900212E+02  0.29401466408E+02  0.00000000000E+00 0. -1.
<mgrwt>
<rscale>  0 0.80079445E+02</rscale>
<asrwt>0</asrwt>
<pdfrwt beam="1">  1        2 0.10359284E-01 0.80079445E+02</pdfrwt>
<pdfrwt beam="2">  1       -1 0.36629052E-02 0.80079445E+02</pdfrwt>
<totfact> 0.15952309E+05</totfact>
</mgrwt>
</event>
<event>
 8    1  0.2433467E-024  0.7244219E+02  0.7818608E-02  0.1351980E+00
          2   -1    0    0  501    0  0.00000000000E+00  0.00000000000E+00  0.91259062466E+03  0.91259062467E+03  0.25500000000E-02 0. -1.
         -1   -1    0    0    0  501 -0.00000000000E+00 -0.00000000000E+00 -0.14376256674E+01  0.14376345019E+01  0.50400000000E-02 0.  1.
         24    2    1    2    0    0  0.17763568394E-14  0.35527136788E-14  0.91115299899E+03  0.91402825917E+03  0.72442190606E+02 0.  0.
         66    2    3    3    0    0  0.14724172311E+02  0.21495080038E+02  0.77289785887E+03  0.77333947265E+03  0.20000002228E+01 0.  0.
        -13    1    3    3    0    0 -0.14724172311E+02 -0.21495080038E+02  0.13825514013E+03  0.14068878652E+03  0.10566000000E+00 0.  1.
         13    1    4    4    0    0  0.63724071528E+00  0.12481578299E+01  0.36873702719E+02  0.36900475470E+02  0.10566000000E+00 0. -1.
        -13    1    4    4    0    0  0.34140212542E+00  0.94150667535E+00  0.34226820823E+02  0.34241632817E+02  0.10566000000E+00 0.  1.
         14    1    4    4    0    0  0.13745529470E+02  0.19305415533E+02  0.70179733533E+03  0.70219736436E+03  0.00000000000E+00 0. -1.
<mgrwt>
<rscale>  0 0.72442191E+02</rscale>
<asrwt>0</asrwt>
<pdfrwt beam="1">  1        2 0.14039824E+00 0.72442191E+02</pdfrwt>
<pdfrwt beam="2">  1       -1 0.22117437E-03 0.72442191E+02</pdfrwt>
<totfact> 0.45225433E+05</totfact>
</mgrwt>
</event>
<event>
 8    1  0.2433467E-024  0.8191309E+02  0.7818608E-02  0.1323708E+00
          2   -1    0    0  501    0  0.00000000000E+00  0.00000000000E+00  0.15648283695E+02  0.15648283903E+02  0.25500000000E-02 0. -1.
         -1   -1    0    0    0  501 -0.00000000000E+00 -0.00000000000E+00 -0.10719631616E+03  0.10719631628E+03  0.50400000000E-02 0.  1.
         24    2    1    2    0    0  0.35527136788E-14  0.35527136788E-14 -0.91548032467E+02  0.12284460018E+03  0.81913085314E+02 0.  0.
         66    2    3    3    0    0  0.22389177736E+02 -0.24736032076E+02 -0.10239591179E+02  0.34957056406E+02  0.20000006232E+01 0.  0.
        -13    1    3    3    0    0 -0.22389177736E+02  0.24736032076E+02 -0.81308441288E+02  0.87887543778E+02  0.10566000000E+00 0.  1.
         13    1    4    4    0    0  0.88207919104E+01 -0.10041472823E+02 -0.49301493556E+01  0.14246230487E+02  0.10566000000E+00 0. -1.
        -13    1    4    4    0    0  0.32755646747E+01 -0.31047262512E+01 -0.10302129949E+01  0.46304591439E+01  0.10566000000E+00 0.  1.
         14    1    4    4    0    0  0.10292821150E+02 -0.11589833002E+02 -0.42792288284E+01  0.16080366775E+02  0.00000000000E+00 0. -1.
<mgrwt>
<rscale>  0 0.81913085E+02</rscale>
<asrwt>0</asrwt>
<pdfrwt beam="1">  1        2 0.24074284E-02 0.81913085E+02</pdfrwt>
<pdfrwt beam="2">  1       -1 0.16491741E-01 0.81913085E+02</pdfrwt>
<totfact> 0.11006124E+05</totfact>
</mgrwt>
</event>
<event>
 8    1  0.2433467E-024  0.8126490E+02  0.7818608E-02  0.1325500E+00
          2   -1    0    0  501    0  0.00000000000E+00  0.00000000000E+00  0.21833307321E+03  0.21833307322E+03  0.25500000000E-02 0. -1.
         -1   -1    0    0    0  501 -0.00000000000E+00 -0.00000000000E+00 -0.75618224905E+01  0.75618241701E+01  0.50400000000E-02 0.  1.
         24    2    1    2    0    0  0.00000000000E+00  0.00000000000E+00  0.21077125072E+03  0.22589489739E+03  0.81264903490E+02 0.  0.
         66    2    3    3    0    0 -0.18730987190E+02  0.17917832146E+02  0.19233956968E+03  0.19408866184E+03  0.20000005809E+01 0.  0.
        -13    1    3    3    0    0  0.18730987190E+02 -0.17917832146E+02  0.18431681041E+02  0.31806235551E+02  0.10566000000E+00 0.  1.
         13    1    4    4    0    0 -0.12950307508E+02  0.11796491716E+02  0.13242518234E+03  0.13357884475E+03  0.10566000000E+00 0. -1.
        -13    1    4    4    0    0 -0.16099684247E+00  0.19943805060E+00  0.12703369040E+01  0.13002366726E+01  0.10566000000E+00 0.  1.
         14    1    4    4    0    0 -0.56196828394E+01  0.59219023787E+01  0.58644050430E+02  0.59209580423E+02  0.00000000000E+00 0. -1.
<mgrwt>
<rscale>  0 0.81264903E+02</rscale>
<asrwt>0</asrwt>
<pdfrwt beam="1">  1        2 0.33589702E-01 0.81264903E+02</pdfrwt>
<pdfrwt beam="2">  1       -1 0.11633575E-02 0.81264903E+02</pdfrwt>
<totfact> 0.21824410E+05</totfact>
</mgrwt>
</event>
<event>
 8    1  0.2433467E-024  0.8513110E+02  0.7818608E-02  0.1315090E+00
         -1   -1    0    0    0  501 -0.00000000000E+00  0.00000000000E+00  0.11463806647E+01  0.11463917437E+01  0.50400000000E-02 0.  1.
          2   -1    0    0  501    0  0.00000000000E+00 -0.00000000000E+00 -0.15804674094E+04  0.15804674094E+04  0.25500000000E-02 0. -1.
         24    2    1    2    0    0  0.00000000000E+00  0.00000000000E+00 -0.15793210288E+04  0.15816138012E+04  0.85131099894E+02 0.  0.
         66    2    3    3    0    0  0.15951135554E+02 -0.18737243982E+01 -0.15219754594E+04  0.15220615127E+04  0.19999927092E+01 0.  0.
        -13    1    3    3    0    0 -0.15951135554E+02  0.18737243982E+01 -0.57345569402E+02  0.59552288475E+02  0.10566000000E+00 0.  1.
         13    1    4    4    0    0  0.11679987479E+02 -0.11821244276E+01 -0.10584396201E+04  0.10585047284E+04  0.10566000000E+00 0. -1.
        -13    1    4    4    0    0  0.13519931171E+01 -0.32780828977E+00 -0.11326945107E+03  0.11327804312E+03  0.10566000000E+00 0.  1.
         14    1    4    4    0    0  0.29191549574E+01 -0.36379168079E+00 -0.35026638818E+03  0.35027874114E+03  0.00000000000E+00 0. -1.
<mgrwt>
<rscale>  0 0.85131100E+02</rscale>
<asrwt>0</asrwt>
<pdfrwt beam="1">  1        2 0.24314709E+00 0.85131100E+02</pdfrwt>
<pdfrwt beam="2">  1       -1 0.17636837E-03 0.85131100E+02</pdfrwt>
<totfact> 0.27666052E+05</totfact>
</mgrwt>
</event>
<event>
 8    1  0.2433467E-024  0.8054772E+02  0.7818608E-02  0.1327504E+00
         -1   -1    0    0    0  501 -0.00000000000E+00  0.00000000000E+00  0.51044139217E+02  0.51044139466E+02  0.50400000000E-02 0.  1.
          2   -1    0    0  501    0  0.00000000000E+00 -0.00000000000E+00 -0.31776099383E+02  0.31776099485E+02  0.25500000000E-02 0. -1.
         24    2    1    2    0    0 -0.35527136788E-14  0.00000000000E+00  0.19268039834E+02  0.82820238952E+02  0.80547716423E+02 0.  0.
         66    2    3    3    0    0 -0.31325135020E+02  0.18864952563E+02  0.26931917088E+02  0.45458538002E+02  0.19999999990E+01 0.  0.
        -13    1    3    3    0    0  0.31325135020E+02 -0.18864952563E+02 -0.76638772541E+01  0.37361700949E+02  0.10566000000E+00 0.  1.
         13    1    4    4    0    0 -0.10250338209E+02  0.67054803028E+01  0.86211061250E+01  0.14978902976E+02  0.10566000000E+00 0. -1.
        -13    1    4    4    0    0 -0.18563540097E+02  0.11178866781E+02  0.16215895931E+02  0.27065448977E+02  0.10566000000E+00 0.  1.
        -14    1    4    4    0    0 -0.25112567143E+01  0.98060547931E+00  0.20949150322E+01  0.34141860499E+01  0.00000000000E+00 0.  1.
<mgrwt>
<rscale>  0 0.80547716E+02</rscale>
<asrwt>0</asrwt>
<pdfrwt beam="1">  1        2 0.48886307E-02 0.80547716E+02</pdfrwt>
<pdfrwt beam="2">  1       -1 0.78529446E-02 0.80547716E+02</pdfrwt>
<totfact> 0.13352008E+05</totfact>
</mgrwt>
</event>
<event>
 8    1  0.2433467E-024  0.7636653E+02  0.7818608E-02  0.1339691E+00
         -1   -1    0    0    0  501 -0.00000000000E+00  0.00000000000E+00  0.24090153433E+01  0.24090206155E+01  0.50400000000E-02 0.  1.
          2   -1    0    0  501    0  0.00000000000E+00 -0.00000000000E+00 -0.60521003886E+03  0.60521003887E+03  0.25500000000E-02 0. -1.
         24    2    1    2    0    0 -0.35527136788E-14  0.00000000000E+00 -0.60280102352E+03  0.60761905948E+03  0.76366533846E+02 0.  0.
         66    2    3    3    0    0  0.30544288498E+02 -0.10857437435E+02 -0.46175405092E+03  0.46289484883E+03  0.20000048242E+01 0.  0.
        -13    1    3    3    0    0 -0.30544288498E+02  0.10857437435E+02 -0.14104697260E+03  0.14472421066E+03  0.10566000000E+00 0.  1.
         13    1    4    4    0    0  0.25426059847E+02 -0.84615028171E+01 -0.37574121153E+03  0.37669556774E+03  0.10566000000E+00 0. -1.
        -13    1    4    4    0    0  0.10314589823E+01 -0.63352916146E+00 -0.18998292277E+02  0.19037109558E+02  0.10566000000E+00 0.  1.
        -14    1    4    4    0    0  0.40867696688E+01 -0.17624054567E+01 -0.67014547119E+02  0.67162171532E+02  0.00000000000E+00 0.  1.
<mgrwt>
<rscale>  0 0.76366534E+02</rscale>
<asrwt>0</asrwt>
<pdfrwt beam="1">  1        2 0.93109116E-01 0.76366534E+02</pdfrwt>
<pdfrwt beam="2">  1       -1 0.37061863E-03 0.76366534E+02</pdfrwt>
<totfact> 0.36375470E+05</totfact>
</mgrwt>
</event>
<event>
 8    1  0.2433467E-024  0.8351004E+02  0.7818608E-02  0.1319376E+00
          2   -1    0    0  501    0  0.00000000000E+00  0.00000000000E+00  0.21725569939E+03  0.21725569941E+03  0.25500000000E-02 0. -1.
         -1   -1    0    0    0  501 -0.00000000000E+00 -0.00000000000E+00 -0.80250207342E+01  0.80250223169E+01  0.50400000000E-02 0.  1.
         24    2    1    2    0    0  0.00000000000E+00  0.17763568394E-14  0.20923067866E+03  0.22528072173E+03  0.83510039449E+02 0.  0.
         66    2    3    3    0    0 -0.25272053619E+02 -0.14193939191E+02  0.18566449484E+03  0.18792405180E+03  0.19999993279E+01 0.  0.
        -13    1    3    3    0    0  0.25272053619E+02  0.14193939191E+02  0.23566183816E+02  0.37356669921E+02  0.10566000000E+00 0.  1.
         13    1    4    4    0    0 -0.18209189607E+02 -0.10876733712E+02  0.13471939486E+03  0.13637890027E+03  0.10566000000E+00 0. -1.
        -13    1    4    4    0    0 -0.40997866228E+00 -0.80567868149E-01  0.22035511157E+01  0.22453007014E+01  0.10566000000E+00 0.  1.
         14    1    4    4    0    0 -0.66528853500E+01 -0.32366376103E+01  0.48741548868E+02  0.49299850837E+02  0.00000000000E+00 0. -1.
<mgrwt>
<rscale>  0 0.83510039E+02</rscale>
<asrwt>0</asrwt>
<pdfrwt beam="1">  1        2 0.33423959E-01 0.83510039E+02</pdfrwt>
<pdfrwt beam="2">  1       -1 0.12346185E-02 0.83510039E+02</pdfrwt>
<totfact> 0.20272348E+05</totfact>
</mgrwt>
</event>
<event>
 8    1  0.2433467E-024  0.8002424E+02  0.7818608E-02  0.1328983E+00
         -1   -1    0    0    0  501 -0.00000000000E+00  0.00000000000E+00  0.22088991542E+02  0.22088992117E+02  0.50400000000E-02 0.  1.
          2   -1    0    0  501    0  0.00000000000E+00 -0.00000000000E+00 -0.72478169873E+02  0.72478169918E+02  0.25500000000E-02 0. -1.
         24    2    1    2    0    0  0.00000000000E+00  0.00000000000E+00 -0.50389178331E+02  0.94567162035E+02  0.80024239093E+02 0.  0.
         66    2    3    3    0    0 -0.35334750017E+02 -0.11013931433E+02 -0.43097555874E+02  0.56844089964E+02  0.19999992908E+01 0.  0.
        -13    1    3    3    0    0  0.35334750017E+02  0.11013931433E+02 -0.72916224566E+01  0.37723072071E+02  0.10566000000E+00 0.  1.
         13    1    4    4    0    0 -0.20577227134E+02 -0.57893066856E+01 -0.24730115212E+02  0.32688348243E+02  0.10566000000E+00 0. -1.
        -13    1    4    4    0    0 -0.58369847760E+01 -0.25423018164E+01 -0.71259828064E+01  0.95563845043E+01  0.10566000000E+00 0.  1.
        -14    1    4    4    0    0 -0.89205381073E+01 -0.26823229305E+01 -0.11241457856E+02  0.14599357217E+02  0.00000000000E+00 0.  1.
<mgrwt>
<rscale>  0 0.80024239E+02</rscale>
<asrwt>0</asrwt>
<pdfrwt beam="1">  1        2 0.11150488E-01 0.80024239E+02</pdfrwt>
<pdfrwt beam="2">  1       -1 0.33983065E-02 0.80024239E+02</pdfrwt>
<totfact> 0.16271842E+05</totfact>
</mgrwt>
</event>
<event>
 8    1  0.2433467E-024  0.8056057E+02  0.7818608E-02  0.1327468E+00
          2   -1    0    0  501    0  0.00000000000E+00  0.00000000000E+00  0.42342374092E+03  0.42342374093E+03  0.25500000000E-02 0. -1.
         -1   -1    0    0    0  501 -0.00000000000E+00 -0.00000000000E+00 -0.38318607417E+01  0.38318640562E+01  0.50400000000E-02 0.  1.
         24    2    1    2    0    0  0.00000000000E+00  0.00000000000E+00  0.41959188018E+03  0.42725560498E+03  0.80560573971E+02 0.  0.
         66    2    3    3    0    0  0.94734028879E+01  0.11672253169E+02  0.40797540266E+03  0.40825716898E+03  0.19999997083E+01 0.  0.
        -13    1    3    3    0    0 -0.94734028879E+01 -0.11672253169E+02  0.11616477521E+02  0.18998435998E+02  0.10566000000E+00 0.  1.
         13    1    4    4    0    0  0.88662283614E+01  0.11201111442E+02  0.38389724406E+03  0.38416296030E+03  0.10566000000E+00 0. -1.
        -13    1    4    4    0    0  0.66526278005E-01  0.27507355886E+00  0.91035615165E+01  0.91085722003E+01  0.10566000000E+00 0. -1.
         14    1    4    4    0    0  0.54064824846E+00  0.19606816866E+00  0.14974597077E+02  0.14985636485E+02  0.00000000000E+00 0. -1.
<mgrwt>
<rscale>  0 0.80560574E+02</rscale>
<asrwt>0</asrwt>
<pdfrwt beam="1">  1        2 0.65142061E-01 0.80560574E+02</pdfrwt>
<pdfrwt beam="2">  1       -1 0.58951777E-03 0.80560574E+02</pdfrwt>
<totfact> 0.28295728E+05</totfact>
</mgrwt>
</event>
<event>
 8    1  0.2433467E-024  0.8057136E+02  0.7818608E-02  0.1327438E+00
          2   -1    0    0  501    0  0.00000000000E+00  0.00000000000E+00  0.51141237226E+03  0.51141237227E+03  0.25500000000E-02 0. -1.
         -1   -1    0    0    0  501 -0.00000000000E+00 -0.00000000000E+00 -0.31734367551E+01  0.31734407573E+01  0.50400000000E-02 0.  1.
         24    2    1    2    0    0  0.00000000000E+00  0.00000000000E+00  0.50823893551E+03  0.51458581302E+03  0.80571355965E+02 0.  0.
         66    2    3    3    0    0 -0.25343842548E+01 -0.24759436784E+02  0.45639029045E+03  0.45707280605E+03  0.19999993309E+01 0.  0.
        -13    1    3    3    0    0  0.25343842548E+01  0.24759436784E+02  0.51848645055E+02  0.57513006977E+02  0.10566000000E+00 0.  1.
         13    1    4    4    0    0 -0.17197519101E+01 -0.84128910900E+01  0.15682321076E+03  0.15705815764E+03  0.10566000000E+00 0. -1.
        -13    1    4    4    0    0 -0.78103975009E-01 -0.65812693056E+01  0.11648500544E+03  0.11667084838E+03  0.10566000000E+00 0.  1.
         14    1    4    4    0    0 -0.73652836969E+00 -0.97652763886E+01  0.18308207425E+03  0.18334380003E+03  0.00000000000E+00 0. -1.
<mgrwt>
<rscale>  0 0.80571356E+02</rscale>
<asrwt>0</asrwt>
<pdfrwt beam="1">  1        2 0.78678759E-01 0.80571356E+02</pdfrwt>
<pdfrwt beam="2">  1       -1 0.48822177E-03 0.80571356E+02</pdfrwt>
<totfact> 0.30105979E+05</totfact>
</mgrwt>
</event>
<event>
 8    1  0.2433467E-024  0.7843285E+02  0.7818608E-02  0.1333559E+00
         -1   -1    0    0    0  501 -0.00000000000E+00  0.00000000000E+00  0.32845650622E+02  0.32845651008E+02  0.50400000000E-02 0.  1.
          2   -1    0    0  501    0  0.00000000000E+00 -0.00000000000E+00 -0.46822885271E+02  0.46822885340E+02  0.25500000000E-02 0. -1.
         24    2    1    2    0    0  0.00000000000E+00  0.00000000000E+00 -0.13977234649E+02  0.79668536348E+02  0.78432854056E+02 0.  0.
         66    2    3    3    0    0  0.60956727788E+01 -0.34452099212E+02  0.10943446164E+02  0.36713258873E+02  0.19999991000E+01 0.  0.
        -13    1    3    3    0    0 -0.60956727788E+01  0.34452099212E+02 -0.24920680813E+02  0.42955277475E+02  0.10566000000E+00 0.  1.
         13    1    4    4    0    0  0.43778608394E+01 -0.21168222782E+02  0.67454320438E+01  0.22644454923E+02  0.10566000000E+00 0. -1.
        -13    1    4    4    0    0  0.70816542683E+00 -0.53137204865E+01  0.12045694299E+01  0.54953867223E+01  0.10566000000E+00 0.  1.
         14    1    4    4    0    0  0.10096465126E+01 -0.79701559435E+01  0.29934446907E+01  0.85734172277E+01  0.00000000000E+00 0. -1.
<mgrwt>
<rscale>  0 0.78432854E+02</rscale>
<asrwt>0</asrwt>
<pdfrwt beam="1">  1        2 0.72035208E-02 0.78432854E+02</pdfrwt>
<pdfrwt beam="2">  1       -1 0.50531771E-02 0.78432854E+02</pdfrwt>
<totfact> 0.15554383E+05</totfact>
</mgrwt>
</event>
<event>
 8    1  0.2433467E-024  0.7826833E+02  0.7818608E-02  0.1334039E+00
         -1   -1    0    0    0  501 -0.00000000000E+00  0.00000000000E+00  0.11254220805E+02  0.11254221933E+02  0.50400000000E-02 0.  1.
          2   -1    0    0  501    0  0.00000000000E+00 -0.00000000000E+00 -0.13608073194E+03  0.13608073197E+03  0.25500000000E-02 0. -1.
         24    2    1    2    0    0  0.17763568394E-14  0.00000000000E+00 -0.12482651114E+03  0.14733495390E+03  0.78268325380E+02 0.  0.
         66    2    3    3    0    0  0.15720537258E+02 -0.34555669389E+02 -0.80137576101E+02  0.88697579663E+02  0.19999890668E+01 0.  0.
        -13    1    3    3    0    0 -0.15720537258E+02  0.34555669389E+02 -0.44688935039E+02  0.58637374238E+02  0.10566000000E+00 0.  1.
         13    1    4    4    0    0  0.69218799323E+01 -0.15630671301E+02 -0.34247482626E+02  0.38277036685E+02  0.10566000000E+00 0.  1.
        -13    1    4    4    0    0  0.62517195527E+01 -0.14322981335E+02 -0.34478539343E+02  0.37855153295E+02  0.10566000000E+00 0. -1.
        -14    1    4    4    0    0  0.25469377728E+01 -0.46020167526E+01 -0.11411554132E+02  0.12565389684E+02  0.00000000000E+00 0.  1.
<mgrwt>
<rscale>  0 0.78268325E+02</rscale>
<asrwt>0</asrwt>
<pdfrwt beam="1">  1        2 0.20935496E-01 0.78268325E+02</pdfrwt>
<pdfrwt beam="2">  1       -1 0.17314188E-02 0.78268325E+02</pdfrwt>
<totfact> 0.20582232E+05</totfact>
</mgrwt>
</event>
<event>
 8    1  0.2433467E-024  0.7864191E+02  0.7818608E-02  0.1332950E+00
          2   -1    0    0  501    0  0.00000000000E+00  0.00000000000E+00  0.10871016292E+02  0.10871016591E+02  0.25500000000E-02 0. -1.
         -1   -1    0    0    0  501 -0.00000000000E+00 -0.00000000000E+00 -0.14222565526E+03  0.14222565535E+03  0.50400000000E-02 0.  1.
         24    2    1    2    0    0  0.17763568394E-14  0.00000000000E+00 -0.13135463897E+03  0.15309667194E+03  0.78641908554E+02 0.  0.
         66    2    3    3    0    0  0.11772741955E+02  0.20182201826E+02 -0.42128291601E+01  0.23825756074E+02  0.19999998195E+01 0.  0.
        -13    1    3    3    0    0 -0.11772741955E+02 -0.20182201826E+02 -0.12714180981E+03  0.12927091587E+03  0.10566000000E+00 0.  1.
         13    1    4    4    0    0  0.17669348112E+01  0.26635541394E+01 -0.70059927541E+00  0.32739246572E+01  0.10566000000E+00 0. -1.
        -13    1    4    4    0    0  0.33617381976E+01  0.51137249560E+01 -0.17749322891E+01  0.63728341655E+01  0.10566000000E+00 0.  1.
        -14    1    4    4    0    0  0.66440689459E+01  0.12404922731E+02 -0.17372975956E+01  0.14178997251E+02  0.00000000000E+00 0.  1.
<mgrwt>
<rscale>  0 0.78641909E+02</rscale>
<asrwt>0</asrwt>
<pdfrwt beam="1">  1        2 0.16724642E-02 0.78641909E+02</pdfrwt>
<pdfrwt beam="2">  1       -1 0.21880869E-01 0.78641909E+02</pdfrwt>
<totfact> 0.11415232E+05</totfact>
</mgrwt>
</event>
<event>
 8    1  0.2433467E-024  0.7936349E+02  0.7818608E-02  0.1330868E+00
          2   -1    0    0  501    0  0.00000000000E+00  0.00000000000E+00  0.16117291171E+03  0.16117291173E+03  0.25500000000E-02 0. -1.
         -1   -1    0    0    0  501 -0.00000000000E+00 -0.00000000000E+00 -0.97698852739E+01  0.97698865739E+01  0.50400000000E-02 0.  1.
         24    2    1    2    0    0  0.35527136788E-14  0.71054273576E-14  0.15140302644E+03  0.17094279831E+03  0.79363492099E+02 0.  0.
         66    2    3    3    0    0 -0.20282889142E+02 -0.33840011863E+02  0.84390421811E+02  0.93178781320E+02  0.20000000060E+01 0.  0.
        -13    1    3    3    0    0  0.20282889142E+02  0.33840011863E+02  0.67012604626E+02  0.77764016985E+02  0.10566000000E+00 0.  1.
         13    1    4    4    0    0 -0.69865199823E+01 -0.11262792108E+02  0.29774526563E+02  0.32591341544E+02  0.10566000000E+00 0. -1.
        -13    1    4    4    0    0 -0.12557440146E+02 -0.20712302951E+02  0.50313034119E+02  0.55839962060E+02  0.10566000000E+00 0.  1.
        -14    1    4    4    0    0 -0.73892901345E+00 -0.18649168042E+01  0.43028611287E+01  0.47474777163E+01  0.00000000000E+00 0.  1.
<mgrwt>
<rscale>  0 0.79363492E+02</rscale>
<asrwt>0</asrwt>
<pdfrwt beam="1">  1        2 0.24795833E-01 0.79363492E+02</pdfrwt>
<pdfrwt beam="2">  1       -1 0.15030594E-02 0.79363492E+02</pdfrwt>
<totfact> 0.20942426E+05</totfact>
</mgrwt>
</event>
<event>
 8    1  0.2433467E-024  0.7972787E+02  0.7818608E-02  0.1329825E+00
         -1   -1    0    0    0  501 -0.00000000000E+00  0.00000000000E+00  0.27458438880E+01  0.27458485134E+01  0.50400000000E-02 0.  1.
          2   -1    0    0  501    0  0.00000000000E+00 -0.00000000000E+00 -0.57874089639E+03  0.57874089639E+03  0.25500000000E-02 0. -1.
         24    2    1    2    0    0 -0.71054273576E-14 -0.35527136788E-14 -0.57599505250E+03  0.58148674491E+03  0.79727874662E+02 0.  0.
         66    2    3    3    0    0  0.36230278313E+02  0.12976362163E+02 -0.36330710585E+03  0.36534514120E+03  0.19999977401E+01 0.  0.
        -13    1    3    3    0    0 -0.36230278313E+02 -0.12976362163E+02 -0.21268794665E+03  0.21614160371E+03  0.10566000000E+00 0.  1.
         13    1    4    4    0    0  0.20920411397E+01  0.72984453074E+00 -0.18664597424E+02  0.18795948239E+02  0.10566000000E+00 0.  1.
        -13    1    4    4    0    0  0.12508132096E+01  0.16937880369E+00 -0.11519541647E+02  0.11588970043E+02  0.10566000000E+00 0. -1.
         14    1    4    4    0    0  0.32887423964E+02  0.12077138828E+02 -0.33312296678E+03  0.33496022291E+03  0.00000000000E+00 0. -1.
<mgrwt>
<rscale>  0 0.79727875E+02</rscale>
<asrwt>0</asrwt>
<pdfrwt beam="1">  1        2 0.89036964E-01 0.79727875E+02</pdfrwt>
<pdfrwt beam="2">  1       -1 0.42243834E-03 0.79727875E+02</pdfrwt>
<totfact> 0.32120196E+05</totfact>
</mgrwt>
</event>
<event>
 8    1  0.2433467E-024  0.8118773E+02  0.7818608E-02  0.1325714E+00
          2   -1    0    0  501    0  0.00000000000E+00  0.00000000000E+00  0.12094953400E+04  0.12094953400E+04  0.25500000000E-02 0. -1.
         -1   -1    0    0    0  501 -0.00000000000E+00 -0.00000000000E+00 -0.13624328357E+01  0.13624421578E+01  0.50400000000E-02 0.  1.
         24    2    1    2    0    0  0.35527136788E-14  0.27755575616E-16  0.12081329071E+04  0.12108577821E+04  0.81187728415E+02 0.  0.
         66    2    3    3    0    0 -0.19373876910E+02 -0.22325915189E+00  0.11360298674E+04  0.11361968389E+04  0.19999985642E+01 0.  0.
        -13    1    3    3    0    0  0.19373876910E+02  0.22325915189E+00  0.72103039696E+02  0.74660943260E+02  0.10566000000E+00 0.  1.
         13    1    4    4    0    0 -0.11882102237E+02 -0.26127719541E-01  0.74960066215E+03  0.74969483718E+03  0.10566000000E+00 0. -1.
        -13    1    4    4    0    0 -0.25230780184E+01  0.12011334883E-01  0.13508135564E+03  0.13510495873E+03  0.10566000000E+00 0.  1.
         14    1    4    4    0    0 -0.49686966541E+01 -0.20914276723E+00  0.25134784964E+03  0.25139704295E+03  0.00000000000E+00 0. -1.
<mgrwt>
<rscale>  0 0.81187728E+02</rscale>
<asrwt>0</asrwt>
<pdfrwt beam="1">  1        2 0.18607568E+00 0.81187728E+02</pdfrwt>
<pdfrwt beam="2">  1       -1 0.20960636E-03 0.81187728E+02</pdfrwt>
<totfact> 0.33691430E+05</totfact>
</mgrwt>
</event>
<event>
 8    1  0.2433467E-024  0.7423806E+02  0.7818608E-02  0.1346247E+00
          2   -1    0    0  501    0  0.00000000000E+00  0.00000000000E+00  0.47418835189E+03  0.47418835189E+03  0.25500000000E-02 0. -1.
         -1   -1    0    0    0  501 -0.00000000000E+00 -0.00000000000E+00 -0.29056414372E+01  0.29056458083E+01  0.50400000000E-02 0.  1.
         24    2    1    2    0    0  0.35527136788E-14  0.00000000000E+00  0.47128271045E+03  0.47709399770E+03  0.74238059474E+02 0.  0.
         66    2    3    3    0    0  0.18545729120E+02  0.11468125115E+02  0.42864623654E+03  0.42920514687E+03  0.20000100294E+01 0.  0.
        -13    1    3    3    0    0 -0.18545729120E+02 -0.11468125115E+02  0.42636473911E+02  0.47888850830E+02  0.10566000000E+00 0.  1.
         13    1    4    4    0    0  0.36290929725E+01  0.18905176405E+01  0.89944044427E+02  0.90037140474E+02  0.10566000000E+00 0.  1.
        -13    1    4    4    0    0  0.38100247296E+01  0.30315581556E+01  0.97308135237E+02  0.97429928567E+02  0.10566000000E+00 0. -1.
         14    1    4    4    0    0  0.11106611418E+02  0.65460493194E+01  0.24139405688E+03  0.24173807783E+03  0.00000000000E+00 0. -1.
<mgrwt>
<rscale>  0 0.74238059E+02</rscale>
<asrwt>0</asrwt>
<pdfrwt beam="1">  1        2 0.72952078E-01 0.74238059E+02</pdfrwt>
<pdfrwt beam="2">  1       -1 0.44702195E-03 0.74238059E+02</pdfrwt>
<totfact> 0.36348397E+05</totfact>
</mgrwt>
</event>
<event>
 8    1  0.2433467E-024  0.7768188E+02  0.7818608E-02  0.1335762E+00
         -1   -1    0    0    0  501 -0.00000000000E+00  0.00000000000E+00  0.16578844368E+01  0.16578920976E+01  0.50400000000E-02 0.  1.
          2   -1    0    0  501    0  0.00000000000E+00 -0.00000000000E+00 -0.90996402843E+03  0.90996402843E+03  0.25500000000E-02 0. -1.
         24    2    1    2    0    0 -0.88817841970E-15  0.00000000000E+00 -0.90830614399E+03  0.91162192053E+03  0.77681881910E+02 0.  0.
         66    2    3    3    0    0 -0.40402107573E+01  0.17765778225E+02 -0.85666294745E+03  0.85685900341E+03  0.20000008077E+01 0.  0.
        -13    1    3    3    0    0  0.40402107573E+01 -0.17765778225E+02 -0.51643196537E+02  0.54762917120E+02  0.10566000000E+00 0.  1.
         13    1    4    4    0    0 -0.19712878028E+01  0.12397749654E+02 -0.58536250123E+03  0.58549710433E+03  0.10566000000E+00 0. -1.
        -13    1    4    4    0    0 -0.15555840709E+01  0.44614846589E+01 -0.22719967183E+03  0.22724882119E+03  0.10566000000E+00 0.  1.
         14    1    4    4    0    0 -0.51333888356E+00  0.90654391184E+00 -0.44100774394E+02  0.44113077889E+02  0.00000000000E+00 0. -1.
<mgrwt>
<rscale>  0 0.77681882E+02</rscale>
<asrwt>0</asrwt>
<pdfrwt beam="1">  1        2 0.13999407E+00 0.77681882E+02</pdfrwt>
<pdfrwt beam="2">  1       -1 0.25506046E-03 0.77681882E+02</pdfrwt>
<totfact> 0.37759287E+05</totfact>
</mgrwt>
</event>
<event>
 8    1  0.2433467E-024  0.7970214E+02  0.7818608E-02  0.1329899E+00
          2   -1    0    0  501    0  0.00000000000E+00  0.00000000000E+00  0.94195250123E+02  0.94195250157E+02  0.25500000000E-02 0. -1.
         -1   -1    0    0    0  501 -0.00000000000E+00 -0.00000000000E+00 -0.16859742189E+02  0.16859742942E+02  0.50400000000E-02 0.  1.
         24    2    1    2    0    0  0.00000000000E+00  0.44408920985E-15  0.77335507934E+02  0.11105499310E+03  0.79702137393E+02 0.  0.
         66    2    3    3    0    0 -0.17852304063E+02  0.34606128484E+01  0.88062020918E+02  0.89942204404E+02  0.20000008158E+01 0.  0.
        -13    1    3    3    0    0  0.17852304063E+02 -0.34606128484E+01 -0.10726512984E+02  0.21112788695E+02  0.10566000000E+00 0.  1.
         13    1    4    4    0    0 -0.58392835304E+01  0.10555405256E+01  0.26786536562E+02  0.27436127696E+02  0.10566000000E+00 0. -1.
        -13    1    4    4    0    0 -0.20780698843E+01 -0.98162653119E-02  0.86664753868E+01  0.89127678343E+01  0.10566000000E+00 0.  1.
         14    1    4    4    0    0 -0.99349506487E+01  0.24148885881E+01  0.52609008969E+02  0.53593308873E+02  0.00000000000E+00 0. -1.
<mgrwt>
<rscale>  0 0.79702137E+02</rscale>
<asrwt>0</asrwt>
<pdfrwt beam="1">  1        2 0.14491577E-01 0.79702137E+02</pdfrwt>
<pdfrwt beam="2">  1       -1 0.25938065E-02 0.79702137E+02</pdfrwt>
<totfact> 0.17610219E+05</totfact>
</mgrwt>
</event>
<event>
 8    1  0.2433467E-024  0.8057569E+02  0.7818608E-02  0.1327426E+00
         -1   -1    0    0    0  501 -0.00000000000E+00  0.00000000000E+00  0.13846307166E+02  0.13846308083E+02  0.50400000000E-02 0.  1.
          2   -1    0    0  501    0  0.00000000000E+00 -0.00000000000E+00 -0.11722332860E+03  0.11722332863E+03  0.25500000000E-02 0. -1.
         24    2    1    2    0    0  0.35527136788E-14  0.17763568394E-14 -0.10337702143E+03  0.13106963671E+03  0.80575685580E+02 0.  0.
         66    2    3    3    0    0 -0.31318089063E+02 -0.10347536430E+02 -0.89282177790E+02  0.95200848131E+02  0.20000003039E+01 0.  0.
        -13    1    3    3    0    0  0.31318089063E+02  0.10347536430E+02 -0.14094843643E+02  0.35868788578E+02  0.10566000000E+00 0.  1.
         13    1    4    4    0    0 -0.37162111071E+01 -0.16288543297E+01 -0.10804296761E+02  0.11541550327E+02  0.10566000000E+00 0. -1.
        -13    1    4    4    0    0 -0.15445427467E+02 -0.41121965274E+01 -0.43567670939E+02  0.46407160062E+02  0.10566000000E+00 0.  1.
        -14    1    4    4    0    0 -0.12156450488E+02 -0.46064855730E+01 -0.34910210090E+02  0.37252137742E+02  0.00000000000E+00 0.  1.
<mgrwt>
<rscale>  0 0.80575686E+02</rscale>
<asrwt>0</asrwt>
<pdfrwt beam="1">  1        2 0.18034358E-01 0.80575686E+02</pdfrwt>
<pdfrwt beam="2">  1       -1 0.21302013E-02 0.80575686E+02</pdfrwt>
<totfact> 0.18204890E+05</totfact>
</mgrwt>
</event>
<event>
 8    1  0.2433467E-024  0.8072004E+02  0.7818608E-02  0.1327020E+00
          2   -1    0    0  501    0  0.00000000000E+00  0.00000000000E+00  0.91272423434E+02  0.91272423470E+02  0.25500000000E-02 0. -1.
         -1   -1    0    0    0  501 -0.00000000000E+00 -0.00000000000E+00 -0.17846913717E+02  0.17846914428E+02  0.50400000000E-02 0.  1.
         24    2    1    2    0    0  0.35527136788E-14  0.00000000000E+00  0.73425509717E+02  0.10911933790E+03  0.80720037327E+02 0.  0.
         66    2    3    3    0    0 -0.27581110425E+02  0.27277966472E+02  0.51674025662E+02  0.64645263093E+02  0.20000012843E+01 0.  0.
        -13    1    3    3    0    0  0.27581110425E+02 -0.27277966472E+02  0.21751484056E+02  0.44474074805E+02  0.10566000000E+00 0.  1.
         13    1    4    4    0    0 -0.12735134402E+01  0.10117686049E+01  0.24112481847E+01  0.29104628560E+01  0.10566000000E+00 0.  1.
        -13    1    4    4    0    0 -0.19454868191E+02  0.20262419563E+02  0.37669183915E+02  0.46989744879E+02  0.10566000000E+00 0. -1.
         14    1    4    4    0    0 -0.68527287932E+01  0.60037783045E+01  0.11593593562E+02  0.14745055358E+02  0.00000000000E+00 0. -1.
<mgrwt>
<rscale>  0 0.80720037E+02</rscale>
<asrwt>0</asrwt>
<pdfrwt beam="1">  1        2 0.14041911E-01 0.80720037E+02</pdfrwt>
<pdfrwt beam="2">  1       -1 0.27456791E-02 0.80720037E+02</pdfrwt>
<totfact> 0.16874849E+05</totfact>
</mgrwt>
</event>
<event>
 8    1  0.2433467E-024  0.8742148E+02  0.7818608E-02  0.1309219E+00
          2   -1    0    0  501    0  0.00000000000E+00  0.00000000000E+00  0.28432821318E+03  0.28432821319E+03  0.25500000000E-02 0. -1.
         -1   -1    0    0    0  501 -0.00000000000E+00 -0.00000000000E+00 -0.67197989833E+01  0.67198008733E+01  0.50400000000E-02 0.  1.
         24    2    1    2    0    0  0.00000000000E+00  0.44408920985E-15  0.27760841420E+03  0.29104801407E+03  0.87421478244E+02 0.  0.
         66    2    3    3    0    0  0.25493480330E+02  0.33481728809E+01  0.25646547727E+03  0.25775893557E+03  0.20000086902E+01 0.  0.
        -13    1    3    3    0    0 -0.25493480330E+02 -0.33481728809E+01  0.21142936926E+02  0.33289078492E+02  0.10566000000E+00 0.  1.
         13    1    4    4    0    0  0.75877783953E+01  0.11123730733E+01  0.76798886813E+02  0.77180903950E+02  0.10566000000E+00 0. -1.
        -13    1    4    4    0    0  0.45397901813E+01  0.11214013382E+01  0.51188311944E+02  0.51401572734E+02  0.10566000000E+00 0. -1.
        -14    1    4    4    0    0  0.13365911754E+02  0.11143984694E+01  0.12847827852E+03  0.12917645889E+03  0.00000000000E+00 0.  1.
<mgrwt>
<rscale>  0 0.87421478E+02</rscale>
<asrwt>0</asrwt>
<pdfrwt beam="1">  1        2 0.43742808E-01 0.87421478E+02</pdfrwt>
<pdfrwt beam="2">  1       -1 0.10338152E-02 0.87421478E+02</pdfrwt>
<totfact> 0.19790894E+05</totfact>
</mgrwt>
</event>
<event>
 8    1  0.2433467E-024  0.8665588E+02  0.7818608E-02  0.1311158E+00
         -1   -1    0    0    0  501 -0.00000000000E+00  0.00000000000E+00  0.24627305601E+02  0.24627306117E+02  0.50400000000E-02 0.  1.
          2   -1    0    0  501    0  0.00000000000E+00 -0.00000000000E+00 -0.76228823865E+02  0.76228823907E+02  0.25500000000E-02 0. -1.
         24    2    1    2    0    0  0.00000000000E+00  0.00000000000E+00 -0.51601518263E+02  0.10085613002E+03  0.86655884257E+02 0.  0.
         66    2    3    3    0    0 -0.16143508201E+02  0.33424950806E+02 -0.51773326161E+02  0.63736312199E+02  0.19999993646E+01 0.  0.
        -13    1    3    3    0    0  0.16143508201E+02 -0.33424950806E+02  0.17180789796E+00  0.37119817826E+02  0.10566000000E+00 0.  1.
         13    1    4    4    0    0 -0.84348600858E+01  0.16958290298E+02 -0.26875026191E+02  0.32878696314E+02  0.10566000000E+00 0. -1.
        -13    1    4    4    0    0 -0.16207791650E+01  0.48022117806E+01 -0.70829940346E+01  0.87102314330E+01  0.10566000000E+00 0.  1.
         14    1    4    4    0    0 -0.60878689504E+01  0.11664448727E+02 -0.17815305936E+02  0.22147384452E+02  0.00000000000E+00 0. -1.
<mgrwt>
<rscale>  0 0.86655884E+02</rscale>
<asrwt>0</asrwt>
<pdfrwt beam="1">  1        2 0.11727511E-01 0.86655884E+02</pdfrwt>
<pdfrwt beam="2">  1       -1 0.37888163E-02 0.86655884E+02</pdfrwt>
<totfact> 0.13276447E+05</totfact>
</mgrwt>
</event>
<event>
 8    1  0.2433467E-024  0.8041910E+02  0.7818608E-02  0.1327866E+00
          2   -1    0    0  501    0  0.00000000000E+00  0.00000000000E+00  0.50120293328E+03  0.50120293329E+03  0.25500000000E-02 0. -1.
         -1   -1    0    0    0  501 -0.00000000000E+00 -0.00000000000E+00 -0.32258530842E+01  0.32258570214E+01  0.50400000000E-02 0.  1.
         24    2    1    2    0    0  0.71054273576E-14 -0.11102230246E-15  0.49797708020E+03  0.50442879031E+03  0.80419102775E+02 0.  0.
         66    2    3    3    0    0  0.39632672317E+02 -0.59989406712E+00  0.29060445326E+03  0.29330198918E+03  0.20000037224E+01 0.  0.
        -13    1    3    3    0    0 -0.39632672317E+02  0.59989406712E+00  0.20737262694E+03  0.21112680113E+03  0.10566000000E+00 0.  1.
         13    1    4    4    0    0  0.10398436112E+02 -0.16308891082E+00  0.75770318504E+02  0.76480758377E+02  0.10566000000E+00 0. -1.
        -13    1    4    4    0    0  0.76586227363E+01 -0.60660376324E+00  0.52367904133E+02  0.52928546340E+02  0.10566000000E+00 0.  1.
        -14    1    4    4    0    0  0.21575613469E+02  0.16979860694E+00  0.16246623062E+03  0.16389268446E+03  0.00000000000E+00 0.  1.
<mgrwt>
<rscale>  0 0.80419103E+02</rscale>
<asrwt>0</asrwt>
<pdfrwt beam="1">  1        2 0.77108143E-01 0.80419103E+02</pdfrwt>
<pdfrwt beam="2">  1       -1 0.49628540E-03 0.80419103E+02</pdfrwt>
<totfact> 0.30062369E+05</totfact>
</mgrwt>
</event>
<event>
 8    1  0.2433467E-024  0.7909974E+02  0.7818608E-02  0.1331626E+00
          2   -1    0    0  501    0  0.00000000000E+00  0.00000000000E+00  0.20395541530E+03  0.20395541532E+03  0.25500000000E-02 0. -1.
         -1   -1    0    0    0  501 -0.00000000000E+00 -0.00000000000E+00 -0.76692832579E+01  0.76692849139E+01  0.50400000000E-02 0.  1.
         24    2    1    2    0    0  0.00000000000E+00 -0.44408920985E-15  0.19628613204E+03  0.21162470023E+03  0.79099735242E+02 0.  0.
         66    2    3    3    0    0  0.16040976360E+02  0.21481842178E+01  0.19467875760E+03  0.19536055455E+03  0.19999986257E+01 0.  0.
        -13    1    3    3    0    0 -0.16040976360E+02 -0.21481842178E+01  0.16073744385E+01  0.16264145678E+02  0.10566000000E+00 0.  1.
         13    1    4    4    0    0  0.90379566351E+01  0.19928865763E+01  0.10548572883E+03  0.10589101193E+03  0.10566000000E+00 0. -1.
        -13    1    4    4    0    0  0.68692292823E+01  0.98194276366E-01  0.86417095086E+02  0.86689800093E+02  0.10566000000E+00 0.  1.
        -14    1    4    4    0    0  0.13379044306E+00  0.57103365075E-01  0.27759336885E+01  0.27797425276E+01  0.00000000000E+00 0.  1.
<mgrwt>
<rscale>  0 0.79099735E+02</rscale>
<asrwt>0</asrwt>
<pdfrwt beam="1">  1        2 0.31377754E-01 0.79099735E+02</pdfrwt>
<pdfrwt beam="2">  1       -1 0.11798900E-02 0.79099735E+02</pdfrwt>
<totfact> 0.22881955E+05</totfact>
</mgrwt>
</event>
<event>
 8    1  0.2433467E-024  0.8139655E+02  0.7818608E-02  0.1325134E+00
         -1   -1    0    0    0  501 -0.00000000000E+00  0.00000000000E+00  0.34997250029E+03  0.34997250032E+03  0.50400000000E-02 0.  1.
          2   -1    0    0  501    0  0.00000000000E+00 -0.00000000000E+00 -0.47327984507E+01  0.47327991376E+01  0.25500000000E-02 0. -1.
         24    2    1    2    0    0  0.17763568394E-14  0.71054273576E-14  0.34523970184E+03  0.35470529946E+03  0.81396546251E+02 0.  0.
         66    2    3    3    0    0 -0.15088711072E+02  0.37112623651E+02  0.14211751486E+03  0.14766991591E+03  0.19999997101E+01 0.  0.
        -13    1    3    3    0    0  0.15088711072E+02 -0.37112623651E+02  0.20312218698E+03  0.20703538355E+03  0.10566000000E+00 0.  1.
         13    1    4    4    0    0 -0.40909922693E+01  0.83226297370E+01  0.32825176046E+02  0.34110199794E+02  0.10566000000E+00 0. -1.
        -13    1    4    4    0    0 -0.31276357020E+01  0.85759556449E+01  0.30673159336E+02  0.32002859060E+02  0.10566000000E+00 0.  1.
        -14    1    4    4    0    0 -0.78700831002E+01  0.20214038269E+02  0.78619179479E+02  0.81556857058E+02  0.00000000000E+00 0.  1.
<mgrwt>
<rscale>  0 0.81396546E+02</rscale>
<asrwt>0</asrwt>
<pdfrwt beam="1">  1        2 0.72812297E-03 0.81396546E+02</pdfrwt>
<pdfrwt beam="2">  1       -1 0.53841917E-01 0.81396546E+02</pdfrwt>
<totfact> 0.77359748E+04</totfact>
</mgrwt>
</event>
<event>
 8    1  0.2433467E-024  0.8045814E+02  0.7818608E-02  0.1327756E+00
         -1   -1    0    0    0  501 -0.00000000000E+00  0.00000000000E+00  0.34932878140E+02  0.34932878503E+02  0.50400000000E-02 0.  1.
          2   -1    0    0  501    0  0.00000000000E+00 -0.00000000000E+00 -0.46328221520E+02  0.46328221590E+02  0.25500000000E-02 0. -1.
         24    2    1    2    0    0  0.00000000000E+00  0.00000000000E+00 -0.11395343381E+02  0.81261100094E+02  0.80458141525E+02 0.  0.
         66    2    3    3    0    0  0.19229216483E+01 -0.35743843915E+02  0.12785950102E+02  0.38063112594E+02  0.20000036941E+01 0.  0.
        -13    1    3    3    0    0 -0.19229216483E+01  0.35743843915E+02 -0.24181293483E+02  0.43197987500E+02  0.10566000000E+00 0.  1.
         13    1    4    4    0    0  0.30722409500E+00 -0.84645769213E+01  0.22157835153E+01  0.87558157657E+01  0.10566000000E+00 0. -1.
        -13    1    4    4    0    0  0.80384878812E+00 -0.11877021923E+02  0.42886257737E+01  0.12653588332E+02  0.10566000000E+00 0.  1.
        -14    1    4    4    0    0  0.81184876515E+00 -0.15402245071E+02  0.62815408133E+01  0.16653708495E+02  0.00000000000E+00 0.  1.
<mgrwt>
<rscale>  0 0.80458142E+02</rscale>
<asrwt>0</asrwt>
<pdfrwt beam="1">  1        2 0.71274187E-02 0.80458142E+02</pdfrwt>
<pdfrwt beam="2">  1       -1 0.53742890E-02 0.80458142E+02</pdfrwt>
<totfact> 0.14470736E+05</totfact>
</mgrwt>
</event>
<event>
 8    1  0.2433467E-024  0.7778719E+02  0.7818608E-02  0.1335451E+00
         -1   -1    0    0    0  501 -0.00000000000E+00  0.00000000000E+00  0.56468021264E+01  0.56468043756E+01  0.50400000000E-02 0.  1.
          2   -1    0    0  501    0  0.00000000000E+00 -0.00000000000E+00 -0.26788813428E+03  0.26788813430E+03  0.25500000000E-02 0. -1.
         24    2    1    2    0    0  0.71054273576E-14 -0.88817841970E-15 -0.26224133216E+03  0.27353493867E+03  0.77787186492E+02 0.  0.
         66    2    3    3    0    0  0.33699097918E+02 -0.70143482180E+01 -0.19468626612E+03  0.19771588835E+03  0.20000014325E+01 0.  0.
        -13    1    3    3    0    0 -0.33699097918E+02  0.70143482180E+01 -0.67555066034E+02  0.75819050326E+02  0.10566000000E+00 0.  1.
         13    1    4    4    0    0  0.17879925393E+02 -0.37530365826E+01 -0.10145278971E+03  0.10308470653E+03  0.10566000000E+00 0. -1.
        -13    1    4    4    0    0  0.47996195379E+01 -0.58877687599E+00 -0.30515400731E+02  0.30896340426E+02  0.10566000000E+00 0.  1.
        -14    1    4    4    0    0  0.11019552987E+02 -0.26725347593E+01 -0.62718075684E+02  0.63734841394E+02  0.00000000000E+00 0.  1.
<mgrwt>
<rscale>  0 0.77787186E+02</rscale>
<asrwt>0</asrwt>
<pdfrwt beam="1">  1        2 0.41213549E-01 0.77787186E+02</pdfrwt>
<pdfrwt beam="2">  1       -1 0.86873917E-03 0.77787186E+02</pdfrwt>
<totfact> 0.26338010E+05</totfact>
</mgrwt>
</event>
<event>
 8    1  0.2433467E-024  0.7603920E+02  0.7818608E-02  0.1340683E+00
         -1   -1    0    0    0  501 -0.00000000000E+00  0.00000000000E+00  0.10808795362E+02  0.10808796537E+02  0.50400000000E-02 0.  1.
          2   -1    0    0  501    0  0.00000000000E+00 -0.00000000000E+00 -0.13373273594E+03  0.13373273597E+03  0.25500000000E-02 0. -1.
         24    2    1    2    0    0  0.35527136788E-14 -0.17763568394E-14 -0.12292394058E+03  0.14454153250E+03  0.76039196806E+02 0.  0.
         66    2    3    3    0    0  0.23656815995E+02 -0.12432016921E+02 -0.11283821338E+03  0.11597699076E+03  0.19999997881E+01 0.  0.
        -13    1    3    3    0    0 -0.23656815995E+02  0.12432016921E+02 -0.10085727197E+02  0.28564541741E+02  0.10566000000E+00 0.  1.
         13    1    4    4    0    0  0.18116442182E+02 -0.95608052108E+01 -0.87635714267E+02  0.89998022494E+02  0.10566000000E+00 0. -1.
        -13    1    4    4    0    0  0.19638950960E+01 -0.10246687852E+01 -0.72918309105E+01  0.76216003654E+01  0.10566000000E+00 0.  1.
        -14    1    4    4    0    0  0.35764787176E+01 -0.18465429252E+01 -0.17910668206E+02  0.18357367904E+02  0.00000000000E+00 0.  1.
<mgrwt>
<rscale>  0 0.76039197E+02</rscale>
<asrwt>0</asrwt>
<pdfrwt beam="1">  1        2 0.20574266E-01 0.76039197E+02</pdfrwt>
<pdfrwt beam="2">  1       -1 0.16628918E-02 0.76039197E+02</pdfrwt>
<totfact> 0.22099860E+05</totfact>
</mgrwt>
</event>
<event>
 8    1  0.2433467E-024  0.7986594E+02  0.7818608E-02  0.1329432E+00
         -1   -1    0    0    0  501 -0.00000000000E+00  0.00000000000E+00  0.26087491809E+02  0.26087492296E+02  0.50400000000E-02 0.  1.
          2   -1    0    0  501    0  0.00000000000E+00 -0.00000000000E+00 -0.61126695151E+02  0.61126695204E+02  0.25500000000E-02 0. -1.
         24    2    1    2    0    0 -0.35527136788E-14 -0.35527136788E-14 -0.35039203342E+02  0.87214187499E+02  0.79865942243E+02 0.  0.
         66    2    3    3    0    0  0.23662339254E+02  0.31821746765E+02 -0.22427252297E+02  0.45601661268E+02  0.19999996669E+01 0.  0.
        -13    1    3    3    0    0 -0.23662339254E+02 -0.31821746765E+02 -0.12611951044E+02  0.41612526231E+02  0.10566000000E+00 0.  1.
         13    1    4    4    0    0  0.30688260740E+01  0.40475797430E+01 -0.30023672037E+01  0.59013530745E+01  0.10566000000E+00 0. -1.
        -13    1    4    4    0    0  0.12152910271E+02  0.17298518622E+02 -0.11068417357E+02  0.23863214398E+02  0.10566000000E+00 0.  1.
        -14    1    4    4    0    0  0.84406029094E+01  0.10475648400E+02 -0.83564677365E+01  0.15837093796E+02  0.00000000000E+00 0.  1.
<mgrwt>
<rscale>  0 0.79865942E+02</rscale>
<asrwt>0</asrwt>
<pdfrwt beam="1">  1        2 0.94041069E-02 0.79865942E+02</pdfrwt>
<pdfrwt beam="2">  1       -1 0.40134604E-02 0.79865942E+02</pdfrwt>
<totfact> 0.15704882E+05</totfact>
</mgrwt>
</event>
<event>
 8    1  0.2433467E-024  0.7970917E+02  0.7818608E-02  0.1329879E+00
         -1   -1    0    0    0  501 -0.00000000000E+00  0.00000000000E+00  0.30328052833E+02  0.30328053251E+02  0.50400000000E-02 0.  1.
          2   -1    0    0  501    0  0.00000000000E+00 -0.00000000000E+00 -0.52373548792E+02  0.52373548854E+02  0.25500000000E-02 0. -1.
         24    2    1    2    0    0 -0.35527136788E-14  0.00000000000E+00 -0.22045495960E+02  0.82701602106E+02  0.79709165714E+02 0.  0.
         66    2    3    3    0    0 -0.26064438894E+02 -0.11994679648E+02 -0.39692043582E+02  0.49017197380E+02  0.20000001342E+01 0.  0.
        -13    1    3    3    0    0  0.26064438894E+02  0.11994679648E+02  0.17646547623E+02  0.33684404726E+02  0.10566000000E+00 0.  1.
         13    1    4    4    0    0 -0.83104305138E+01 -0.39597626333E+01 -0.11427329152E+02  0.14674399171E+02  0.10566000000E+00 0. -1.
        -13    1    4    4    0    0 -0.14517718591E+02 -0.61964466504E+01 -0.22909902987E+02  0.27821483122E+02  0.10566000000E+00 0.  1.
        -14    1    4    4    0    0 -0.32362897895E+01 -0.18384703639E+01 -0.53548114433E+01  0.65213150877E+01  0.00000000000E+00 0.  1.
<mgrwt>
<rscale>  0 0.79709166E+02</rscale>
<asrwt>0</asrwt>
<pdfrwt beam="1">  1        2 0.80574690E-02 0.79709166E+02</pdfrwt>
<pdfrwt beam="2">  1       -1 0.46658543E-02 0.79709166E+02</pdfrwt>
<totfact> 0.15246752E+05</totfact>
</mgrwt>
</event>
<event>
 8    1  0.2433467E-024  0.7906291E+02  0.7818608E-02  0.1331732E+00
          2   -1    0    0  501    0  0.00000000000E+00  0.00000000000E+00  0.26015041255E+03  0.26015041256E+03  0.25500000000E-02 0. -1.
         -1   -1    0    0    0  501 -0.00000000000E+00 -0.00000000000E+00 -0.60070467915E+01  0.60070489058E+01  0.50400000000E-02 0.  1.
         24    2    1    2    0    0  0.00000000000E+00  0.71054273576E-14  0.25414336576E+03  0.26615746147E+03  0.79062911255E+02 0.  0.
         66    2    3    3    0    0 -0.16916765984E+02 -0.35466944412E+02  0.14088914043E+03  0.14627997469E+03  0.19999967780E+01 0.  0.
        -13    1    3    3    0    0  0.16916765984E+02  0.35466944412E+02  0.11325422533E+03  0.11987748677E+03  0.10566000000E+00 0.  1.
         13    1    4    4    0    0 -0.53419790511E+00 -0.10613927355E+01  0.44658444293E+01  0.46224292795E+01  0.10566000000E+00 0. -1.
        -13    1    4    4    0    0 -0.12676951037E+02 -0.28295398693E+02  0.11084658532E+03  0.11510130892E+03  0.10566000000E+00 0.  1.
        -14    1    4    4    0    0 -0.37056170418E+01 -0.61101529836E+01  0.25576710684E+02  0.26556236490E+02  0.00000000000E+00 0.  1.
<mgrwt>
<rscale>  0 0.79062911E+02</rscale>
<asrwt>0</asrwt>
<pdfrwt beam="1">  1        2 0.40023134E-01 0.79062911E+02</pdfrwt>
<pdfrwt beam="2">  1       -1 0.92416135E-03 0.79062911E+02</pdfrwt>
<totfact> 0.24973074E+05</totfact>
</mgrwt>
</event>
<event>
 8    1  0.2433467E-024  0.7862966E+02  0.7818608E-02  0.1332986E+00
         -1   -1    0    0    0  501 -0.00000000000E+00  0.00000000000E+00  0.58589774144E+01  0.58589795821E+01  0.50400000000E-02 0.  1.
          2   -1    0    0  501    0  0.00000000000E+00 -0.00000000000E+00 -0.26380975794E+03  0.26380975795E+03  0.25500000000E-02 0. -1.
         24    2    1    2    0    0 -0.35527136788E-14  0.00000000000E+00 -0.25795078052E+03  0.26966873753E+03  0.78629656171E+02 0.  0.
         66    2    3    3    0    0 -0.24096854789E+02  0.28842307484E+02 -0.16832926087E+03  0.17248558539E+03  0.19999974684E+01 0.  0.
        -13    1    3    3    0    0  0.24096854789E+02 -0.28842307484E+02 -0.89621519654E+02  0.97183152145E+02  0.10566000000E+00 0.  1.
         13    1    4    4    0    0 -0.47866547523E+01  0.48038265535E+01 -0.32206090033E+02  0.32912493259E+02  0.10566000000E+00 0.  1.
        -13    1    4    4    0    0 -0.14928211579E+01  0.18866027730E+01 -0.11253531087E+02  0.11508297485E+02  0.10566000000E+00 0. -1.
        -14    1    4    4    0    0 -0.17817378878E+02  0.22151878157E+02 -0.12486963975E+03  0.12806479464E+03  0.00000000000E+00 0.  1.
<mgrwt>
<rscale>  0 0.78629656E+02</rscale>
<asrwt>0</asrwt>
<pdfrwt beam="1">  1        2 0.40586107E-01 0.78629656E+02</pdfrwt>
<pdfrwt beam="2">  1       -1 0.90138151E-03 0.78629656E+02</pdfrwt>
<totfact> 0.25463636E+05</totfact>
</mgrwt>
</event>
<event>
 8    1  0.2433467E-024  0.7975021E+02  0.7818608E-02  0.1329762E+00
         -1   -1    0    0    0  501 -0.00000000000E+00  0.00000000000E+00  0.27680497621E+01  0.27680543505E+01  0.50400000000E-02 0.  1.
          2   -1    0    0  501    0  0.00000000000E+00 -0.00000000000E+00 -0.57441976390E+03  0.57441976390E+03  0.25500000000E-02 0. -1.
         24    2    1    2    0    0  0.71054273576E-14  0.00000000000E+00 -0.57165171413E+03  0.57718781825E+03  0.79750205432E+02 0.  0.
         66    2    3    3    0    0  0.35453011548E+02  0.10959397367E+02 -0.39113371006E+03  0.39289515596E+03  0.20000018824E+01 0.  0.
        -13    1    3    3    0    0 -0.35453011548E+02 -0.10959397367E+02 -0.18051800407E+03  0.18429266230E+03  0.10566000000E+00 0.  1.
         13    1    4    4    0    0  0.74816361836E+01  0.30747978617E+01 -0.87340946561E+02  0.87714772827E+02  0.10566000000E+00 0. -1.
        -13    1    4    4    0    0  0.15170457071E+02  0.42796531582E+01 -0.16822898232E+03  0.16896585411E+03  0.10566000000E+00 0.  1.
         14    1    4    4    0    0  0.12800918294E+02  0.36049463472E+01 -0.13556378118E+03  0.13621452901E+03  0.00000000000E+00 0. -1.
<mgrwt>
<rscale>  0 0.79750205E+02</rscale>
<asrwt>0</asrwt>
<pdfrwt beam="1">  1        2 0.88372177E-01 0.79750205E+02</pdfrwt>
<pdfrwt beam="2">  1       -1 0.42585462E-03 0.79750205E+02</pdfrwt>
<totfact> 0.32027401E+05</totfact>
</mgrwt>
</event>
<event>
 8    1  0.2433467E-024  0.7828971E+02  0.7818608E-02  0.1333976E+00
          2   -1    0    0  501    0  0.00000000000E+00  0.00000000000E+00  0.44867047432E+02  0.44867047504E+02  0.25500000000E-02 0. -1.
         -1   -1    0    0    0  501 -0.00000000000E+00 -0.00000000000E+00 -0.34152448281E+02  0.34152448653E+02  0.50400000000E-02 0.  1.
         24    2    1    2    0    0  0.00000000000E+00  0.00000000000E+00  0.10714599150E+02  0.79019496157E+02  0.78289706463E+02 0.  0.
         66    2    3    3    0    0  0.24471096513E+02  0.30382054570E+02  0.24336136016E+01  0.39138552210E+02  0.19999973686E+01 0.  0.
        -13    1    3    3    0    0 -0.24471096513E+02 -0.30382054570E+02  0.82809855487E+01  0.39880943947E+02  0.10566000000E+00 0.  1.
         13    1    4    4    0    0  0.11602163729E+02  0.15704747819E+02  0.94670910403E+00  0.19548829362E+02  0.10566000000E+00 0. -1.
        -13    1    4    4    0    0  0.89400267592E+01  0.97100140445E+01  0.10832007229E+01  0.13243599928E+02  0.10566000000E+00 0.  1.
        -14    1    4    4    0    0  0.39289060248E+01  0.49672927061E+01  0.40370377460E+00  0.63461229201E+01  0.00000000000E+00 0.  1.
<mgrwt>
<rscale>  0 0.78289706E+02</rscale>
<asrwt>0</asrwt>
<pdfrwt beam="1">  1        2 0.69026227E-02 0.78289706E+02</pdfrwt>
<pdfrwt beam="2">  1       -1 0.52542229E-02 0.78289706E+02</pdfrwt>
<totfact> 0.15492939E+05</totfact>
</mgrwt>
</event>
<event>
 8    1  0.2433467E-024  0.8103638E+02  0.7818608E-02  0.1326136E+00
          2   -1    0    0  501    0  0.00000000000E+00  0.00000000000E+00  0.65915259964E+03  0.65915259965E+03  0.25500000000E-02 0. -1.
         -1   -1    0    0    0  501 -0.00000000000E+00 -0.00000000000E+00 -0.24906552677E+01  0.24906603671E+01  0.50400000000E-02 0.  1.
         24    2    1    2    0    0  0.00000000000E+00  0.00000000000E+00  0.65666194437E+03  0.66164326001E+03  0.81036376601E+02 0.  0.
         66    2    3    3    0    0  0.28467633276E+01  0.32751669319E+02  0.52156161095E+03  0.52260050702E+03  0.20000041695E+01 0.  0.
        -13    1    3    3    0    0 -0.28467633276E+01 -0.32751669319E+02  0.13510033342E+03  0.13904275299E+03  0.10566000000E+00 0.  1.
         13    1    4    4    0    0  0.20015834541E+01  0.22033961959E+02  0.35347994764E+03  0.35417169051E+03  0.10566000000E+00 0. -1.
        -13    1    4    4    0    0  0.13287721195E+00  0.53608505721E+01  0.76415465592E+02  0.76603465462E+02  0.10566000000E+00 0.  1.
         14    1    4    4    0    0  0.71230266151E+00  0.53568567883E+01  0.91666197722E+02  0.91825351045E+02  0.00000000000E+00 0. -1.
<mgrwt>
<rscale>  0 0.81036377E+02</rscale>
<asrwt>0</asrwt>
<pdfrwt beam="1">  1        2 0.10140822E+00 0.81036377E+02</pdfrwt>
<pdfrwt beam="2">  1       -1 0.38317766E-03 0.81036377E+02</pdfrwt>
<totfact> 0.31887286E+05</totfact>
</mgrwt>
</event>
<event>
 8    1  0.2433467E-024  0.8201884E+02  0.7818608E-02  0.1323418E+00
         -1   -1    0    0    0  501 -0.00000000000E+00  0.00000000000E+00  0.12839772925E+02  0.12839773915E+02  0.50400000000E-02 0.  1.
          2   -1    0    0  501    0  0.00000000000E+00 -0.00000000000E+00 -0.13098147893E+03  0.13098147896E+03  0.25500000000E-02 0. -1.
         24    2    1    2    0    0  0.00000000000E+00  0.00000000000E+00 -0.11814170601E+03  0.14382125287E+03  0.82018839784E+02 0.  0.
         66    2    3    3    0    0 -0.36412209078E+02  0.30298724719E+01 -0.91663622696E+02  0.98697765009E+02  0.19999987019E+01 0.  0.
        -13    1    3    3    0    0  0.36412209078E+02 -0.30298724719E+01 -0.26478083313E+02  0.45123487865E+02  0.10566000000E+00 0.  1.
         13    1    4    4    0    0 -0.13721931921E+02  0.14259161526E+01 -0.35835326357E+02  0.38399302490E+02  0.10566000000E+00 0.  1.
        -13    1    4    4    0    0 -0.17292379403E+01  0.20533526181E+00 -0.34979555222E+01  0.39088723815E+01  0.10566000000E+00 0. -1.
         14    1    4    4    0    0 -0.20961039217E+02  0.13986210575E+01 -0.52330340817E+02  0.56389590138E+02  0.00000000000E+00 0. -1.
<mgrwt>
<rscale>  0 0.82018840E+02</rscale>
<asrwt>0</asrwt>
<pdfrwt beam="1">  1        2 0.20150996E-01 0.82018840E+02</pdfrwt>
<pdfrwt beam="2">  1       -1 0.19753499E-02 0.82018840E+02</pdfrwt>
<totfact> 0.17957840E+05</totfact>
</mgrwt>
</event>
<event>
 8    1  0.2433467E-024  0.7947494E+02  0.7818608E-02  0.1330548E+00
          2   -1    0    0  501    0  0.00000000000E+00  0.00000000000E+00  0.13827502926E+02  0.13827503161E+02  0.25500000000E-02 0. -1.
         -1   -1    0    0    0  501 -0.00000000000E+00 -0.00000000000E+00 -0.11419753108E+03  0.11419753119E+03  0.50400000000E-02 0.  1.
         24    2    1    2    0    0  0.35527136788E-14  0.00000000000E+00 -0.10037002815E+03  0.12802503435E+03  0.79474944915E+02 0.  0.
         66    2    3    3    0    0 -0.31109630062E+02  0.23276799066E+02 -0.63445922461E+02  0.74424482091E+02  0.20000000790E+01 0.  0.
        -13    1    3    3    0    0  0.31109630062E+02 -0.23276799066E+02 -0.36924105692E+02  0.53600552259E+02  0.10566000000E+00 0.  1.
         13    1    4    4    0    0 -0.11062963679E+02  0.73570936628E+01 -0.22182740091E+02  0.25857322261E+02  0.10566000000E+00 0. -1.
        -13    1    4    4    0    0 -0.18776980603E+02  0.14627619841E+02 -0.38449039837E+02  0.45220372523E+02  0.10566000000E+00 0.  1.
         14    1    4    4    0    0 -0.12696857801E+01  0.12920855628E+01 -0.28141425327E+01  0.33467873066E+01  0.00000000000E+00 0. -1.
<mgrwt>
<rscale>  0 0.79474945E+02</rscale>
<asrwt>0</asrwt>
<pdfrwt beam="1">  1        2 0.21273082E-02 0.79474945E+02</pdfrwt>
<pdfrwt beam="2">  1       -1 0.17568850E-01 0.79474945E+02</pdfrwt>
<totfact> 0.11704622E+05</totfact>
</mgrwt>
</event>
<event>
 8    1  0.2433467E-024  0.7948437E+02  0.7818608E-02  0.1330521E+00
          2   -1    0    0  501    0  0.00000000000E+00  0.00000000000E+00  0.17694921508E+02  0.17694921692E+02  0.25500000000E-02 0. -1.
         -1   -1    0    0    0  501 -0.00000000000E+00 -0.00000000000E+00 -0.89259583812E+02  0.89259583954E+02  0.50400000000E-02 0.  1.
         24    2    1    2    0    0  0.00000000000E+00  0.00000000000E+00 -0.71564662303E+02  0.10695450565E+03  0.79484371970E+02 0.  0.
         66    2    3    3    0    0  0.47220283002E+01 -0.33749594130E+02 -0.83564525930E+01  0.35144885162E+02  0.19999994806E+01 0.  0.
        -13    1    3    3    0    0 -0.47220283002E+01  0.33749594130E+02 -0.63208209710E+02  0.71809620484E+02  0.10566000000E+00 0.  1.
         13    1    4    4    0    0  0.10816662539E+01 -0.76034533501E+01 -0.20558817678E+01  0.79511205884E+01  0.10566000000E+00 0. -1.
        -13    1    4    4    0    0  0.13090660155E+00 -0.61004606104E+01 -0.15208212132E+01  0.62894210700E+01  0.10566000000E+00 0.  1.
        -14    1    4    4    0    0  0.35094554448E+01 -0.20045680170E+02 -0.47797496119E+01  0.20904343504E+02  0.00000000000E+00 0.  1.
<mgrwt>
<rscale>  0 0.79484372E+02</rscale>
<asrwt>0</asrwt>
<pdfrwt beam="1">  1        2 0.27222957E-02 0.79484372E+02</pdfrwt>
<pdfrwt beam="2">  1       -1 0.13732244E-01 0.79484372E+02</pdfrwt>
<totfact> 0.12336580E+05</totfact>
</mgrwt>
</event>
<event>
 8    1  0.2433467E-024  0.7450172E+02  0.7818608E-02  0.1345421E+00
         -1   -1    0    0    0  501 -0.00000000000E+00  0.00000000000E+00  0.22121777352E+01  0.22121834765E+01  0.50400000000E-02 0.  1.
          2   -1    0    0  501    0  0.00000000000E+00 -0.00000000000E+00 -0.62726641254E+03  0.62726641255E+03  0.25500000000E-02 0. -1.
         24    2    1    2    0    0  0.00000000000E+00  0.00000000000E+00 -0.62505423481E+03  0.62947859602E+03  0.74501720800E+02 0.  0.
         66    2    3    3    0    0  0.28751612032E+02 -0.29754959142E+01 -0.51092293925E+03  0.51174384092E+03  0.20000237824E+01 0.  0.
        -13    1    3    3    0    0 -0.28751612032E+02  0.29754959142E+01 -0.11413129556E+03  0.11773475511E+03  0.10566000000E+00 0.  1.
         13    1    4    4    0    0  0.65693908311E+01  0.48379431727E-01 -0.12132088759E+03  0.12149867557E+03  0.10566000000E+00 0. -1.
        -13    1    4    4    0    0  0.11875939320E+02 -0.18833627299E+01 -0.21091227042E+03  0.21125477975E+03  0.10566000000E+00 0.  1.
         14    1    4    4    0    0  0.10306281881E+02 -0.11405126160E+01 -0.17868978124E+03  0.17899038559E+03  0.00000000000E+00 0. -1.
<mgrwt>
<rscale>  0 0.74501721E+02</rscale>
<asrwt>0</asrwt>
<pdfrwt beam="1">  1        2 0.96502383E-01 0.74501721E+02</pdfrwt>
<pdfrwt beam="2">  1       -1 0.34033598E-03 0.74501721E+02</pdfrwt>
<totfact> 0.39152707E+05</totfact>
</mgrwt>
</event>
<event>
 8    1  0.2433467E-024  0.8048597E+02  0.7818608E-02  0.1327678E+00
         -1   -1    0    0    0  501 -0.00000000000E+00  0.00000000000E+00  0.20908886086E+01  0.20908946829E+01  0.50400000000E-02 0.  1.
          2   -1    0    0  501    0  0.00000000000E+00 -0.00000000000E+00 -0.77454889593E+03  0.77454889593E+03  0.25500000000E-02 0. -1.
         24    2    1    2    0    0 -0.17763568394E-14 -0.88817841970E-15 -0.77245800732E+03  0.77663979061E+03  0.80485969552E+02 0.  0.
         66    2    3    3    0    0 -0.91715177674E+01 -0.40757350869E+01 -0.76226834756E+03  0.76233703966E+03  0.20000002618E+01 0.  0.
        -13    1    3    3    0    0  0.91715177674E+01  0.40757350868E+01 -0.10189659760E+02  0.14302750949E+02  0.10566000000E+00 0.  1.
         13    1    4    4    0    0 -0.15828182469E+01 -0.45492971465E+00 -0.10478786279E+03  0.10480085699E+03  0.10566000000E+00 0. -1.
        -13    1    4    4    0    0 -0.36844764607E+01 -0.11725494995E+01 -0.34577870658E+03  0.34580034027E+03  0.10566000000E+00 0.  1.
        -14    1    4    4    0    0 -0.39042230597E+01 -0.24482558727E+01 -0.31170177819E+03  0.31173584241E+03  0.00000000000E+00 0.  1.
<mgrwt>
<rscale>  0 0.80485970E+02</rscale>
<asrwt>0</asrwt>
<pdfrwt beam="1">  1        2 0.11916114E+00 0.80485970E+02</pdfrwt>
<pdfrwt beam="2">  1       -1 0.32167626E-03 0.80485970E+02</pdfrwt>
<totfact> 0.33632666E+05</totfact>
</mgrwt>
</event>
<event>
 8    1  0.2433467E-024  0.8024532E+02  0.7818608E-02  0.1328357E+00
         -1   -1    0    0    0  501 -0.00000000000E+00  0.00000000000E+00  0.24410342106E+01  0.24410394137E+01  0.50400000000E-02 0.  1.
          2   -1    0    0  501    0  0.00000000000E+00 -0.00000000000E+00 -0.65948533075E+03  0.65948533075E+03  0.25500000000E-02 0. -1.
         24    2    1    2    0    0 -0.71054273576E-14  0.44408920985E-15 -0.65704429654E+03  0.66192637016E+03  0.80245323288E+02 0.  0.
         66    2    3    3    0    0  0.33045609819E+02 -0.30090971658E+01 -0.51441603372E+03  0.51548901321E+03  0.19999994787E+01 0.  0.
        -13    1    3    3    0    0 -0.33045609819E+02  0.30090971658E+01 -0.14262826281E+03  0.14643735695E+03  0.10566000000E+00 0.  1.
         13    1    4    4    0    0  0.42621822278E+01 -0.27230994339E+00 -0.68786784980E+02  0.68919324590E+02  0.10566000000E+00 0. -1.
        -13    1    4    4    0    0  0.17982739333E+02 -0.21084334914E+01 -0.26724769374E+03  0.26786034678E+03  0.10566000000E+00 0.  1.
        -14    1    4    4    0    0  0.10800688258E+02 -0.62835373100E+00 -0.17838155500E+03  0.17870934184E+03  0.00000000000E+00 0.  1.
<mgrwt>
<rscale>  0 0.80245323E+02</rscale>
<asrwt>0</asrwt>
<pdfrwt beam="1">  1        2 0.10145914E+00 0.80245323E+02</pdfrwt>
<pdfrwt beam="2">  1       -1 0.37554465E-03 0.80245323E+02</pdfrwt>
<totfact> 0.32715948E+05</totfact>
</mgrwt>
</event>
<event>
 8    1  0.2433467E-024  0.7958022E+02  0.7818608E-02  0.1330247E+00
          2   -1    0    0  501    0  0.00000000000E+00  0.00000000000E+00  0.46954581188E+03  0.46954581189E+03  0.25500000000E-02 0. -1.
         -1   -1    0    0    0  501 -0.00000000000E+00 -0.00000000000E+00 -0.33718795473E+01  0.33718833140E+01  0.50400000000E-02 0.  1.
         24    2    1    2    0    0  0.35527136788E-14  0.88817841970E-15  0.46617393233E+03  0.47291769520E+03  0.79580218947E+02 0.  0.
         66    2    3    3    0    0  0.15128228013E+02  0.70717032975E+01  0.44769488990E+03  0.44801069932E+03  0.19999992248E+01 0.  0.
        -13    1    3    3    0    0 -0.15128228013E+02 -0.70717032975E+01  0.18479042437E+02  0.24906995880E+02  0.10566000000E+00 0.  1.
         13    1    4    4    0    0  0.10363911014E+02  0.49940072054E+01  0.30088595131E+03  0.30110582462E+03  0.10566000000E+00 0. -1.
        -13    1    4    4    0    0  0.14945408641E+01  0.54627688863E+00  0.59381953766E+02  0.59403364113E+02  0.10566000000E+00 0.  1.
        -14    1    4    4    0    0  0.32697761356E+01  0.15314192034E+01  0.87426984823E+02  0.87501510592E+02  0.00000000000E+00 0.  1.
<mgrwt>
<rscale>  0 0.79580219E+02</rscale>
<asrwt>0</asrwt>
<pdfrwt beam="1">  1        2 0.72237793E-01 0.79580219E+02</pdfrwt>
<pdfrwt beam="2">  1       -1 0.51875116E-03 0.79580219E+02</pdfrwt>
<totfact> 0.30249463E+05</totfact>
</mgrwt>
</event>
<event>
 8    1  0.2433467E-024  0.8104596E+02  0.7818608E-02  0.1326109E+00
          2   -1    0    0  501    0  0.00000000000E+00  0.00000000000E+00  0.10611728506E+04  0.10611728506E+04  0.25500000000E-02 0. -1.
         -1   -1    0    0    0  501 -0.00000000000E+00 -0.00000000000E+00 -0.15474460456E+01  0.15474542532E+01  0.50400000000E-02 0.  1.
         24    2    1    2    0    0 -0.17763568394E-14  0.00000000000E+00  0.10596254045E+04  0.10627203048E+04  0.81045964592E+02 0.  0.
         66    2    3    3    0    0 -0.15305884885E+02  0.98903737803E+01  0.10043702717E+04  0.10045375714E+04  0.20000012776E+01 0.  0.
        -13    1    3    3    0    0  0.15305884885E+02 -0.98903737803E+01  0.55255132856E+02  0.58182733492E+02  0.10566000000E+00 0.  1.
         13    1    4    4    0    0 -0.95684056364E+01  0.59301641642E+01  0.63713037767E+03  0.63722982553E+03  0.10566000000E+00 0. -1.
        -13    1    4    4    0    0 -0.23389330749E+01  0.19481365366E+01  0.18488661159E+03  0.18491169826E+03  0.10566000000E+00 0.  1.
         14    1    4    4    0    0 -0.33985461741E+01  0.20120730795E+01  0.18235328243E+03  0.18239604756E+03  0.00000000000E+00 0. -1.
<mgrwt>
<rscale>  0 0.81045965E+02</rscale>
<asrwt>0</asrwt>
<pdfrwt beam="1">  1        2 0.16325775E+00 0.81045965E+02</pdfrwt>
<pdfrwt beam="2">  1       -1 0.23806869E-03 0.81045965E+02</pdfrwt>
<totfact> 0.34102816E+05</totfact>
</mgrwt>
</event>
<event>
 8    1  0.2433467E-024  0.7988242E+02  0.7818608E-02  0.1329385E+00
          2   -1    0    0  501    0  0.00000000000E+00  0.00000000000E+00  0.14124739225E+02  0.14124739455E+02  0.25500000000E-02 0. -1.
         -1   -1    0    0    0  501 -0.00000000000E+00 -0.00000000000E+00 -0.11294369728E+03  0.11294369739E+03  0.50400000000E-02 0.  1.
         24    2    1    2    0    0  0.00000000000E+00  0.00000000000E+00 -0.98818958055E+02  0.12706843685E+03  0.79882420917E+02 0.  0.
         66    2    3    3    0    0  0.89943746469E+01 -0.27792651234E+02 -0.61698473298E+01  0.29923189304E+02  0.20000010322E+01 0.  0.
        -13    1    3    3    0    0 -0.89943746469E+01  0.27792651234E+02 -0.92649110726E+02  0.97145247543E+02  0.10566000000E+00 0.  1.
         13    1    4    4    0    0  0.56643772244E+01 -0.16742911098E+02 -0.41787430816E+01  0.18162689755E+02  0.10566000000E+00 0. -1.
        -13    1    4    4    0    0  0.23342111128E+01 -0.59347717701E+01 -0.11912267255E+01  0.64884699760E+01  0.10566000000E+00 0.  1.
        -14    1    4    4    0    0  0.99578630964E+00 -0.51149683667E+01 -0.79987752272E+00  0.52720295730E+01  0.00000000000E+00 0.  1.
<mgrwt>
<rscale>  0 0.79882421E+02</rscale>
<asrwt>0</asrwt>
<pdfrwt beam="1">  1        2 0.21730369E-02 0.79882421E+02</pdfrwt>
<pdfrwt beam="2">  1       -1 0.17375953E-01 0.79882421E+02</pdfrwt>
<totfact> 0.11584202E+05</totfact>
</mgrwt>
</event>
<event>
 8    1  0.2433467E-024  0.7985083E+02  0.7818608E-02  0.1329475E+00
         -1   -1    0    0    0  501 -0.00000000000E+00  0.00000000000E+00  0.66410840266E+02  0.66410840457E+02  0.50400000000E-02 0.  1.
          2   -1    0    0  501    0  0.00000000000E+00 -0.00000000000E+00 -0.24002691811E+02  0.24002691947E+02  0.25500000000E-02 0. -1.
         24    2    1    2    0    0 -0.44408920985E-15  0.00000000000E+00  0.42408148455E+02  0.90413532404E+02  0.79850834601E+02 0.  0.
         66    2    3    3    0    0  0.33151180776E+01  0.17506264860E+02 -0.19206412763E+02  0.26274428611E+02  0.19999976003E+01 0.  0.
        -13    1    3    3    0    0 -0.33151180776E+01 -0.17506264860E+02  0.61614561218E+02  0.64139103793E+02  0.10566000000E+00 0.  1.
         13    1    4    4    0    0  0.14209438754E+01  0.59413876801E+01 -0.69635804373E+01  0.92640048362E+01  0.10566000000E+00 0. -1.
        -13    1    4    4    0    0  0.17485972780E+01  0.66200071206E+01 -0.66858919330E+01  0.95704964183E+01  0.10566000000E+00 0.  1.
        -14    1    4    4    0    0  0.14557692423E+00  0.49448700595E+01 -0.55569403928E+01  0.74399273568E+01  0.00000000000E+00 0.  1.
<mgrwt>
<rscale>  0 0.79850835E+02</rscale>
<asrwt>0</asrwt>
<pdfrwt beam="1">  1        2 0.36927218E-02 0.79850835E+02</pdfrwt>
<pdfrwt beam="2">  1       -1 0.10217052E-01 0.79850835E+02</pdfrwt>
<totfact> 0.12944790E+05</totfact>
</mgrwt>
</event>
<event>
 8    1  0.2433467E-024  0.7973864E+02  0.7818608E-02  0.1329795E+00
          2   -1    0    0  501    0  0.00000000000E+00  0.00000000000E+00  0.12816556210E+04  0.12816556210E+04  0.25500000000E-02 0. -1.
         -1   -1    0    0    0  501 -0.00000000000E+00 -0.00000000000E+00 -0.12402364741E+01  0.12402467147E+01  0.50400000000E-02 0.  1.
         24    2    1    2    0    0  0.00000000000E+00  0.00000000000E+00  0.12804153846E+04  0.12828958677E+04  0.79738638535E+02 0.  0.
         66    2    3    3    0    0  0.22460045970E+02  0.93260612166E+01  0.11483948200E+04  0.11486540348E+04  0.19999951176E+01 0.  0.
        -13    1    3    3    0    0 -0.22460045970E+02 -0.93260612166E+01  0.13202056453E+03  0.13424183292E+03  0.10566000000E+00 0.  1.
         13    1    4    4    0    0  0.67772228596E+01  0.29400684917E+01  0.37059270212E+03  0.37066634158E+03  0.10566000000E+00 0. -1.
        -13    1    4    4    0    0  0.12035630751E+02  0.51530894942E+01  0.57509814833E+03  0.57524716611E+03  0.10566000000E+00 0.  1.
        -14    1    4    4    0    0  0.36471923591E+01  0.12329032307E+01  0.20270396958E+03  0.20274052714E+03  0.00000000000E+00 0.  1.
<mgrwt>
<rscale>  0 0.79738639E+02</rscale>
<asrwt>0</asrwt>
<pdfrwt beam="1">  1        2 0.19717836E+00 0.79738639E+02</pdfrwt>
<pdfrwt beam="2">  1       -1 0.19080584E-03 0.79738639E+02</pdfrwt>
<totfact> 0.35004689E+05</totfact>
</mgrwt>
</event>
<event>
 8    1  0.2433467E-024  0.8618927E+02  0.7818608E-02  0.1312351E+00
         -1   -1    0    0    0  501 -0.00000000000E+00  0.00000000000E+00  0.10020070338E+03  0.10020070350E+03  0.50400000000E-02 0.  1.
          2   -1    0    0  501    0  0.00000000000E+00 -0.00000000000E+00 -0.18534277853E+02  0.18534278028E+02  0.25500000000E-02 0. -1.
         24    2    1    2    0    0  0.00000000000E+00  0.00000000000E+00  0.81666425525E+02  0.11873498153E+03  0.86189273007E+02 0.  0.
         66    2    3    3    0    0 -0.23901136276E+02  0.92074401887E+01 -0.68487107468E+01  0.26588458086E+02  0.19999985934E+01 0.  0.
        -13    1    3    3    0    0  0.23901136276E+02 -0.92074401887E+01  0.88515136271E+02  0.92146523446E+02  0.10566000000E+00 0.  1.
         13    1    4    4    0    0 -0.10670878675E+02  0.42985121856E+01 -0.26838823788E+01  0.11813519686E+02  0.10566000000E+00 0. -1.
        -13    1    4    4    0    0 -0.58667671560E+01  0.21059811589E+01 -0.25310127932E+01  0.67283952990E+01  0.10566000000E+00 0.  1.
        -14    1    4    4    0    0 -0.73634904446E+01  0.28029468442E+01 -0.16338155748E+01  0.80465431007E+01  0.00000000000E+00 0.  1.
<mgrwt>
<rscale>  0 0.86189273E+02</rscale>
<asrwt>0</asrwt>
<pdfrwt beam="1">  1        2 0.28514273E-02 0.86189273E+02</pdfrwt>
<pdfrwt beam="2">  1       -1 0.15415493E-01 0.86189273E+02</pdfrwt>
<totfact> 0.98400372E+04</totfact>
</mgrwt>
</event>
<event>
 8    1  0.2433467E-024  0.7950469E+02  0.7818608E-02  0.1330463E+00
         -1   -1    0    0    0  501 -0.00000000000E+00  0.00000000000E+00  0.48107607920E+01  0.48107634320E+01  0.50400000000E-02 0.  1.
          2   -1    0    0  501    0  0.00000000000E+00 -0.00000000000E+00 -0.32848201654E+03  0.32848201655E+03  0.25500000000E-02 0. -1.
         24    2    1    2    0    0  0.00000000000E+00 -0.55511151231E-16 -0.32367125575E+03  0.33329277999E+03  0.79504687853E+02 0.  0.
         66    2    3    3    0    0  0.33524122443E+02 -0.28993266210E+00 -0.25128912336E+03  0.25352351836E+03  0.19999991860E+01 0.  0.
        -13    1    3    3    0    0 -0.33524122443E+02  0.28993266210E+00 -0.72382132395E+02  0.79769261628E+02  0.10566000000E+00 0.  1.
         13    1    4    4    0    0  0.51167385322E+01 -0.50655760201E+00 -0.39533853367E+02  0.39866957996E+02  0.10566000000E+00 0. -1.
        -13    1    4    4    0    0  0.91642137794E+01 -0.47558250175E+00 -0.66120186914E+02  0.66754020662E+02  0.10566000000E+00 0.  1.
        -14    1    4    4    0    0  0.19243170131E+02  0.69220744167E+00 -0.14563508308E+03  0.14690253970E+03  0.00000000000E+00 0.  1.
<mgrwt>
<rscale>  0 0.79504688E+02</rscale>
<asrwt>0</asrwt>
<pdfrwt beam="1">  1        2 0.50535677E-01 0.79504688E+02</pdfrwt>
<pdfrwt beam="2">  1       -1 0.74011751E-03 0.79504688E+02</pdfrwt>
<totfact> 0.26775186E+05</totfact>
</mgrwt>
</event>
<event>
 8    1  0.2433467E-024  0.8053426E+02  0.7818608E-02  0.1327542E+00
         -1   -1    0    0    0  501 -0.00000000000E+00  0.00000000000E+00  0.14115103365E+03  0.14115103374E+03  0.50400000000E-02 0.  1.
          2   -1    0    0  501    0  0.00000000000E+00 -0.00000000000E+00 -0.11487283060E+02  0.11487283343E+02  0.25500000000E-02 0. -1.
         24    2    1    2    0    0 -0.88817841970E-15  0.71054273576E-14  0.12966375059E+03  0.15263831708E+03  0.80534263670E+02 0.  0.
         66    2    3    3    0    0 -0.27975737686E+01  0.36208880965E+02  0.32014972268E+02  0.48454803265E+02  0.20000075988E+01 0.  0.
        -13    1    3    3    0    0  0.27975737686E+01 -0.36208880965E+02  0.97648778320E+02  0.10418351382E+03  0.10566000000E+00 0.  1.
         13    1    4    4    0    0 -0.24061051112E+01  0.28130165754E+02  0.24885540224E+02  0.37635048073E+02  0.10566000000E+00 0. -1.
        -13    1    4    4    0    0 -0.34132885970E+00  0.71961945977E+01  0.59404618365E+01  0.93381996629E+01  0.10566000000E+00 0.  1.
        -14    1    4    4    0    0 -0.50139797740E-01  0.88252061318E+00  0.11889702075E+01  0.14815555293E+01  0.00000000000E+00 0.  1.
<mgrwt>
<rscale>  0 0.80534264E+02</rscale>
<asrwt>0</asrwt>
<pdfrwt beam="1">  1        2 0.17672744E-02 0.80534264E+02</pdfrwt>
<pdfrwt beam="2">  1       -1 0.21715544E-01 0.80534264E+02</pdfrwt>
<totfact> 0.10770733E+05</totfact>
</mgrwt>
</event>
<event>
 8    1  0.2433467E-024  0.8051060E+02  0.7818608E-02  0.1327609E+00
          2   -1    0    0  501    0  0.00000000000E+00  0.00000000000E+00  0.62190416737E+02  0.62190416789E+02  0.25500000000E-02 0. -1.
         -1   -1    0    0    0  501 -0.00000000000E+00 -0.00000000000E+00 -0.26056892275E+02  0.26056892762E+02  0.50400000000E-02 0.  1.
         24    2    1    2    0    0  0.00000000000E+00  0.00000000000E+00  0.36133524462E+02  0.88247309551E+02  0.80510595905E+02 0.  0.
         66    2    3    3    0    0  0.27041093246E+02  0.10620267611E+02  0.48581518174E+02  0.56640751378E+02  0.20000001458E+01 0.  0.
        -13    1    3    3    0    0 -0.27041093246E+02 -0.10620267611E+02 -0.12447993712E+02  0.31606558173E+02  0.10566000000E+00 0.  1.
         13    1    4    4    0    0  0.50437061739E+00  0.34848025497E+00  0.10617286562E+01  0.12305527144E+01  0.10566000000E+00 0. -1.
        -13    1    4    4    0    0  0.25007698730E+02  0.93826064043E+01  0.45036189793E+02  0.52361129226E+02  0.10566000000E+00 0.  1.
        -14    1    4    4    0    0  0.15290238982E+01  0.88918095160E+00  0.24835997252E+01  0.30490694386E+01  0.00000000000E+00 0.  1.
<mgrwt>
<rscale>  0 0.80510596E+02</rscale>
<asrwt>0</asrwt>
<pdfrwt beam="1">  1        2 0.95677564E-02 0.80510596E+02</pdfrwt>
<pdfrwt beam="2">  1       -1 0.40087527E-02 0.80510596E+02</pdfrwt>
<totfact> 0.15427309E+05</totfact>
</mgrwt>
</event>
<event>
 8    1  0.2433467E-024  0.7938827E+02  0.7818608E-02  0.1330796E+00
         -1   -1    0    0    0  501 -0.00000000000E+00  0.00000000000E+00  0.22954075246E+03  0.22954075252E+03  0.50400000000E-02 0.  1.
          2   -1    0    0  501    0  0.00000000000E+00 -0.00000000000E+00 -0.68642459356E+01  0.68642464093E+01  0.25500000000E-02 0. -1.
         24    2    1    2    0    0 -0.88817841970E-15  0.00000000000E+00  0.22267650653E+03  0.23640499893E+03  0.79388267135E+02 0.  0.
         66    2    3    3    0    0  0.70766259589E+01 -0.36638594280E+02  0.71329026859E+02  0.80525122126E+02  0.19999987289E+01 0.  0.
        -13    1    3    3    0    0 -0.70766259589E+01  0.36638594280E+02  0.15134747967E+03  0.15587987680E+03  0.10566000000E+00 0.  1.
         13    1    4    4    0    0  0.29462571590E+01 -0.13566969091E+02  0.24764473694E+02  0.28390727411E+02  0.10566000000E+00 0. -1.
        -13    1    4    4    0    0  0.18944614878E+01 -0.12163815193E+02  0.24685528232E+02  0.27585029500E+02  0.10566000000E+00 0.  1.
         14    1    4    4    0    0  0.22359073122E+01 -0.10907809996E+02  0.21879024933E+02  0.24549365214E+02  0.00000000000E+00 0. -1.
<mgrwt>
<rscale>  0 0.79388267E+02</rscale>
<asrwt>0</asrwt>
<pdfrwt beam="1">  1        2 0.10560378E-02 0.79388267E+02</pdfrwt>
<pdfrwt beam="2">  1       -1 0.35313964E-01 0.79388267E+02</pdfrwt>
<totfact> 0.97237114E+04</totfact>
</mgrwt>
</event>
<event>
 8    1  0.2433467E-024  0.7916382E+02  0.7818608E-02  0.1331441E+00
         -1   -1    0    0    0  501 -0.00000000000E+00  0.00000000000E+00  0.18789767703E+03  0.18789767710E+03  0.50400000000E-02 0.  1.
          2   -1    0    0  501    0  0.00000000000E+00 -0.00000000000E+00 -0.83381957564E+01  0.83381961463E+01  0.25500000000E-02 0. -1.
         24    2    1    2    0    0  0.00000000000E+00  0.00000000000E+00  0.17955948128E+03  0.19623587325E+03  0.79163821489E+02 0.  0.
         66    2    3    3    0    0 -0.33786987227E+02 -0.40968921413E+01  0.39866053324E+02  0.52456145857E+02  0.19999998539E+01 0.  0.
        -13    1    3    3    0    0  0.33786987227E+02  0.40968921413E+01  0.13969342795E+03  0.14377972739E+03  0.10566000000E+00 0.  1.
         13    1    4    4    0    0 -0.73396977206E+01 -0.14073270036E+01  0.94726086917E+01  0.12066201200E+02  0.10566000000E+00 0.  1.
        -13    1    4    4    0    0 -0.14485458015E+02 -0.15692358385E+01  0.15965393052E+02  0.21614715691E+02  0.10566000000E+00 0. -1.
        -14    1    4    4    0    0 -0.11961831492E+02 -0.11203292992E+01  0.14428051580E+02  0.18775228967E+02  0.00000000000E+00 0.  1.
<mgrwt>
<rscale>  0 0.79163821E+02</rscale>
<asrwt>0</asrwt>
<pdfrwt beam="1">  1        2 0.12827994E-02 0.79163821E+02</pdfrwt>
<pdfrwt beam="2">  1       -1 0.28907333E-01 0.79163821E+02</pdfrwt>
<totfact> 0.10421133E+05</totfact>
</mgrwt>
</event>
<event>
 8    1  0.2433467E-024  0.7962662E+02  0.7818608E-02  0.1330114E+00
         -1   -1    0    0    0  501 -0.00000000000E+00  0.00000000000E+00  0.10411554408E+02  0.10411555628E+02  0.50400000000E-02 0.  1.
          2   -1    0    0  501    0  0.00000000000E+00 -0.00000000000E+00 -0.15224428815E+03  0.15224428818E+03  0.25500000000E-02 0. -1.
         24    2    1    2    0    0  0.00000000000E+00  0.00000000000E+00 -0.14183273375E+03  0.16265584380E+03  0.79626623445E+02 0.  0.
         66    2    3    3    0    0  0.31966791200E+02  0.23338039778E+02 -0.62649547780E+02  0.74131677926E+02  0.19999987038E+01 0.  0.
        -13    1    3    3    0    0 -0.31966791200E+02 -0.23338039778E+02 -0.79183185967E+02  0.88524165877E+02  0.10566000000E+00 0.  1.
         13    1    4    4    0    0  0.18637204092E+02  0.14316324555E+02 -0.37554868583E+02  0.44302165223E+02  0.10566000000E+00 0.  1.
        -13    1    4    4    0    0  0.42109541896E+01  0.31206480291E+01 -0.89192685976E+01  0.10345776706E+02  0.10566000000E+00 0. -1.
        -14    1    4    4    0    0  0.91186329192E+01  0.59010671939E+01 -0.16175410599E+02  0.19483735997E+02  0.00000000000E+00 0.  1.
<mgrwt>
<rscale>  0 0.79626623E+02</rscale>
<asrwt>0</asrwt>
<pdfrwt beam="1">  1        2 0.23422197E-01 0.79626623E+02</pdfrwt>
<pdfrwt beam="2">  1       -1 0.16017778E-02 0.79626623E+02</pdfrwt>
<totfact> 0.20377548E+05</totfact>
</mgrwt>
</event>
<event>
 8    1  0.2433467E-024  0.7784014E+02  0.7818608E-02  0.1335295E+00
         -1   -1    0    0    0  501 -0.00000000000E+00  0.00000000000E+00  0.43288707553E+02  0.43288707846E+02  0.50400000000E-02 0.  1.
          2   -1    0    0  501    0  0.00000000000E+00 -0.00000000000E+00 -0.34992307201E+02  0.34992307293E+02  0.25500000000E-02 0. -1.
         24    2    1    2    0    0  0.00000000000E+00 -0.88817841970E-15  0.82964003522E+01  0.78281015140E+02  0.77840137927E+02 0.  0.
         66    2    3    3    0    0  0.25332955638E+02  0.67540471909E+01 -0.24741409673E+02  0.36104198639E+02  0.20000029721E+01 0.  0.
        -13    1    3    3    0    0 -0.25332955638E+02 -0.67540471909E+01  0.33037810026E+02  0.42176816501E+02  0.10566000000E+00 0.  1.
         13    1    4    4    0    0  0.67988013698E+01  0.17403333505E+01 -0.59659781339E+01  0.92117598409E+01  0.10566000000E+00 0. -1.
        -13    1    4    4    0    0  0.16923881035E+02  0.41769913046E+01 -0.17204192327E+02  0.24492047756E+02  0.10566000000E+00 0.  1.
        -14    1    4    4    0    0  0.16102732339E+01  0.83672253583E+00 -0.15712392124E+01  0.24003910416E+01  0.00000000000E+00 0.  1.
<mgrwt>
<rscale>  0 0.77840138E+02</rscale>
<asrwt>0</asrwt>
<pdfrwt beam="1">  1        2 0.53834319E-02 0.77840138E+02</pdfrwt>
<pdfrwt beam="2">  1       -1 0.66598013E-02 0.77840138E+02</pdfrwt>
<totfact> 0.14968309E+05</totfact>
</mgrwt>
</event>
<event>
 8    1  0.2433467E-024  0.8368468E+02  0.7818608E-02  0.1318909E+00
          2   -1    0    0  501    0  0.00000000000E+00  0.00000000000E+00  0.25528736438E+03  0.25528736439E+03  0.25500000000E-02 0. -1.
         -1   -1    0    0    0  501 -0.00000000000E+00 -0.00000000000E+00 -0.68580805677E+01  0.68580824197E+01  0.50400000000E-02 0.  1.
         24    2    1    2    0    0  0.35527136788E-14  0.00000000000E+00  0.24842928381E+03  0.26214544681E+03  0.83684683359E+02 0.  0.
         66    2    3    3    0    0 -0.20414628527E+02  0.34316706807E+02  0.16320749010E+03  0.16803296777E+03  0.20000021902E+01 0.  0.
        -13    1    3    3    0    0  0.20414628527E+02 -0.34316706807E+02  0.85221793710E+02  0.94112479040E+02  0.10566000000E+00 0.  1.
         13    1    4    4    0    0 -0.15528328621E+02  0.24872336564E+02  0.12172761390E+03  0.12520936573E+03  0.10566000000E+00 0. -1.
        -13    1    4    4    0    0 -0.12648170253E+01  0.28133625393E+01  0.12352646053E+02  0.12732391741E+02  0.10566000000E+00 0.  1.
         14    1    4    4    0    0 -0.36214828805E+01  0.66310077033E+01  0.29127230145E+02  0.30091210300E+02  0.00000000000E+00 0. -1.
<mgrwt>
<rscale>  0 0.83684683E+02</rscale>
<asrwt>0</asrwt>
<pdfrwt beam="1">  1        2 0.39274973E-01 0.83684683E+02</pdfrwt>
<pdfrwt beam="2">  1       -1 0.10550896E-02 0.83684683E+02</pdfrwt>
<totfact> 0.21358398E+05</totfact>
</mgrwt>
</event>
<event>
 8    1  0.2433467E-024  0.7984587E+02  0.7818608E-02  0.1329489E+00
         -1   -1    0    0    0  501 -0.00000000000E+00  0.00000000000E+00  0.15742853392E+01  0.15742934068E+01  0.50400000000E-02 0.  1.
          2   -1    0    0  501    0  0.00000000000E+00 -0.00000000000E+00 -0.10124192680E+04  0.10124192680E+04  0.25500000000E-02 0. -1.
         24    2    1    2    0    0  0.00000000000E+00  0.00000000000E+00 -0.10108449826E+04  0.10139935614E+04  0.79845874097E+02 0.  0.
         66    2    3    3    0    0  0.14764298438E+02  0.54363746206E+01 -0.97135737481E+03  0.97148684411E+03  0.20000023442E+01 0.  0.
        -13    1    3    3    0    0 -0.14764298438E+02 -0.54363746206E+01 -0.39487607822E+02  0.42506717268E+02  0.10566000000E+00 0.  1.
         13    1    4    4    0    0  0.59885891407E+00  0.10420098843E+00 -0.24358807484E+02  0.24366619706E+02  0.10566000000E+00 0.  1.
        -13    1    4    4    0    0  0.42402536435E+00  0.13543586109E-01 -0.32931123446E+02  0.32934025511E+02  0.10566000000E+00 0. -1.
         14    1    4    4    0    0  0.13741414160E+02  0.53186300460E+01 -0.91406744388E+03  0.91418619889E+03  0.00000000000E+00 0. -1.
<mgrwt>
<rscale>  0 0.79845874E+02</rscale>
<asrwt>0</asrwt>
<pdfrwt beam="1">  1        2 0.15575629E+00 0.79845874E+02</pdfrwt>
<pdfrwt beam="2">  1       -1 0.24219917E-03 0.79845874E+02</pdfrwt>
<totfact> 0.35424364E+05</totfact>
</mgrwt>
</event>
<event>
 8    1  0.2433467E-024  0.8400780E+02  0.7818608E-02  0.1318048E+00
         -1   -1    0    0    0  501 -0.00000000000E+00  0.00000000000E+00  0.15187606611E+02  0.15187607447E+02  0.50400000000E-02 0.  1.
          2   -1    0    0  501    0  0.00000000000E+00 -0.00000000000E+00 -0.11616889987E+03  0.11616889990E+03  0.25500000000E-02 0. -1.
         24    2    1    2    0    0  0.00000000000E+00  0.00000000000E+00 -0.10098129326E+03  0.13135650735E+03  0.84007799840E+02 0.  0.
         66    2    3    3    0    0 -0.12543947542E+02  0.34003743441E+02 -0.17397040159E+02  0.40252480441E+02  0.19999968674E+01 0.  0.
        -13    1    3    3    0    0  0.12543947542E+02 -0.34003743441E+02 -0.83584253101E+02  0.91104026906E+02  0.10566000000E+00 0.  1.
         13    1    4    4    0    0 -0.76102578571E+01  0.20427048243E+02 -0.10170046742E+02  0.24054549244E+02  0.10566000000E+00 0. -1.
        -13    1    4    4    0    0 -0.20571616688E+01  0.74229967990E+01 -0.38468330357E+01  0.86105797743E+01  0.10566000000E+00 0.  1.
        -14    1    4    4    0    0 -0.28765280163E+01  0.61536983988E+01 -0.33801603813E+01  0.75873514229E+01  0.00000000000E+00 0.  1.
<mgrwt>
<rscale>  0 0.84007800E+02</rscale>
<asrwt>0</asrwt>
<pdfrwt beam="1">  1        2 0.17872138E-01 0.84007800E+02</pdfrwt>
<pdfrwt beam="2">  1       -1 0.23365550E-02 0.84007800E+02</pdfrwt>
<totfact> 0.16237498E+05</totfact>
</mgrwt>
</event>
<event>
 8    1  0.2433467E-024  0.7889942E+02  0.7818608E-02  0.1332204E+00
         -1   -1    0    0    0  501 -0.00000000000E+00  0.00000000000E+00  0.85973769175E+00  0.85975246451E+00  0.50400000000E-02 0.  1.
          2   -1    0    0  501    0  0.00000000000E+00 -0.00000000000E+00 -0.18101641123E+04  0.18101641123E+04  0.25500000000E-02 0. -1.
         24    2    1    2    0    0  0.17763568394E-14  0.17763568394E-14 -0.18093043746E+04  0.18110238647E+04  0.78899421901E+02 0.  0.
         66    2    3    3    0    0  0.99018200351E+01  0.11905550462E+02 -0.17374332341E+04  0.17375033903E+04  0.19999949986E+01 0.  0.
        -13    1    3    3    0    0 -0.99018200351E+01 -0.11905550462E+02 -0.71871140423E+02  0.73520474438E+02  0.10566000000E+00 0.  1.
         13    1    4    4    0    0  0.38297916679E+01  0.49303086005E+01 -0.77284551611E+03  0.77287073834E+03  0.10566000000E+00 0. -1.
        -13    1    4    4    0    0  0.38255569535E+01  0.42701867759E+01 -0.64962666298E+03  0.64965196975E+03  0.10566000000E+00 0.  1.
        -14    1    4    4    0    0  0.22464714138E+01  0.27050550858E+01 -0.31496105505E+03  0.31498068219E+03  0.00000000000E+00 0.  1.
<mgrwt>
<rscale>  0 0.78899422E+02</rscale>
<asrwt>0</asrwt>
<pdfrwt beam="1">  1        2 0.27848374E+00 0.78899422E+02</pdfrwt>
<pdfrwt beam="2">  1       -1 0.13226992E-03 0.78899422E+02</pdfrwt>
<totfact> 0.31205614E+05</totfact>
</mgrwt>
</event>
<event>
 8    1  0.2433467E-024  0.8087272E+02  0.7818608E-02  0.1326593E+00
         -1   -1    0    0    0  501 -0.00000000000E+00  0.00000000000E+00  0.20134140264E+03  0.20134140270E+03  0.50400000000E-02 0.  1.
          2   -1    0    0  501    0  0.00000000000E+00 -0.00000000000E+00 -0.81210278489E+01  0.81210282493E+01  0.25500000000E-02 0. -1.
         24    2    1    2    0    0  0.00000000000E+00  0.00000000000E+00  0.19322037479E+03  0.20946243095E+03  0.80872719418E+02 0.  0.
         66    2    3    3    0    0  0.32593292502E+02  0.18901383890E+02  0.58823776297E+02  0.69884345710E+02  0.20000221058E+01 0.  0.
        -13    1    3    3    0    0 -0.32593292502E+02 -0.18901383890E+02  0.13439659849E+03  0.13957808524E+03  0.10566000000E+00 0.  1.
         13    1    4    4    0    0  0.19233640050E+02  0.11173196274E+02  0.33053633851E+02  0.39841273817E+02  0.10566000000E+00 0. -1.
        -13    1    4    4    0    0  0.21598278519E+01  0.11126889026E+01  0.38341197289E+01  0.45403271991E+01  0.10566000000E+00 0.  1.
         14    1    4    4    0    0  0.11199824600E+02  0.66154987132E+01  0.21936022717E+02  0.25502744694E+02  0.00000000000E+00 0. -1.
<mgrwt>
<rscale>  0 0.80872719E+02</rscale>
<asrwt>0</asrwt>
<pdfrwt beam="1">  1        2 0.12493891E-02 0.80872719E+02</pdfrwt>
<pdfrwt beam="2">  1       -1 0.30975597E-01 0.80872719E+02</pdfrwt>
<totfact> 0.96693617E+04</totfact>
</mgrwt>
</event>
<event>
 8    1  0.2433467E-024  0.8247877E+02  0.7818608E-02  0.1322161E+00
         -1   -1    0    0    0  501 -0.00000000000E+00  0.00000000000E+00  0.11818372823E+03  0.11818372834E+03  0.50400000000E-02 0.  1.
          2   -1    0    0  501    0  0.00000000000E+00 -0.00000000000E+00 -0.14390192946E+02  0.14390193172E+02  0.25500000000E-02 0. -1.
         24    2    1    2    0    0  0.35527136788E-14  0.00000000000E+00  0.10379353528E+03  0.13257392151E+03  0.82478765131E+02 0.  0.
         66    2    3    3    0    0  0.22688774586E+02 -0.24979497759E+02  0.13892391103E+02  0.36547973507E+02  0.20000091087E+01 0.  0.
        -13    1    3    3    0    0 -0.22688774586E+02  0.24979497759E+02  0.89901144181E+02  0.96025948002E+02  0.10566000000E+00 0.  1.
         13    1    4    4    0    0  0.16530880524E+02 -0.18463754565E+02  0.94186044692E+01  0.26512289937E+02  0.10566000000E+00 0. -1.
        -13    1    4    4    0    0  0.27466576134E+01 -0.25465587414E+01  0.17464612117E+01  0.41340513142E+01  0.10566000000E+00 0.  1.
         14    1    4    4    0    0  0.34112364482E+01 -0.39691844529E+01  0.27273254219E+01  0.59016322559E+01  0.00000000000E+00 0. -1.
<mgrwt>
<rscale>  0 0.82478765E+02</rscale>
<asrwt>0</asrwt>
<pdfrwt beam="1">  1        2 0.22138759E-02 0.82478765E+02</pdfrwt>
<pdfrwt beam="2">  1       -1 0.18182112E-01 0.82478765E+02</pdfrwt>
<totfact> 0.10582227E+05</totfact>
</mgrwt>
</event>
<event>
 8    1  0.2433467E-024  0.8055229E+02  0.7818608E-02  0.1327491E+00
          2   -1    0    0  501    0  0.00000000000E+00  0.00000000000E+00  0.84740432011E+02  0.84740432049E+02  0.25500000000E-02 0. -1.
         -1   -1    0    0    0  501 -0.00000000000E+00 -0.00000000000E+00 -0.19142782993E+02  0.19142783656E+02  0.50400000000E-02 0.  1.
         24    2    1    2    0    0  0.00000000000E+00  0.00000000000E+00  0.65597649018E+02  0.10388321571E+03  0.80552287048E+02 0.  0.
         66    2    3    3    0    0 -0.19973763608E+02  0.19844011035E+02  0.69915432026E+02  0.75398300034E+02  0.20000014921E+01 0.  0.
        -13    1    3    3    0    0  0.19973763608E+02 -0.19844011035E+02 -0.43177830086E+01  0.28484915671E+02  0.10566000000E+00 0.  1.
         13    1    4    4    0    0 -0.88160787647E+01  0.86532066597E+01  0.31082264188E+02  0.33447265080E+02  0.10566000000E+00 0. -1.
        -13    1    4    4    0    0 -0.28432104611E+01  0.37915175489E+01  0.11666406564E+02  0.12592682685E+02  0.10566000000E+00 0.  1.
         14    1    4    4    0    0 -0.83144743821E+01  0.73992868269E+01  0.27166761275E+02  0.29358352269E+02  0.00000000000E+00 0. -1.
<mgrwt>
<rscale>  0 0.80552287E+02</rscale>
<asrwt>0</asrwt>
<pdfrwt beam="1">  1        2 0.13036990E-01 0.80552287E+02</pdfrwt>
<pdfrwt beam="2">  1       -1 0.29450436E-02 0.80552287E+02</pdfrwt>
<totfact> 0.16636180E+05</totfact>
</mgrwt>
</event>
<event>
 8    1  0.2433467E-024  0.8043610E+02  0.7818608E-02  0.1327818E+00
         -1   -1    0    0    0  501 -0.00000000000E+00  0.00000000000E+00  0.25668026608E+01  0.25668076089E+01  0.50400000000E-02 0.  1.
          2   -1    0    0  501    0  0.00000000000E+00 -0.00000000000E+00 -0.63015743835E+03  0.63015743836E+03  0.25500000000E-02 0. -1.
         24    2    1    2    0    0  0.00000000000E+00  0.00000000000E+00 -0.62759063569E+03  0.63272424597E+03  0.80436095293E+02 0.  0.
         66    2    3    3    0    0  0.25034712368E+02 -0.37512556249E+01 -0.55956934615E+03  0.56014521499E+03  0.19999966888E+01 0.  0.
        -13    1    3    3    0    0 -0.25034712368E+02  0.37512556249E+01 -0.68021289544E+02  0.72579030976E+02  0.10566000000E+00 0.  1.
         13    1    4    4    0    0  0.44014536690E+01 -0.16988647873E+00 -0.91729197435E+02  0.91834952398E+02  0.10566000000E+00 0. -1.
        -13    1    4    4    0    0  0.88214780700E+00  0.73562054344E-01 -0.19198512952E+02  0.19219200289E+02  0.10566000000E+00 0.  1.
        -14    1    4    4    0    0  0.19751110892E+02 -0.36549312005E+01 -0.44864163576E+03  0.44909106230E+03  0.00000000000E+00 0.  1.
<mgrwt>
<rscale>  0 0.80436095E+02</rscale>
<asrwt>0</asrwt>
<pdfrwt beam="1">  1        2 0.96947175E-01 0.80436095E+02</pdfrwt>
<pdfrwt beam="2">  1       -1 0.39489360E-03 0.80436095E+02</pdfrwt>
<totfact> 0.32136483E+05</totfact>
</mgrwt>
</event>
<event>
 8    1  0.2433467E-024  0.7942756E+02  0.7818608E-02  0.1330684E+00
         -1   -1    0    0    0  501 -0.00000000000E+00  0.00000000000E+00  0.74226334609E+02  0.74226334780E+02  0.50400000000E-02 0.  1.
          2   -1    0    0  501    0  0.00000000000E+00 -0.00000000000E+00 -0.21248313773E+02  0.21248313926E+02  0.25500000000E-02 0. -1.
         24    2    1    2    0    0 -0.44408920985E-15  0.00000000000E+00  0.52978020836E+02  0.95474648706E+02  0.79427563565E+02 0.  0.
         66    2    3    3    0    0  0.35680803535E+01 -0.33123213375E+02  0.57687366914E+00  0.33379803106E+02  0.20000026095E+01 0.  0.
        -13    1    3    3    0    0 -0.35680803535E+01  0.33123213375E+02  0.52401147167E+02  0.62094845600E+02  0.10566000000E+00 0.  1.
         13    1    4    4    0    0  0.73040399126E+00 -0.59471338859E+01  0.44708997421E+00  0.60094047066E+01  0.10566000000E+00 0. -1.
        -13    1    4    4    0    0  0.15599798947E+01 -0.17342079533E+02 -0.63763703017E+00  0.17424092654E+02  0.10566000000E+00 0.  1.
        -14    1    4    4    0    0  0.12776964676E+01 -0.98339999566E+01  0.76742072510E+00  0.99463057453E+01  0.00000000000E+00 0.  1.
<mgrwt>
<rscale>  0 0.79427564E+02</rscale>
<asrwt>0</asrwt>
<pdfrwt beam="1">  1        2 0.32689713E-02 0.79427564E+02</pdfrwt>
<pdfrwt beam="2">  1       -1 0.11419436E-01 0.79427564E+02</pdfrwt>
<totfact> 0.12828619E+05</totfact>
</mgrwt>
</event>
<event>
 8    1  0.2433467E-024  0.8205581E+02  0.7818608E-02  0.1323317E+00
         -1   -1    0    0    0  501 -0.00000000000E+00  0.00000000000E+00  0.31590608216E+01  0.31590648420E+01  0.50400000000E-02 0.  1.
          2   -1    0    0  501    0  0.00000000000E+00 -0.00000000000E+00 -0.53284439785E+03  0.53284439786E+03  0.25500000000E-02 0. -1.
         24    2    1    2    0    0  0.00000000000E+00  0.35527136788E-14 -0.52968533703E+03  0.53600346270E+03  0.82055808822E+02 0.  0.
         66    2    3    3    0    0 -0.10429518323E+02 -0.29014795438E+02 -0.44156804640E+03  0.44264768474E+03  0.19999990128E+01 0.  0.
        -13    1    3    3    0    0  0.10429518323E+02  0.29014795438E+02 -0.88117290633E+02  0.93355777964E+02  0.10566000000E+00 0.  1.
         13    1    4    4    0    0 -0.43824098520E+01 -0.12727757101E+02 -0.18676368503E+03  0.18724819499E+03  0.10566000000E+00 0. -1.
        -13    1    4    4    0    0 -0.29970159079E+01 -0.77491589118E+01 -0.11225865970E+03  0.11256575594E+03  0.10566000000E+00 0.  1.
        -14    1    4    4    0    0 -0.30500925628E+01 -0.85378794253E+01 -0.14254570167E+03  0.14283373381E+03  0.00000000000E+00 0.  1.
<mgrwt>
<rscale>  0 0.82055809E+02</rscale>
<asrwt>0</asrwt>
<pdfrwt beam="1">  1        2 0.81975990E-01 0.82055809E+02</pdfrwt>
<pdfrwt beam="2">  1       -1 0.48601009E-03 0.82055809E+02</pdfrwt>
<totfact> 0.29073981E+05</totfact>
</mgrwt>
</event>
<event>
 8    1  0.2433467E-024  0.8026130E+02  0.7818608E-02  0.1328312E+00
         -1   -1    0    0    0  501 -0.00000000000E+00  0.00000000000E+00  0.78538715986E+02  0.78538716147E+02  0.50400000000E-02 0.  1.
          2   -1    0    0  501    0  0.00000000000E+00 -0.00000000000E+00 -0.20505418047E+02  0.20505418206E+02  0.25500000000E-02 0. -1.
         24    2    1    2    0    0  0.00000000000E+00  0.35527136788E-14  0.58033297938E+02  0.99044134353E+02  0.80261303753E+02 0.  0.
         66    2    3    3    0    0 -0.35266192751E+02 -0.17162082430E+02  0.18693631688E+02  0.43493599439E+02  0.19999754960E+01 0.  0.
        -13    1    3    3    0    0  0.35266192751E+02  0.17162082430E+02  0.39339666251E+02  0.55550534914E+02  0.10566000000E+00 0.  1.
         13    1    4    4    0    0 -0.18127287534E+00 -0.12725026003E+00  0.88664102592E-02  0.24555067266E+00  0.10566000000E+00 0.  1.
        -13    1    4    4    0    0 -0.79117138559E+01 -0.37590327805E+01  0.43052032774E+01  0.97607111871E+01  0.10566000000E+00 0. -1.
         14    1    4    4    0    0 -0.27173206020E+02 -0.13275799389E+02  0.14379562000E+02  0.33487337579E+02  0.00000000000E+00 0. -1.
<mgrwt>
<rscale>  0 0.80261304E+02</rscale>
<asrwt>0</asrwt>
<pdfrwt beam="1">  1        2 0.31546797E-02 0.80261304E+02</pdfrwt>
<pdfrwt beam="2">  1       -1 0.12082880E-01 0.80261304E+02</pdfrwt>
<totfact> 0.12362267E+05</totfact>
</mgrwt>
</event>
<event>
 8    1  0.2433467E-024  0.7776904E+02  0.7818608E-02  0.1335504E+00
          2   -1    0    0  501    0  0.00000000000E+00  0.00000000000E+00  0.48655682784E+02  0.48655682851E+02  0.25500000000E-02 0. -1.
         -1   -1    0    0    0  501 -0.00000000000E+00 -0.00000000000E+00 -0.31075629521E+02  0.31075629930E+02  0.50400000000E-02 0.  1.
         24    2    1    2    0    0  0.71054273576E-14  0.17763568394E-14  0.17580053263E+02  0.79731312781E+02  0.77769042459E+02 0.  0.
         66    2    3    3    0    0  0.31781674837E+02  0.13169019691E+02  0.27321149091E+02  0.43976620123E+02  0.19999986798E+01 0.  0.
        -13    1    3    3    0    0 -0.31781674837E+02 -0.13169019691E+02 -0.97410958275E+01  0.35754692658E+02  0.10566000000E+00 0.  1.
         13    1    4    4    0    0  0.11965055319E+02  0.45451997074E+01  0.10540893166E+02  0.16581404704E+02  0.10566000000E+00 0. -1.
        -13    1    4    4    0    0  0.11177274136E+02  0.55197640314E+01  0.10034390006E+02  0.16003105914E+02  0.10566000000E+00 0.  1.
        -14    1    4    4    0    0  0.86393453816E+01  0.31040559523E+01  0.67458659189E+01  0.11392109505E+02  0.00000000000E+00 0.  1.
<mgrwt>
<rscale>  0 0.77769042E+02</rscale>
<asrwt>0</asrwt>
<pdfrwt beam="1">  1        2 0.74854897E-02 0.77769042E+02</pdfrwt>
<pdfrwt beam="2">  1       -1 0.47808661E-02 0.77769042E+02</pdfrwt>
<totfact> 0.16050397E+05</totfact>
</mgrwt>
</event>
<event>
 8    1  0.2433467E-024  0.7400883E+02  0.7818608E-02  0.1346968E+00
          2   -1    0    0  501    0  0.00000000000E+00  0.00000000000E+00  0.10687025215E+03  0.10687025218E+03  0.25500000000E-02 0. -1.
         -1   -1    0    0    0  501 -0.00000000000E+00 -0.00000000000E+00 -0.12812983190E+02  0.12812984181E+02  0.50400000000E-02 0.  1.
         24    2    1    2    0    0  0.00000000000E+00  0.71054273576E-14  0.94057268959E+02  0.11968323636E+03  0.74008832053E+02 0.  0.
         66    2    3    3    0    0 -0.67309950261E+01  0.34443855535E+02  0.65896685668E+02  0.74686402100E+02  0.19999996363E+01 0.  0.
        -13    1    3    3    0    0  0.67309950261E+01 -0.34443855535E+02  0.28160583291E+02  0.44996834261E+02  0.10566000000E+00 0.  1.
         13    1    4    4    0    0 -0.26486076426E+01  0.14047889754E+02  0.28815368867E+02  0.32166674929E+02  0.10566000000E+00 0. -1.
        -13    1    4    4    0    0 -0.39767458492E+01  0.19377962240E+02  0.35334803471E+02  0.40495424784E+02  0.10566000000E+00 0.  1.
        -14    1    4    4    0    0 -0.10564153437E+00  0.10180035409E+01  0.17465133299E+01  0.20243023872E+01  0.00000000000E+00 0.  1.
<mgrwt>
<rscale>  0 0.74008832E+02</rscale>
<asrwt>0</asrwt>
<pdfrwt beam="1">  1        2 0.16441578E-01 0.74008832E+02</pdfrwt>
<pdfrwt beam="2">  1       -1 0.19712282E-02 0.74008832E+02</pdfrwt>
<totfact> 0.22219911E+05</totfact>
</mgrwt>
</event>
<event>
 8    1  0.2433467E-024  0.8088950E+02  0.7818608E-02  0.1326546E+00
          2   -1    0    0  501    0  0.00000000000E+00  0.00000000000E+00  0.21387702306E+02  0.21387702458E+02  0.25500000000E-02 0. -1.
         -1   -1    0    0    0  501 -0.00000000000E+00 -0.00000000000E+00 -0.76482169566E+02  0.76482169732E+02  0.50400000000E-02 0.  1.
         24    2    1    2    0    0 -0.71054273576E-14  0.17763568394E-14 -0.55094467260E+02  0.97869872191E+02  0.80889502162E+02 0.  0.
         66    2    3    3    0    0  0.37611954866E+02 -0.14245226114E+02 -0.22696098056E+02  0.46224435732E+02  0.19999939944E+01 0.  0.
        -13    1    3    3    0    0 -0.37611954866E+02  0.14245226114E+02 -0.32398369204E+02  0.51645436458E+02  0.10566000000E+00 0.  1.
         13    1    4    4    0    0  0.25908378025E+02 -0.10466041116E+02 -0.15653638933E+02  0.32028575435E+02  0.10566000000E+00 0. -1.
        -13    1    4    4    0    0  0.11496046493E+02 -0.36618849607E+01 -0.70128714647E+01  0.13955644616E+02  0.10566000000E+00 0.  1.
        -14    1    4    4    0    0  0.20753034818E+00 -0.11730003755E+00 -0.29587657970E-01  0.24021568169E+00  0.00000000000E+00 0.  1.
<mgrwt>
<rscale>  0 0.80889502E+02</rscale>
<asrwt>0</asrwt>
<pdfrwt beam="1">  1        2 0.32904158E-02 0.80889502E+02</pdfrwt>
<pdfrwt beam="2">  1       -1 0.11766488E-01 0.80889502E+02</pdfrwt>
<totfact> 0.12192362E+05</totfact>
</mgrwt>
</event>
<event>
 8    1  0.2433467E-024  0.8035844E+02  0.7818608E-02  0.1328037E+00
         -1   -1    0    0    0  501 -0.00000000000E+00  0.00000000000E+00  0.59046675515E+01  0.59046697024E+01  0.50400000000E-02 0.  1.
          2   -1    0    0  501    0  0.00000000000E+00 -0.00000000000E+00 -0.27340564763E+03  0.27340564764E+03  0.25500000000E-02 0. -1.
         24    2    1    2    0    0  0.00000000000E+00 -0.35527136788E-14 -0.26750098008E+03  0.27931031734E+03  0.80358440950E+02 0.  0.
         66    2    3    3    0    0  0.44681738284E+01 -0.29060526899E+02 -0.22888771646E+03  0.23077709066E+03  0.20000064972E+01 0.  0.
        -13    1    3    3    0    0 -0.44681738284E+01  0.29060526899E+02 -0.38613263613E+02  0.48533226679E+02  0.10566000000E+00 0.  1.
         13    1    4    4    0    0  0.24930686961E+01 -0.11768872033E+02 -0.95535271134E+02  0.96289775860E+02  0.10566000000E+00 0. -1.
        -13    1    4    4    0    0  0.15768076333E+00 -0.52766310169E+01 -0.39294072329E+02  0.39647231711E+02  0.10566000000E+00 0.  1.
        -14    1    4    4    0    0  0.18174243690E+01 -0.12015023849E+02 -0.94058373000E+02  0.94840083092E+02  0.00000000000E+00 0.  1.
<mgrwt>
<rscale>  0 0.80358441E+02</rscale>
<asrwt>0</asrwt>
<pdfrwt beam="1">  1        2 0.42062398E-01 0.80358441E+02</pdfrwt>
<pdfrwt beam="2">  1       -1 0.90841077E-03 0.80358441E+02</pdfrwt>
<totfact> 0.24363776E+05</totfact>
</mgrwt>
</event>
<event>
 8    1  0.2433467E-024  0.8863937E+02  0.7818608E-02  0.1306181E+00
          2   -1    0    0  501    0  0.00000000000E+00  0.00000000000E+00  0.33333102224E+03  0.33333102225E+03  0.25500000000E-02 0. -1.
         -1   -1    0    0    0  501 -0.00000000000E+00 -0.00000000000E+00 -0.58927431903E+01  0.58927453456E+01  0.50400000000E-02 0.  1.
         24    2    1    2    0    0  0.00000000000E+00 -0.17763568394E-14  0.32743827905E+03  0.33922376759E+03  0.88639370003E+02 0.  0.
         66    2    3    3    0    0  0.41776892359E+02  0.14011539223E+02  0.18117091334E+03  0.18646321836E+03  0.19999986373E+01 0.  0.
        -13    1    3    3    0    0 -0.41776892359E+02 -0.14011539223E+02  0.14626736570E+03  0.15276054923E+03  0.10566000000E+00 0.  1.
         13    1    4    4    0    0  0.11393580102E+02  0.42861456551E+01  0.50203201523E+02  0.51658080871E+02  0.10566000000E+00 0. -1.
        -13    1    4    4    0    0  0.14993834480E+02  0.51524524979E+01  0.67810027532E+02  0.69638881647E+02  0.10566000000E+00 0.  1.
        -14    1    4    4    0    0  0.15389477778E+02  0.45729410699E+01  0.63157684288E+02  0.65166255845E+02  0.00000000000E+00 0.  1.
<mgrwt>
<rscale>  0 0.88639370E+02</rscale>
<asrwt>0</asrwt>
<pdfrwt beam="1">  1        2 0.51281683E-01 0.88639370E+02</pdfrwt>
<pdfrwt beam="2">  1       -1 0.90657627E-03 0.88639370E+02</pdfrwt>
<totfact> 0.20219421E+05</totfact>
</mgrwt>
</event>
<event>
 8    1  0.2433467E-024  0.8606717E+02  0.7818608E-02  0.1312665E+00
          2   -1    0    0  501    0  0.00000000000E+00  0.00000000000E+00  0.23183306188E+03  0.23183306189E+03  0.25500000000E-02 0. -1.
         -1   -1    0    0    0  501 -0.00000000000E+00 -0.00000000000E+00 -0.79880299514E+01  0.79880315414E+01  0.50400000000E-02 0.  1.
         24    2    1    2    0    0  0.00000000000E+00 -0.17763568394E-14  0.22384503193E+03  0.23982109343E+03  0.86067174564E+02 0.  0.
         66    2    3    3    0    0  0.35554048268E+02 -0.11854385720E+02  0.17078050176E+03  0.17485593096E+03  0.20000005800E+01 0.  0.
        -13    1    3    3    0    0 -0.35554048268E+02  0.11854385720E+02  0.53064530166E+02  0.64965162470E+02  0.10566000000E+00 0.  1.
         13    1    4    4    0    0  0.24208781703E+02 -0.76790210382E+01  0.11747323412E+03  0.12018737194E+03  0.10566000000E+00 0. -1.
        -13    1    4    4    0    0  0.10741102747E+01 -0.57805430270E+00  0.45853971224E+01  0.47460394504E+01  0.10566000000E+00 0.  1.
        -14    1    4    4    0    0  0.10271156290E+02 -0.35973103794E+01  0.48721870518E+02  0.49922519571E+02  0.00000000000E+00 0.  1.
<mgrwt>
<rscale>  0 0.86067175E+02</rscale>
<asrwt>0</asrwt>
<pdfrwt beam="1">  1        2 0.35666627E-01 0.86067175E+02</pdfrwt>
<pdfrwt beam="2">  1       -1 0.12289278E-02 0.86067175E+02</pdfrwt>
<totfact> 0.19153827E+05</totfact>
</mgrwt>
</event>
<event>
 8    1  0.2433467E-024  0.7739582E+02  0.7818608E-02  0.1336608E+00
          2   -1    0    0  501    0  0.00000000000E+00  0.00000000000E+00  0.39398121663E+03  0.39398121664E+03  0.25500000000E-02 0. -1.
         -1   -1    0    0    0  501 -0.00000000000E+00 -0.00000000000E+00 -0.38010128085E+01  0.38010161499E+01  0.50400000000E-02 0.  1.
         24    2    1    2    0    0  0.11102230246E-15  0.71054273576E-14  0.39018020382E+03  0.39778223279E+03  0.77395822031E+02 0.  0.
         66    2    3    3    0    0 -0.77978593914E+00 -0.38255644707E+02  0.16641037968E+03  0.17076450710E+03  0.20000001206E+01 0.  0.
        -13    1    3    3    0    0  0.77978593914E+00  0.38255644707E+02  0.22376982414E+03  0.22701772569E+03  0.10566000000E+00 0.  1.
         13    1    4    4    0    0 -0.41532947708E+00 -0.13077543135E+02  0.53893000747E+02  0.55458645193E+02  0.10566000000E+00 0. -1.
        -13    1    4    4    0    0  0.28544276837E+00 -0.16145338993E+02  0.71752049318E+02  0.73546727964E+02  0.10566000000E+00 0.  1.
         14    1    4    4    0    0 -0.64989923043E+00 -0.90327625792E+01  0.40765329615E+02  0.41759133940E+02  0.00000000000E+00 0. -1.
<mgrwt>
<rscale>  0 0.77395822E+02</rscale>
<asrwt>0</asrwt>
<pdfrwt beam="1">  1        2 0.60612477E-01 0.77395822E+02</pdfrwt>
<pdfrwt beam="2">  1       -1 0.58477164E-03 0.77395822E+02</pdfrwt>
<totfact> 0.30637747E+05</totfact>
</mgrwt>
</event>
<event>
 8    1  0.2433467E-024  0.8086043E+02  0.7818608E-02  0.1326627E+00
          2   -1    0    0  501    0  0.00000000000E+00  0.00000000000E+00  0.93761212888E+02  0.93761212923E+02  0.25500000000E-02 0. -1.
         -1   -1    0    0    0  501 -0.00000000000E+00 -0.00000000000E+00 -0.17433673959E+02  0.17433674687E+02  0.50400000000E-02 0.  1.
         24    2    1    2    0    0  0.35527136788E-14  0.00000000000E+00  0.76327538930E+02  0.11119488761E+03  0.80860434278E+02 0.  0.
         66    2    3    3    0    0 -0.16942579923E+02  0.36419527074E+02  0.44207068505E+02  0.59763683550E+02  0.19999997439E+01 0.  0.
        -13    1    3    3    0    0  0.16942579923E+02 -0.36419527074E+02  0.32120470424E+02  0.51431204060E+02  0.10566000000E+00 0.  1.
         13    1    4    4    0    0 -0.29500214221E+01  0.75409797903E+01  0.93241916397E+01  0.12349927788E+02  0.10566000000E+00 0. -1.
        -13    1    4    4    0    0 -0.27168780782E+01  0.55923478922E+01  0.74720153114E+01  0.97210060327E+01  0.10566000000E+00 0.  1.
        -14    1    4    4    0    0 -0.11275680423E+02  0.23286199391E+02  0.27410861554E+02  0.37692749730E+02  0.00000000000E+00 0.  1.
<mgrwt>
<rscale>  0 0.80860434E+02</rscale>
<asrwt>0</asrwt>
<pdfrwt beam="1">  1        2 0.14424802E-01 0.80860434E+02</pdfrwt>
<pdfrwt beam="2">  1       -1 0.26821037E-02 0.80860434E+02</pdfrwt>
<totfact> 0.16919804E+05</totfact>
</mgrwt>
</event>
<event>
 8    1  0.2433467E-024  0.7913615E+02  0.7818608E-02  0.1331521E+00
          2   -1    0    0  501    0  0.00000000000E+00  0.00000000000E+00  0.93642851100E+02  0.93642851134E+02  0.25500000000E-02 0. -1.
         -1   -1    0    0    0  501 -0.00000000000E+00 -0.00000000000E+00 -0.16719189548E+02  0.16719190308E+02  0.50400000000E-02 0.  1.
         24    2    1    2    0    0  0.35527136788E-14 -0.35527136788E-14  0.76923661552E+02  0.11036204144E+03  0.79136151566E+02 0.  0.
         66    2    3    3    0    0 -0.13058352622E+02  0.98298619589E+01  0.88700680597E+02  0.90216170873E+02  0.19999973380E+01 0.  0.
        -13    1    3    3    0    0  0.13058352622E+02 -0.98298619589E+01 -0.11777019045E+02  0.20145870569E+02  0.10566000000E+00 0.  1.
         13    1    4    4    0    0 -0.16632142650E+01  0.17069795296E+01  0.15223640704E+02  0.15409427670E+02  0.10566000000E+00 0. -1.
        -13    1    4    4    0    0 -0.13495761861E+01  0.60871086221E+00  0.68491929618E+01  0.70081733040E+01  0.10566000000E+00 0.  1.
         14    1    4    4    0    0 -0.10045562171E+02  0.75141715671E+01  0.66627846931E+02  0.67798569899E+02  0.00000000000E+00 0. -1.
<mgrwt>
<rscale>  0 0.79136152E+02</rscale>
<asrwt>0</asrwt>
<pdfrwt beam="1">  1        2 0.14406592E-01 0.79136152E+02</pdfrwt>
<pdfrwt beam="2">  1       -1 0.25721832E-02 0.79136152E+02</pdfrwt>
<totfact> 0.17921133E+05</totfact>
</mgrwt>
</event>
<event>
 8    1  0.2433467E-024  0.8054931E+02  0.7818608E-02  0.1327500E+00
          2   -1    0    0  501    0  0.00000000000E+00  0.00000000000E+00  0.11532430338E+02  0.11532430620E+02  0.25500000000E-02 0. -1.
         -1   -1    0    0    0  501 -0.00000000000E+00 -0.00000000000E+00 -0.14065099176E+03  0.14065099185E+03  0.50400000000E-02 0.  1.
         24    2    1    2    0    0  0.17763568394E-14  0.00000000000E+00 -0.12911856143E+03  0.15218342248E+03  0.80549308945E+02 0.  0.
         66    2    3    3    0    0  0.13645470760E+02 -0.21416382269E+02 -0.55994497831E+01  0.26080914939E+02  0.19999961139E+01 0.  0.
        -13    1    3    3    0    0 -0.13645470760E+02  0.21416382269E+02 -0.12351911164E+03  0.12610250754E+03  0.10566000000E+00 0.  1.
         13    1    4    4    0    0  0.39782693086E+01 -0.51111992048E+01 -0.19317569881E+01  0.67597213774E+01  0.10566000000E+00 0. -1.
        -13    1    4    4    0    0  0.85532758594E+01 -0.14697388156E+02 -0.31116635258E+01  0.17287722825E+02  0.10566000000E+00 0.  1.
        -14    1    4    4    0    0  0.11139255922E+01 -0.16077949081E+01 -0.55602926922E+00  0.20334707373E+01  0.00000000000E+00 0.  1.
<mgrwt>
<rscale>  0 0.80549309E+02</rscale>
<asrwt>0</asrwt>
<pdfrwt beam="1">  1        2 0.17742202E-02 0.80549309E+02</pdfrwt>
<pdfrwt beam="2">  1       -1 0.21638613E-01 0.80549309E+02</pdfrwt>
<totfact> 0.10775116E+05</totfact>
</mgrwt>
</event>
<event>
 8    1  0.2433467E-024  0.8023693E+02  0.7818608E-02  0.1328380E+00
         -1   -1    0    0    0  501 -0.00000000000E+00  0.00000000000E+00  0.10945711491E+02  0.10945712651E+02  0.50400000000E-02 0.  1.
          2   -1    0    0  501    0  0.00000000000E+00 -0.00000000000E+00 -0.14704307593E+03  0.14704307595E+03  0.25500000000E-02 0. -1.
         24    2    1    2    0    0  0.00000000000E+00  0.00000000000E+00 -0.13609736444E+03  0.15798878861E+03  0.80236928638E+02 0.  0.
         66    2    3    3    0    0  0.35341484048E+02 -0.10282489896E+02 -0.36787867666E+02  0.52077800474E+02  0.20000004087E+01 0.  0.
        -13    1    3    3    0    0 -0.35341484048E+02  0.10282489896E+02 -0.99309496776E+02  0.10591098813E+03  0.10566000000E+00 0.  1.
         13    1    4    4    0    0  0.32320808017E+02 -0.96753487717E+01 -0.33668437650E+02  0.47663632495E+02  0.10566000000E+00 0. -1.
        -13    1    4    4    0    0  0.22843663648E+00 -0.97614305809E-01 -0.40541719864E+00  0.48707185316E+00  0.10566000000E+00 0. -1.
        -14    1    4    4    0    0  0.27922393942E+01 -0.50952681839E+00 -0.27140128166E+01  0.39270961258E+01  0.00000000000E+00 0.  1.
<mgrwt>
<rscale>  0 0.80236929E+02</rscale>
<asrwt>0</asrwt>
<pdfrwt beam="1">  1        2 0.22622010E-01 0.80236929E+02</pdfrwt>
<pdfrwt beam="2">  1       -1 0.16839558E-02 0.80236929E+02</pdfrwt>
<totfact> 0.19746653E+05</totfact>
</mgrwt>
</event>
<event>
 8    1  0.2433467E-024  0.8003479E+02  0.7818608E-02  0.1328953E+00
         -1   -1    0    0    0  501 -0.00000000000E+00  0.00000000000E+00  0.35229966522E+01  0.35230002573E+01  0.50400000000E-02 0.  1.
          2   -1    0    0  501    0  0.00000000000E+00 -0.00000000000E+00 -0.45455368621E+03  0.45455368622E+03  0.25500000000E-02 0. -1.
         24    2    1    2    0    0  0.00000000000E+00  0.00000000000E+00 -0.45103068956E+03  0.45807668648E+03  0.80034790988E+02 0.  0.
         66    2    3    3    0    0  0.14070614397E+02 -0.21585151404E+02 -0.40071219005E+03  0.40154471758E+03  0.20000022297E+01 0.  0.
        -13    1    3    3    0    0 -0.14070614397E+02  0.21585151404E+02 -0.50318499509E+02  0.56531968898E+02  0.10566000000E+00 0.  1.
         13    1    4    4    0    0  0.64671561334E+01 -0.90839533538E+01 -0.16810171450E+03  0.16847118418E+03  0.10566000000E+00 0.  1.
        -13    1    4    4    0    0  0.72108585542E+01 -0.11382220368E+02 -0.21713954423E+03  0.21755722065E+03  0.10566000000E+00 0. -1.
         14    1    4    4    0    0  0.39259970956E+00 -0.11189776820E+01 -0.15470931320E+02  0.15516312754E+02  0.00000000000E+00 0. -1.
<mgrwt>
<rscale>  0 0.80034791E+02</rscale>
<asrwt>0</asrwt>
<pdfrwt beam="1">  1        2 0.69931290E-01 0.80034791E+02</pdfrwt>
<pdfrwt beam="2">  1       -1 0.54200012E-03 0.80034791E+02</pdfrwt>
<totfact> 0.29484400E+05</totfact>
</mgrwt>
</event>
<event>
 8    1  0.2433467E-024  0.8006422E+02  0.7818608E-02  0.1328869E+00
          2   -1    0    0  501    0  0.00000000000E+00  0.00000000000E+00  0.16107199573E+02  0.16107199774E+02  0.25500000000E-02 0. -1.
         -1   -1    0    0    0  501 -0.00000000000E+00 -0.00000000000E+00 -0.99494004243E+02  0.99494004371E+02  0.50400000000E-02 0.  1.
         24    2    1    2    0    0 -0.35527136788E-14  0.35527136788E-14 -0.83386804671E+02  0.11560120415E+03  0.80064219266E+02 0.  0.
         66    2    3    3    0    0 -0.24568868300E+02  0.18464445716E+02 -0.47385945062E+01  0.31161182999E+02  0.20000007047E+01 0.  0.
        -13    1    3    3    0    0  0.24568868300E+02 -0.18464445716E+02 -0.78648210165E+02  0.84440021147E+02  0.10566000000E+00 0.  1.
         13    1    4    4    0    0 -0.28449954802E+01  0.27882903510E+01 -0.75662944070E+00  0.40561329502E+01  0.10566000000E+00 0. -1.
        -13    1    4    4    0    0 -0.12138245014E+02  0.81089151691E+01 -0.22355753347E+01  0.14768224617E+02  0.10566000000E+00 0.  1.
         14    1    4    4    0    0 -0.95856278066E+01  0.75672401960E+01 -0.17463897308E+01  0.12336825431E+02  0.00000000000E+00 0. -1.
<mgrwt>
<rscale>  0 0.80064219E+02</rscale>
<asrwt>0</asrwt>
<pdfrwt beam="1">  1        2 0.24780308E-02 0.80064219E+02</pdfrwt>
<pdfrwt beam="2">  1       -1 0.15306770E-01 0.80064219E+02</pdfrwt>
<totfact> 0.11842177E+05</totfact>
</mgrwt>
</event>
<event>
 8    1  0.2433467E-024  0.8061796E+02  0.7818608E-02  0.1327307E+00
          2   -1    0    0  501    0  0.00000000000E+00  0.00000000000E+00  0.22881764897E+03  0.22881764899E+03  0.25500000000E-02 0. -1.
         -1   -1    0    0    0  501 -0.00000000000E+00 -0.00000000000E+00 -0.71009101128E+01  0.71009119015E+01  0.50400000000E-02 0.  1.
         24    2    1    2    0    0 -0.17763568394E-14 -0.35527136788E-14  0.22171673886E+03  0.23591856089E+03  0.80617957559E+02 0.  0.
         66    2    3    3    0    0  0.59050259267E+01  0.22959881398E+02  0.20623754633E+03  0.20760527690E+03  0.19999983928E+01 0.  0.
        -13    1    3    3    0    0 -0.59050259267E+01 -0.22959881398E+02  0.15479192528E+02  0.28313283991E+02  0.10566000000E+00 0.  1.
         13    1    4    4    0    0  0.21190622296E+01  0.60156678772E+01  0.60186916484E+02  0.60524001558E+02  0.10566000000E+00 0. -1.
        -13    1    4    4    0    0  0.17802921910E+01  0.78279223807E+01  0.64150650541E+02  0.64651086131E+02  0.10566000000E+00 0.  1.
        -14    1    4    4    0    0  0.20056715061E+01  0.91162911403E+01  0.81899979309E+02  0.82430189209E+02  0.00000000000E+00 0.  1.
<mgrwt>
<rscale>  0 0.80617958E+02</rscale>
<asrwt>0</asrwt>
<pdfrwt beam="1">  1        2 0.35202713E-01 0.80617958E+02</pdfrwt>
<pdfrwt beam="2">  1       -1 0.10924479E-02 0.80617958E+02</pdfrwt>
<totfact> 0.22662619E+05</totfact>
</mgrwt>
</event>
<event>
 8    1  0.2433467E-024  0.7992078E+02  0.7818608E-02  0.1329276E+00
         -1   -1    0    0    0  501 -0.00000000000E+00  0.00000000000E+00  0.40307429745E+02  0.40307430060E+02  0.50400000000E-02 0.  1.
          2   -1    0    0  501    0  0.00000000000E+00 -0.00000000000E+00 -0.39616338487E+02  0.39616338569E+02  0.25500000000E-02 0. -1.
         24    2    1    2    0    0 -0.88817841970E-15  0.35527136788E-14  0.69109125811E+00  0.79923768630E+02  0.79920780682E+02 0.  0.
         66    2    3    3    0    0 -0.53650525205E+01  0.19190593224E+02 -0.34264277075E+02  0.39687571044E+02  0.19999887662E+01 0.  0.
        -13    1    3    3    0    0  0.53650525205E+01 -0.19190593224E+02  0.34955368333E+02  0.40236197586E+02  0.10566000000E+00 0.  1.
         13    1    4    4    0    0 -0.30281689052E+01  0.10168519389E+02 -0.19488840707E+02  0.22189967770E+02  0.10566000000E+00 0. -1.
        -13    1    4    4    0    0 -0.43860340877E+00  0.13361892150E+01 -0.16623414916E+01  0.21799811556E+01  0.10566000000E+00 0.  1.
         14    1    4    4    0    0 -0.18982802065E+01  0.76858846193E+01 -0.13113094876E+02  0.15317622118E+02  0.00000000000E+00 0. -1.
<mgrwt>
<rscale>  0 0.79920781E+02</rscale>
<asrwt>0</asrwt>
<pdfrwt beam="1">  1        2 0.60948213E-02 0.79920781E+02</pdfrwt>
<pdfrwt beam="2">  1       -1 0.62011431E-02 0.79920781E+02</pdfrwt>
<totfact> 0.14266094E+05</totfact>
</mgrwt>
</event>
<event>
 8    1  0.2433467E-024  0.7826526E+02  0.7818608E-02  0.1334048E+00
          2   -1    0    0  501    0  0.00000000000E+00  0.00000000000E+00  0.13642916279E+04  0.13642916279E+04  0.25500000000E-02 0. -1.
         -1   -1    0    0    0  501 -0.00000000000E+00 -0.00000000000E+00 -0.11224543376E+01  0.11224656527E+01  0.50400000000E-02 0.  1.
         24    2    1    2    0    0  0.00000000000E+00 -0.88817841970E-15  0.13631691736E+04  0.13654140936E+04  0.78265261310E+02 0.  0.
         66    2    3    3    0    0 -0.13080597563E+02 -0.47015812343E+01  0.13197382475E+04  0.13198129598E+04  0.19999984867E+01 0.  0.
        -13    1    3    3    0    0  0.13080597563E+02  0.47015812343E+01  0.43430926051E+02  0.45601133763E+02  0.10566000000E+00 0.  1.
         13    1    4    4    0    0 -0.74992631383E+00  0.14720267114E-01  0.65895249201E+02  0.65899602711E+02  0.10566000000E+00 0. -1.
        -13    1    4    4    0    0 -0.18431952659E+01 -0.45794459016E+00  0.22720804913E+03  0.22721601140E+03  0.10566000000E+00 0.  1.
         14    1    4    4    0    0 -0.10487475984E+02 -0.42583569112E+01  0.10266349492E+04  0.10266973457E+04  0.00000000000E+00 0. -1.
<mgrwt>
<rscale>  0 0.78265261E+02</rscale>
<asrwt>0</asrwt>
<pdfrwt beam="1">  1        2 0.20989182E+00 0.78265261E+02</pdfrwt>
<pdfrwt beam="2">  1       -1 0.17268550E-03 0.78265261E+02</pdfrwt>
<totfact> 0.36253100E+05</totfact>
</mgrwt>
</event>
<event>
 8    1  0.2433467E-024  0.7990566E+02  0.7818608E-02  0.1329319E+00
         -1   -1    0    0    0  501 -0.00000000000E+00  0.00000000000E+00  0.13100277177E+03  0.13100277186E+03  0.50400000000E-02 0.  1.
          2   -1    0    0  501    0  0.00000000000E+00 -0.00000000000E+00 -0.12184691878E+02  0.12184692145E+02  0.25500000000E-02 0. -1.
         24    2    1    2    0    0 -0.71054273576E-14  0.27755575616E-16  0.11881807989E+03  0.14318746401E+03  0.79905655249E+02 0.  0.
         66    2    3    3    0    0  0.39065191180E+02  0.15988442945E+00  0.44657490592E+02  0.59366709456E+02  0.20000001834E+01 0.  0.
        -13    1    3    3    0    0 -0.39065191180E+02 -0.15988442945E+00  0.74160589296E+02  0.83820754552E+02  0.10566000000E+00 0.  1.
         13    1    4    4    0    0  0.16844956616E+02  0.91666777069E-01  0.20621991414E+02  0.26627779857E+02  0.10566000000E+00 0. -1.
        -13    1    4    4    0    0  0.15137025748E+02 -0.53698822098E-01  0.16762171206E+02  0.22585702992E+02  0.10566000000E+00 0.  1.
        -14    1    4    4    0    0  0.70832088154E+01  0.12191647448E+00  0.72733279724E+01  0.10153226608E+02  0.00000000000E+00 0.  1.
<mgrwt>
<rscale>  0 0.79905655E+02</rscale>
<asrwt>0</asrwt>
<pdfrwt beam="1">  1        2 0.18745678E-02 0.79905655E+02</pdfrwt>
<pdfrwt beam="2">  1       -1 0.20154275E-01 0.79905655E+02</pdfrwt>
<totfact> 0.11186509E+05</totfact>
</mgrwt>
</event>
<event>
 8    1  0.2433467E-024  0.7955671E+02  0.7818608E-02  0.1330314E+00
          2   -1    0    0  501    0  0.00000000000E+00  0.00000000000E+00  0.17056199227E+03  0.17056199229E+03  0.25500000000E-02 0. -1.
         -1   -1    0    0    0  501 -0.00000000000E+00 -0.00000000000E+00 -0.92770819673E+01  0.92770833363E+01  0.50400000000E-02 0.  1.
         24    2    1    2    0    0  0.44408920985E-15  0.17763568394E-14  0.16128491030E+03  0.17983907562E+03  0.79556714552E+02 0.  0.
         66    2    3    3    0    0  0.35359078342E+01  0.11838114287E+02  0.16610569452E+03  0.16657654499E+03  0.19999989257E+01 0.  0.
        -13    1    3    3    0    0 -0.35359078342E+01 -0.11838114287E+02 -0.48207842223E+01  0.13262530628E+02  0.10566000000E+00 0.  1.
         13    1    4    4    0    0  0.19002275238E+01  0.66560606569E+01  0.85286173853E+02  0.85566679395E+02  0.10566000000E+00 0. -1.
        -13    1    4    4    0    0  0.37837514652E+00  0.26183306021E+01  0.33652514166E+02  0.33756505989E+02  0.10566000000E+00 0.  1.
         14    1    4    4    0    0  0.12573051639E+01  0.25637230283E+01  0.47167006503E+02  0.47253359610E+02  0.00000000000E+00 0. -1.
<mgrwt>
<rscale>  0 0.79556715E+02</rscale>
<asrwt>0</asrwt>
<pdfrwt beam="1">  1        2 0.26240307E-01 0.79556715E+02</pdfrwt>
<pdfrwt beam="2">  1       -1 0.14272435E-02 0.79556715E+02</pdfrwt>
<totfact> 0.21201750E+05</totfact>
</mgrwt>
</event>
<event>
 8    1  0.2433467E-024  0.7947692E+02  0.7818608E-02  0.1330542E+00
          2   -1    0    0  501    0  0.00000000000E+00  0.00000000000E+00  0.51036397473E+01  0.51036403844E+01  0.25500000000E-02 0. -1.
         -1   -1    0    0    0  501 -0.00000000000E+00 -0.00000000000E+00 -0.30941545173E+03  0.30941545177E+03  0.50400000000E-02 0.  1.
         24    2    1    2    0    0  0.00000000000E+00  0.00000000000E+00 -0.30431181198E+03  0.31451909216E+03  0.79476917517E+02 0.  0.
         66    2    3    3    0    0  0.14080088516E+02  0.34697692791E+02 -0.20459721781E+03  0.20800528914E+03  0.19999993062E+01 0.  0.
        -13    1    3    3    0    0 -0.14080088516E+02 -0.34697692791E+02 -0.99714594171E+02  0.10651380301E+03  0.10566000000E+00 0.  1.
         13    1    4    4    0    0  0.18474264180E+01  0.49054045880E+01 -0.27058640245E+02  0.27561878646E+02  0.10566000000E+00 0. -1.
        -13    1    4    4    0    0  0.83287777336E+01  0.21943915565E+02 -0.13122535252E+03  0.13330794529E+03  0.10566000000E+00 0.  1.
        -14    1    4    4    0    0  0.39038843645E+01  0.78483726374E+01 -0.46313225047E+02  0.47135465209E+02  0.00000000000E+00 0.  1.
<mgrwt>
<rscale>  0 0.79476918E+02</rscale>
<asrwt>0</asrwt>
<pdfrwt beam="1">  1        2 0.78517564E-03 0.79476918E+02</pdfrwt>
<pdfrwt beam="2">  1       -1 0.47602363E-01 0.79476918E+02</pdfrwt>
<totfact> 0.86791352E+04</totfact>
</mgrwt>
</event>
<event>
 8    1  0.2433467E-024  0.7952602E+02  0.7818608E-02  0.1330402E+00
          2   -1    0    0  501    0  0.00000000000E+00  0.00000000000E+00  0.11678598301E+03  0.11678598303E+03  0.25500000000E-02 0. -1.
         -1   -1    0    0    0  501 -0.00000000000E+00 -0.00000000000E+00 -0.13538411935E+02  0.13538412873E+02  0.50400000000E-02 0.  1.
         24    2    1    2    0    0 -0.88817841970E-15  0.00000000000E+00  0.10324757107E+03  0.13032439591E+03  0.79526016098E+02 0.  0.
         66    2    3    3    0    0 -0.56855313591E+01  0.21450768442E+02  0.10567671618E+03  0.10800013458E+03  0.19999986414E+01 0.  0.
        -13    1    3    3    0    0  0.56855313591E+01 -0.21450768442E+02 -0.24291451065E+01  0.22324261322E+02  0.10566000000E+00 0.  1.
         13    1    4    4    0    0 -0.37076839259E+01  0.11930629907E+02  0.60000192613E+02  0.61287201990E+02  0.10566000000E+00 0. -1.
        -13    1    4    4    0    0 -0.19605397227E+01  0.74552457793E+01  0.36899545268E+02  0.37696312958E+02  0.10566000000E+00 0.  1.
        -14    1    4    4    0    0 -0.17307710421E-01  0.20648927556E+01  0.87769782970E+01  0.90166196368E+01  0.00000000000E+00 0.  1.
<mgrwt>
<rscale>  0 0.79526016E+02</rscale>
<asrwt>0</asrwt>
<pdfrwt beam="1">  1        2 0.17967073E-01 0.79526016E+02</pdfrwt>
<pdfrwt beam="2">  1       -1 0.20828328E-02 0.79526016E+02</pdfrwt>
<totfact> 0.18832335E+05</totfact>
</mgrwt>
</event>
<event>
 8    1  0.2433467E-024  0.8011063E+02  0.7818608E-02  0.1328738E+00
         -1   -1    0    0    0  501 -0.00000000000E+00  0.00000000000E+00  0.68675643195E+01  0.68675661689E+01  0.50400000000E-02 0.  1.
          2   -1    0    0  501    0  0.00000000000E+00 -0.00000000000E+00 -0.23362402352E+03  0.23362402354E+03  0.25500000000E-02 0. -1.
         24    2    1    2    0    0 -0.88817841970E-15  0.00000000000E+00 -0.22675645920E+03  0.24049158970E+03  0.80110629312E+02 0.  0.
         66    2    3    3    0    0  0.55667638360E+01 -0.30371674161E+02 -0.18992567273E+03  0.19242969787E+03  0.20000018469E+01 0.  0.
        -13    1    3    3    0    0 -0.55667638360E+01  0.30371674161E+02 -0.36830786469E+02  0.48061891836E+02  0.10566000000E+00 0.  1.
         13    1    4    4    0    0  0.51958183214E+00 -0.64682125255E+01 -0.42705417587E+02  0.43195735830E+02  0.10566000000E+00 0. -1.
        -13    1    4    4    0    0  0.29566451727E+01 -0.14762699726E+02 -0.90730081618E+02  0.91970853689E+02  0.10566000000E+00 0. -1.
         14    1    4    4    0    0  0.20905368312E+01 -0.91407619099E+01 -0.56490173528E+02  0.57263108349E+02  0.00000000000E+00 0. -1.
<mgrwt>
<rscale>  0 0.80110629E+02</rscale>
<asrwt>0</asrwt>
<pdfrwt beam="1">  1        2 0.35942151E-01 0.80110629E+02</pdfrwt>
<pdfrwt beam="2">  1       -1 0.10565487E-02 0.80110629E+02</pdfrwt>
<totfact> 0.23213415E+05</totfact>
</mgrwt>
</event>
<event>
 8    1  0.2433467E-024  0.8059839E+02  0.7818608E-02  0.1327362E+00
          2   -1    0    0  501    0  0.00000000000E+00  0.00000000000E+00  0.58940246987E+03  0.58940246987E+03  0.25500000000E-02 0. -1.
         -1   -1    0    0    0  501 -0.00000000000E+00 -0.00000000000E+00 -0.27553731595E+01  0.27553777690E+01  0.50400000000E-02 0.  1.
         24    2    1    2    0    0  0.35527136788E-14  0.00000000000E+00  0.58664709671E+03  0.59215784764E+03  0.80598389860E+02 0.  0.
         66    2    3    3    0    0 -0.17209943511E+02 -0.26929053350E+02  0.47356768331E+03  0.47464903534E+03  0.20000010828E+01 0.  0.
        -13    1    3    3    0    0  0.17209943511E+02  0.26929053350E+02  0.11307941340E+03  0.11750881230E+03  0.10566000000E+00 0.  1.
         13    1    4    4    0    0 -0.10880510791E+02 -0.15524314000E+02  0.28446032722E+03  0.28509135161E+03  0.10566000000E+00 0. -1.
        -13    1    4    4    0    0 -0.21355268176E+01 -0.43687665196E+01  0.72577199748E+02  0.72740000570E+02  0.10566000000E+00 0.  1.
         14    1    4    4    0    0 -0.41939059022E+01 -0.70359728309E+01  0.11653015635E+03  0.11681768316E+03  0.00000000000E+00 0. -1.
<mgrwt>
<rscale>  0 0.80598390E+02</rscale>
<asrwt>0</asrwt>
<pdfrwt beam="1">  1        2 0.90677293E-01 0.80598390E+02</pdfrwt>
<pdfrwt beam="2">  1       -1 0.42390397E-03 0.80598390E+02</pdfrwt>
<totfact> 0.31388109E+05</totfact>
</mgrwt>
</event>
<event>
 8    1  0.2433467E-024  0.8193423E+02  0.7818608E-02  0.1323650E+00
         -1   -1    0    0    0  501 -0.00000000000E+00  0.00000000000E+00  0.19521993517E+01  0.19522058575E+01  0.50400000000E-02 0.  1.
          2   -1    0    0  501    0  0.00000000000E+00 -0.00000000000E+00 -0.85969783270E+03  0.85969783271E+03  0.25500000000E-02 0. -1.
         24    2    1    2    0    0 -0.17763568394E-14  0.00000000000E+00 -0.85774563335E+03  0.86165003857E+03  0.81934226210E+02 0.  0.
         66    2    3    3    0    0  0.15780090868E+02  0.20289574887E+02 -0.76427163980E+03  0.76470636032E+03  0.19999989789E+01 0.  0.
        -13    1    3    3    0    0 -0.15780090868E+02 -0.20289574887E+02 -0.93473993552E+02  0.96943678244E+02  0.10566000000E+00 0.  1.
         13    1    4    4    0    0  0.11826339955E+02  0.14914135780E+02 -0.56833116954E+03  0.56864982476E+03  0.10566000000E+00 0. -1.
        -13    1    4    4    0    0  0.30451643430E+01  0.37728422150E+01 -0.15231777498E+03  0.15239495761E+03  0.10566000000E+00 0.  1.
         14    1    4    4    0    0  0.90858656924E+00  0.16025968923E+01 -0.43622695280E+02  0.43661577958E+02  0.00000000000E+00 0. -1.
<mgrwt>
<rscale>  0 0.81934226E+02</rscale>
<asrwt>0</asrwt>
<pdfrwt beam="1">  1        2 0.13226090E+00 0.81934226E+02</pdfrwt>
<pdfrwt beam="2">  1       -1 0.30033955E-03 0.81934226E+02</pdfrwt>
<totfact> 0.32657124E+05</totfact>
</mgrwt>
</event>
<event>
 8    1  0.2433467E-024  0.8041589E+02  0.7818608E-02  0.1327875E+00
         -1   -1    0    0    0  501 -0.00000000000E+00  0.00000000000E+00  0.91914804622E+01  0.91914818440E+01  0.50400000000E-02 0.  1.
          2   -1    0    0  501    0  0.00000000000E+00 -0.00000000000E+00 -0.17588884274E+03  0.17588884275E+03  0.25500000000E-02 0. -1.
         24    2    1    2    0    0  0.00000000000E+00  0.00000000000E+00 -0.16669736227E+03  0.18508032460E+03  0.80415893730E+02 0.  0.
         66    2    3    3    0    0  0.36776861765E+02  0.13904278973E+02 -0.64308761382E+02  0.75402144035E+02  0.19999998792E+01 0.  0.
        -13    1    3    3    0    0 -0.36776861765E+02 -0.13904278973E+02 -0.10238860089E+03  0.10967818056E+03  0.10566000000E+00 0.  1.
         13    1    4    4    0    0  0.22400948185E+01  0.49178364787E+00 -0.37264299706E+01  0.43769076199E+01  0.10566000000E+00 0. -1.
        -13    1    4    4    0    0  0.24886189063E+02  0.98753134447E+01 -0.42720709017E+02  0.50417401407E+02  0.10566000000E+00 0.  1.
         14    1    4    4    0    0  0.96505778841E+01  0.35371818808E+01 -0.17861622394E+02  0.20607835008E+02  0.00000000000E+00 0. -1.
<mgrwt>
<rscale>  0 0.80415894E+02</rscale>
<asrwt>0</asrwt>
<pdfrwt beam="1">  1        2 0.27059820E-01 0.80415894E+02</pdfrwt>
<pdfrwt beam="2">  1       -1 0.14140741E-02 0.80415894E+02</pdfrwt>
<totfact> 0.20821136E+05</totfact>
</mgrwt>
</event>
<event>
 8    1  0.2433467E-024  0.8128220E+02  0.7818608E-02  0.1325452E+00
          2   -1    0    0  501    0  0.00000000000E+00  0.00000000000E+00  0.34014130528E+03  0.34014130528E+03  0.25500000000E-02 0. -1.
         -1   -1    0    0    0  501 -0.00000000000E+00 -0.00000000000E+00 -0.48559193626E+01  0.48559219781E+01  0.50400000000E-02 0.  1.
         24    2    1    2    0    0 -0.44408920985E-15  0.00000000000E+00  0.33528538591E+03  0.34499722726E+03  0.81282204771E+02 0.  0.
         66    2    3    3    0    0 -0.20181038665E+01 -0.98651275979E+01  0.33475595019E+03  0.33491333159E+03  0.20000005816E+01 0.  0.
        -13    1    3    3    0    0  0.20181038665E+01  0.98651275979E+01  0.52943572191E+00  0.10083895674E+02  0.10566000000E+00 0.  1.
         13    1    4    4    0    0  0.74486768592E-01 -0.30212630991E+01  0.11249156569E+03  0.11253220470E+03  0.10566000000E+00 0. -1.
        -13    1    4    4    0    0 -0.58214639921E+00 -0.31290337462E+01  0.92554245315E+02  0.92609012717E+02  0.10566000000E+00 0.  1.
        -14    1    4    4    0    0 -0.15104442359E+01 -0.37148307526E+01  0.12971013919E+03  0.12977211418E+03  0.00000000000E+00 0.  1.
<mgrwt>
<rscale>  0 0.81282205E+02</rscale>
<asrwt>0</asrwt>
<pdfrwt beam="1">  1        2 0.52329424E-01 0.81282205E+02</pdfrwt>
<pdfrwt beam="2">  1       -1 0.74706484E-03 0.81282205E+02</pdfrwt>
<totfact> 0.25587254E+05</totfact>
</mgrwt>
</event>
<event>
 8    1  0.2433467E-024  0.7828492E+02  0.7818608E-02  0.1333990E+00
          2   -1    0    0  501    0  0.00000000000E+00  0.00000000000E+00  0.16308023596E+04  0.16308023596E+04  0.25500000000E-02 0. -1.
         -1   -1    0    0    0  501 -0.00000000000E+00 -0.00000000000E+00 -0.93948913919E+00  0.93950265792E+00  0.50400000000E-02 0.  1.
         24    2    1    2    0    0 -0.17763568394E-14  0.00000000000E+00  0.16298628704E+04  0.16317418622E+04  0.78284919011E+02 0.  0.
         66    2    3    3    0    0  0.13128204185E+02 -0.58364167332E+01  0.15738130477E+04  0.15738798946E+04  0.20000036783E+01 0.  0.
        -13    1    3    3    0    0 -0.13128204185E+02  0.58364167332E+01  0.56049822667E+02  0.57861967564E+02  0.10566000000E+00 0.  1.
         13    1    4    4    0    0  0.27115720336E+01 -0.12459448513E+01  0.31371012996E+03  0.31372434047E+03  0.10566000000E+00 0. -1.
        -13    1    4    4    0    0  0.17370467828E+01 -0.14806350808E+00  0.16581807175E+03  0.16582726959E+03  0.10566000000E+00 0.  1.
        -14    1    4    4    0    0  0.86795853686E+01 -0.44424083738E+01  0.10942848460E+04  0.10943282846E+04  0.00000000000E+00 0.  1.
<mgrwt>
<rscale>  0 0.78284919E+02</rscale>
<asrwt>0</asrwt>
<pdfrwt beam="1">  1        2 0.25089481E+00 0.78284919E+02</pdfrwt>
<pdfrwt beam="2">  1       -1 0.14453660E-03 0.78284919E+02</pdfrwt>
<totfact> 0.33906401E+05</totfact>
</mgrwt>
</event>
<event>
 8    1  0.2433467E-024  0.8048454E+02  0.7818608E-02  0.1327682E+00
         -1   -1    0    0    0  501 -0.00000000000E+00  0.00000000000E+00  0.69574922921E+01  0.69574941176E+01  0.50400000000E-02 0.  1.
          2   -1    0    0  501    0  0.00000000000E+00 -0.00000000000E+00 -0.23276203374E+03  0.23276203375E+03  0.25500000000E-02 0. -1.
         24    2    1    2    0    0  0.00000000000E+00  0.00000000000E+00 -0.22580454145E+03  0.23971952787E+03  0.80484539537E+02 0.  0.
         66    2    3    3    0    0 -0.12686619928E+02  0.34783184221E+01 -0.22616819626E+03  0.22655926826E+03  0.20000023613E+01 0.  0.
        -13    1    3    3    0    0  0.12686619928E+02 -0.34783184221E+01  0.36365481286E+00  0.13160259614E+02  0.10566000000E+00 0.  1.
         13    1    4    4    0    0 -0.22976419821E+01  0.29564653627E+00 -0.39626761226E+02  0.39694558000E+02  0.10566000000E+00 0. -1.
        -13    1    4    4    0    0 -0.84445724908E+00  0.53185327677E+00 -0.24727557744E+02  0.24747914094E+02  0.10566000000E+00 0.  1.
        -14    1    4    4    0    0 -0.95445206967E+01  0.26508186091E+01 -0.16181387729E+03  0.16211679616E+03  0.00000000000E+00 0.  1.
<mgrwt>
<rscale>  0 0.80484540E+02</rscale>
<asrwt>0</asrwt>
<pdfrwt beam="1">  1        2 0.35809538E-01 0.80484540E+02</pdfrwt>
<pdfrwt beam="2">  1       -1 0.10703837E-02 0.80484540E+02</pdfrwt>
<totfact> 0.22900416E+05</totfact>
</mgrwt>
</event>
<event>
 8    1  0.2433467E-024  0.8005652E+02  0.7818608E-02  0.1328891E+00
          2   -1    0    0  501    0  0.00000000000E+00  0.00000000000E+00  0.12319947100E+04  0.12319947100E+04  0.25500000000E-02 0. -1.
         -1   -1    0    0    0  501 -0.00000000000E+00 -0.00000000000E+00 -0.13005375797E+01  0.13005473455E+01  0.50400000000E-02 0.  1.
         24    2    1    2    0    0 -0.22204460493E-15  0.00000000000E+00  0.12306941724E+04  0.12332952574E+04  0.80056516088E+02 0.  0.
         66    2    3    3    0    0  0.18590578356E+01 -0.11871364443E+02  0.12035331148E+04  0.12035947590E+04  0.19999943366E+01 0.  0.
        -13    1    3    3    0    0 -0.18590578356E+01  0.11871364443E+02  0.27161057647E+02  0.29700498419E+02  0.10566000000E+00 0.  1.
         13    1    4    4    0    0  0.13429182222E+01 -0.71993890704E+01  0.74768652873E+03  0.74772240240E+03  0.10566000000E+00 0. -1.
        -13    1    4    4    0    0  0.71245605191E+00 -0.23852631371E+01  0.20119113405E+03  0.20120656216E+03  0.10566000000E+00 0.  1.
        -14    1    4    4    0    0 -0.19631643849E+00 -0.22867122351E+01  0.25465545202E+03  0.25466579440E+03  0.00000000000E+00 0.  1.
<mgrwt>
<rscale>  0 0.80056516E+02</rscale>
<asrwt>0</asrwt>
<pdfrwt beam="1">  1        2 0.18953895E+00 0.80056516E+02</pdfrwt>
<pdfrwt beam="2">  1       -1 0.20008208E-03 0.80056516E+02</pdfrwt>
<totfact> 0.34860574E+05</totfact>
</mgrwt>
</event>
<event>
 8    1  0.2433467E-024  0.7964398E+02  0.7818608E-02  0.1330065E+00
         -1   -1    0    0    0  501 -0.00000000000E+00  0.00000000000E+00  0.12832737371E+02  0.12832738361E+02  0.50400000000E-02 0.  1.
          2   -1    0    0  501    0  0.00000000000E+00 -0.00000000000E+00 -0.12357386479E+03  0.12357386482E+03  0.25500000000E-02 0. -1.
         24    2    1    2    0    0  0.00000000000E+00  0.00000000000E+00 -0.11074112742E+03  0.13640660318E+03  0.79643983379E+02 0.  0.
         66    2    3    3    0    0 -0.23460751102E+02 -0.42520041593E+01 -0.10997859901E+03  0.11255122653E+03  0.19999927673E+01 0.  0.
        -13    1    3    3    0    0  0.23460751102E+02  0.42520041593E+01 -0.76252841242E+00  0.23855376653E+02  0.10566000000E+00 0.  1.
         13    1    4    4    0    0 -0.10330160789E+02 -0.14932350728E+01 -0.45304408086E+02  0.46491316705E+02  0.10566000000E+00 0. -1.
        -13    1    4    4    0    0 -0.12727424745E+02 -0.28553846185E+01 -0.62802376328E+02  0.64142733014E+02  0.10566000000E+00 0.  1.
        -14    1    4    4    0    0 -0.40316556839E+00  0.96615532018E-01 -0.18718145937E+01  0.19171768071E+01  0.00000000000E+00 0.  1.
<mgrwt>
<rscale>  0 0.79643983E+02</rscale>
<asrwt>0</asrwt>
<pdfrwt beam="1">  1        2 0.19011363E-01 0.79643983E+02</pdfrwt>
<pdfrwt beam="2">  1       -1 0.19742675E-02 0.79643983E+02</pdfrwt>
<totfact> 0.19077678E+05</totfact>
</mgrwt>
</event>
<event>
 8    1  0.2433467E-024  0.8005032E+02  0.7818608E-02  0.1328909E+00
          2   -1    0    0  501    0  0.00000000000E+00  0.00000000000E+00  0.15696860608E+03  0.15696860610E+03  0.25500000000E-02 0. -1.
         -1   -1    0    0    0  501 -0.00000000000E+00 -0.00000000000E+00 -0.10205946117E+02  0.10205947361E+02  0.50400000000E-02 0.  1.
         24    2    1    2    0    0 -0.17763568394E-14  0.00000000000E+00  0.14676265997E+03  0.16717455347E+03  0.80050315214E+02 0.  0.
         66    2    3    3    0    0  0.15909176443E+02  0.16600781707E+02  0.14178146212E+03  0.14364773166E+03  0.19999899405E+01 0.  0.
        -13    1    3    3    0    0 -0.15909176443E+02 -0.16600781707E+02  0.49811978416E+01  0.23526821807E+02  0.10566000000E+00 0.  1.
         13    1    4    4    0    0  0.27812746957E+01  0.33573044429E+01  0.24469970611E+02  0.24855534752E+02  0.10566000000E+00 0. -1.
        -13    1    4    4    0    0  0.29001887370E+01  0.35899780777E+01  0.26841003216E+02  0.27235081329E+02  0.10566000000E+00 0.  1.
         14    1    4    4    0    0  0.10227713010E+02  0.96534991865E+01  0.90470488298E+02  0.91557115577E+02  0.00000000000E+00 0. -1.
<mgrwt>
<rscale>  0 0.80050315E+02</rscale>
<asrwt>0</asrwt>
<pdfrwt beam="1">  1        2 0.24149015E-01 0.80050315E+02</pdfrwt>
<pdfrwt beam="2">  1       -1 0.15701457E-02 0.80050315E+02</pdfrwt>
<totfact> 0.20293350E+05</totfact>
</mgrwt>
</event>
<event>
 8    1  0.2433467E-024  0.7747905E+02  0.7818608E-02  0.1336362E+00
         -1   -1    0    0    0  501 -0.00000000000E+00  0.00000000000E+00  0.45973264708E+01  0.45973292334E+01  0.50400000000E-02 0.  1.
          2   -1    0    0  501    0  0.00000000000E+00 -0.00000000000E+00 -0.32643982958E+03  0.32643982959E+03  0.25500000000E-02 0. -1.
         24    2    1    2    0    0  0.00000000000E+00  0.00000000000E+00 -0.32184250311E+03  0.33103715883E+03  0.77479053391E+02 0.  0.
         66    2    3    3    0    0 -0.38529561134E+02 -0.13983781039E+01 -0.17599050234E+03  0.18017530203E+03  0.20000014007E+01 0.  0.
        -13    1    3    3    0    0  0.38529561134E+02  0.13983781039E+01 -0.14585200077E+03  0.15086185679E+03  0.10566000000E+00 0.  1.
         13    1    4    4    0    0 -0.14176663493E+02 -0.68546608890E+00 -0.62156353131E+02  0.63756341255E+02  0.10566000000E+00 0. -1.
        -13    1    4    4    0    0 -0.11370977104E+02 -0.26525624440E-02 -0.55645832139E+02  0.56795853069E+02  0.10566000000E+00 0.  1.
        -14    1    4    4    0    0 -0.12981920536E+02 -0.71025945255E+00 -0.58188317071E+02  0.59623107709E+02  0.00000000000E+00 0.  1.
<mgrwt>
<rscale>  0 0.77479053E+02</rscale>
<asrwt>0</asrwt>
<pdfrwt beam="1">  1        2 0.50221494E-01 0.77479053E+02</pdfrwt>
<pdfrwt beam="2">  1       -1 0.70728147E-03 0.77479053E+02</pdfrwt>
<totfact> 0.28579551E+05</totfact>
</mgrwt>
</event>
<event>
 8    1  0.2433467E-024  0.8093325E+02  0.7818608E-02  0.1326424E+00
         -1   -1    0    0    0  501 -0.00000000000E+00  0.00000000000E+00  0.13995612289E+01  0.13995703037E+01  0.50400000000E-02 0.  1.
          2   -1    0    0  501    0  0.00000000000E+00 -0.00000000000E+00 -0.11700399176E+04  0.11700399176E+04  0.25500000000E-02 0. -1.
         24    2    1    2    0    0  0.17763568394E-14  0.00000000000E+00 -0.11686403564E+04  0.11714394879E+04  0.80933252051E+02 0.  0.
         66    2    3    3    0    0  0.10461087924E+02 -0.12579539731E+02 -0.11199970017E+04  0.11201182808E+04  0.20000001200E+01 0.  0.
        -13    1    3    3    0    0 -0.10461087924E+02  0.12579539731E+02 -0.48643354659E+02  0.51321207087E+02  0.10566000000E+00 0.  1.
         13    1    4    4    0    0  0.85814959907E-01 -0.20312875265E+00 -0.10539793534E+02  0.10542629523E+02  0.10566000000E+00 0. -1.
        -13    1    4    4    0    0  0.16468177975E+01 -0.22020903590E+01 -0.15704739958E+03  0.15707150629E+03  0.10566000000E+00 0.  1.
        -14    1    4    4    0    0  0.87284551669E+01 -0.10174320619E+02 -0.95240980861E+03  0.95250414501E+03  0.00000000000E+00 0.  1.
<mgrwt>
<rscale>  0 0.80933252E+02</rscale>
<asrwt>0</asrwt>
<pdfrwt beam="1">  1        2 0.18000536E+00 0.80933252E+02</pdfrwt>
<pdfrwt beam="2">  1       -1 0.21531875E-03 0.80933252E+02</pdfrwt>
<totfact> 0.34082651E+05</totfact>
</mgrwt>
</event>
<event>
 8    1  0.2433467E-024  0.7876575E+02  0.7818608E-02  0.1332591E+00
         -1   -1    0    0    0  501 -0.00000000000E+00  0.00000000000E+00  0.25451512254E+01  0.25451562156E+01  0.50400000000E-02 0.  1.
          2   -1    0    0  501    0  0.00000000000E+00 -0.00000000000E+00 -0.60939769493E+03  0.60939769494E+03  0.25500000000E-02 0. -1.
         24    2    1    2    0    0 -0.35527136788E-14  0.00000000000E+00 -0.60685254371E+03  0.61194285115E+03  0.78765749371E+02 0.  0.
         66    2    3    3    0    0 -0.28914754118E+02  0.20278929438E+02 -0.43856946286E+03  0.43999371784E+03  0.19999994060E+01 0.  0.
        -13    1    3    3    0    0  0.28914754118E+02 -0.20278929438E+02 -0.16828308084E+03  0.17194913331E+03  0.10566000000E+00 0.  1.
         13    1    4    4    0    0 -0.19335336455E+02  0.13882840440E+02 -0.29835575030E+03  0.29930378112E+03  0.10566000000E+00 0. -1.
        -13    1    4    4    0    0 -0.10511711346E+01  0.39313691459E+00 -0.12061808675E+02  0.12114367913E+02  0.10566000000E+00 0.  1.
        -14    1    4    4    0    0 -0.85282465286E+01  0.60029520836E+01 -0.12815190389E+03  0.12857556880E+03  0.00000000000E+00 0.  1.
<mgrwt>
<rscale>  0 0.78765749E+02</rscale>
<asrwt>0</asrwt>
<pdfrwt beam="1">  1        2 0.93753375E-01 0.78765749E+02</pdfrwt>
<pdfrwt beam="2">  1       -1 0.39156260E-03 0.78765749E+02</pdfrwt>
<totfact> 0.33634346E+05</totfact>
</mgrwt>
</event>
<event>
 8    1  0.2433467E-024  0.8038575E+02  0.7818608E-02  0.1327960E+00
         -1   -1    0    0    0  501 -0.00000000000E+00  0.00000000000E+00  0.18762432498E+03  0.18762432505E+03  0.50400000000E-02 0.  1.
          2   -1    0    0  501    0  0.00000000000E+00 -0.00000000000E+00 -0.86101168118E+01  0.86101171894E+01  0.25500000000E-02 0. -1.
         24    2    1    2    0    0  0.00000000000E+00 -0.44408920985E-15  0.17901420817E+03  0.19623444224E+03  0.80385754920E+02 0.  0.
         66    2    3    3    0    0 -0.39147112395E+02  0.39664859768E+01  0.69845854017E+02  0.80191475488E+02  0.19999994188E+01 0.  0.
        -13    1    3    3    0    0  0.39147112395E+02 -0.39664859768E+01  0.10916835415E+03  0.11604296675E+03  0.10566000000E+00 0.  1.
         13    1    4    4    0    0 -0.12950244230E+02  0.11348475029E+01  0.22615765144E+02  0.26086025024E+02  0.10566000000E+00 0. -1.
        -13    1    4    4    0    0 -0.22483107756E+02  0.19450370612E+01  0.39859678779E+02  0.45804786430E+02  0.10566000000E+00 0.  1.
        -14    1    4    4    0    0 -0.37137604095E+01  0.88660141268E+00  0.73704100942E+01  0.83006640337E+01  0.00000000000E+00 0.  1.
<mgrwt>
<rscale>  0 0.80385755E+02</rscale>
<asrwt>0</asrwt>
<pdfrwt beam="1">  1        2 0.13246333E-02 0.80385755E+02</pdfrwt>
<pdfrwt beam="2">  1       -1 0.28865283E-01 0.80385755E+02</pdfrwt>
<totfact> 0.10027476E+05</totfact>
</mgrwt>
</event>
<event>
 8    1  0.2433467E-024  0.7746174E+02  0.7818608E-02  0.1336413E+00
          2   -1    0    0  501    0  0.00000000000E+00  0.00000000000E+00  0.12929531974E+03  0.12929531977E+03  0.25500000000E-02 0. -1.
         -1   -1    0    0    0  501 -0.00000000000E+00 -0.00000000000E+00 -0.11601969745E+02  0.11601970840E+02  0.50400000000E-02 0.  1.
         24    2    1    2    0    0  0.00000000000E+00  0.00000000000E+00  0.11769335000E+03  0.14089729061E+03  0.77461744538E+02 0.  0.
         66    2    3    3    0    0 -0.11066230468E+01  0.15124095894E+02  0.12365883550E+03  0.12460124592E+03  0.19999990637E+01 0.  0.
        -13    1    3    3    0    0  0.11066230468E+01 -0.15124095894E+02 -0.59654855020E+01  0.16296044689E+02  0.10566000000E+00 0.  1.
         13    1    4    4    0    0 -0.60097629687E+00  0.82302114661E+01  0.70296444587E+02  0.70779226041E+02  0.10566000000E+00 0. -1.
        -13    1    4    4    0    0  0.28450237357E+00  0.15866196265E+01  0.10145067880E+02  0.10272870571E+02  0.10566000000E+00 0.  1.
        -14    1    4    4    0    0 -0.79014912354E+00  0.53072648018E+01  0.43217323030E+02  0.43549149305E+02  0.00000000000E+00 0.  1.
<mgrwt>
<rscale>  0 0.77461745E+02</rscale>
<asrwt>0</asrwt>
<pdfrwt beam="1">  1        2 0.19891589E-01 0.77461745E+02</pdfrwt>
<pdfrwt beam="2">  1       -1 0.17849184E-02 0.77461745E+02</pdfrwt>
<totfact> 0.20824336E+05</totfact>
</mgrwt>
</event>
<event>
 8    1  0.2433467E-024  0.7927798E+02  0.7818608E-02  0.1331113E+00
         -1   -1    0    0    0  501 -0.00000000000E+00  0.00000000000E+00  0.32075751252E+01  0.32075790848E+01  0.50400000000E-02 0.  1.
          2   -1    0    0  501    0  0.00000000000E+00 -0.00000000000E+00 -0.48985557525E+03  0.48985557525E+03  0.25500000000E-02 0. -1.
         24    2    1    2    0    0  0.00000000000E+00  0.00000000000E+00 -0.48664800012E+03  0.49306315434E+03  0.79277980194E+02 0.  0.
         66    2    3    3    0    0  0.24809833189E+02  0.30610119038E+02 -0.26892291348E+03  0.27180147277E+03  0.19999996693E+01 0.  0.
        -13    1    3    3    0    0 -0.24809833189E+02 -0.30610119038E+02 -0.21772508665E+03  0.22126168157E+03  0.10566000000E+00 0.  1.
         13    1    4    4    0    0  0.15414836505E+02  0.19737710976E+02 -0.17584756367E+03  0.17762198972E+03  0.10566000000E+00 0. -1.
        -13    1    4    4    0    0  0.51094913289E+01  0.62621646818E+01 -0.51617531641E+02  0.52246553426E+02  0.10566000000E+00 0.  1.
         14    1    4    4    0    0  0.42855053545E+01  0.46102433796E+01 -0.41457818165E+02  0.41932929628E+02  0.00000000000E+00 0. -1.
<mgrwt>
<rscale>  0 0.79277980E+02</rscale>
<asrwt>0</asrwt>
<pdfrwt beam="1">  1        2 0.75362337E-01 0.79277980E+02</pdfrwt>
<pdfrwt beam="2">  1       -1 0.49347379E-03 0.79277980E+02</pdfrwt>
<totfact> 0.30975086E+05</totfact>
</mgrwt>
</event>
<event>
 8    1  0.2433467E-024  0.7920095E+02  0.7818608E-02  0.1331334E+00
         -1   -1    0    0    0  501 -0.00000000000E+00  0.00000000000E+00  0.13621567456E+01  0.13621660696E+01  0.50400000000E-02 0.  1.
          2   -1    0    0  501    0  0.00000000000E+00 -0.00000000000E+00 -0.11512568286E+04  0.11512568286E+04  0.25500000000E-02 0. -1.
         24    2    1    2    0    0 -0.44408920985E-15 -0.35527136788E-14 -0.11498946719E+04  0.11526189947E+04  0.79200950250E+02 0.  0.
         66    2    3    3    0    0  0.20382035739E+01  0.25528995697E+02 -0.10143991015E+04  0.10147243079E+04  0.19999977481E+01 0.  0.
        -13    1    3    3    0    0 -0.20382035739E+01 -0.25528995697E+02 -0.13549557041E+03  0.13789468684E+03  0.10566000000E+00 0.  1.
         13    1    4    4    0    0  0.79658058969E+00  0.31608995885E+01 -0.13446730492E+03  0.13450685143E+03  0.10566000000E+00 0. -1.
        -13    1    4    4    0    0  0.63120417952E+00  0.13863738776E+02 -0.52751346878E+03  0.52769600394E+03  0.10566000000E+00 0.  1.
         14    1    4    4    0    0  0.61041880464E+00  0.85043573319E+01 -0.35241832778E+03  0.35252145248E+03  0.00000000000E+00 0. -1.
<mgrwt>
<rscale>  0 0.79200950E+02</rscale>
<asrwt>0</asrwt>
<pdfrwt beam="1">  1        2 0.17711566E+00 0.79200950E+02</pdfrwt>
<pdfrwt beam="2">  1       -1 0.20956422E-03 0.79200950E+02</pdfrwt>
<totfact> 0.36097966E+05</totfact>
</mgrwt>
</event>
<event>
 8    1  0.2433467E-024  0.8035154E+02  0.7818608E-02  0.1328057E+00
          2   -1    0    0  501    0  0.00000000000E+00  0.00000000000E+00  0.12805181053E+04  0.12805181053E+04  0.25500000000E-02 0. -1.
         -1   -1    0    0    0  501 -0.00000000000E+00 -0.00000000000E+00 -0.12604946490E+01  0.12605047250E+01  0.50400000000E-02 0.  1.
         24    2    1    2    0    0 -0.35527136788E-14  0.35527136788E-14  0.12792576107E+04  0.12817786101E+04  0.80351544578E+02 0.  0.
         66    2    3    3    0    0 -0.19070804016E+02  0.14641698455E+02  0.11529819101E+04  0.11532343040E+04  0.19999994534E+01 0.  0.
        -13    1    3    3    0    0  0.19070804016E+02 -0.14641698455E+02  0.12627570060E+03  0.12854430608E+03  0.10566000000E+00 0.  1.
         13    1    4    4    0    0 -0.21340752051E+01  0.19318631266E+01  0.11847698579E+03  0.11851199812E+03  0.10566000000E+00 0. -1.
        -13    1    4    4    0    0 -0.12224191975E+02  0.91725754372E+01  0.77183890214E+03  0.77199020009E+03  0.10566000000E+00 0.  1.
        -14    1    4    4    0    0 -0.47125368364E+01  0.35372598917E+01  0.26266602215E+03  0.26273210577E+03  0.00000000000E+00 0.  1.
<mgrwt>
<rscale>  0 0.80351545E+02</rscale>
<asrwt>0</asrwt>
<pdfrwt beam="1">  1        2 0.19700310E+00 0.80351545E+02</pdfrwt>
<pdfrwt beam="2">  1       -1 0.19392272E-03 0.80351545E+02</pdfrwt>
<totfact> 0.34320906E+05</totfact>
</mgrwt>
</event>
<event>
 8    1  0.2433467E-024  0.8022710E+02  0.7818608E-02  0.1328408E+00
          2   -1    0    0  501    0  0.00000000000E+00  0.00000000000E+00  0.30221917733E+03  0.30221917734E+03  0.25500000000E-02 0. -1.
         -1   -1    0    0    0  501 -0.00000000000E+00 -0.00000000000E+00 -0.53242707300E+01  0.53242731154E+01  0.50400000000E-02 0.  1.
         24    2    1    2    0    0  0.00000000000E+00  0.00000000000E+00  0.29689490660E+03  0.30754345046E+03  0.80227104855E+02 0.  0.
         66    2    3    3    0    0  0.32989870720E+02 -0.50825982029E+01  0.23364874668E+03  0.23602944985E+03  0.19999987281E+01 0.  0.
        -13    1    3    3    0    0 -0.32989870720E+02  0.50825982029E+01  0.63246159921E+02  0.71514000611E+02  0.10566000000E+00 0.  1.
         13    1    4    4    0    0  0.53722573721E+01 -0.21969122153E+00  0.39706241428E+02  0.40068768210E+02  0.10566000000E+00 0. -1.
        -13    1    4    4    0    0  0.14526303130E+01 -0.28816960967E+00  0.94672939215E+01  0.95830055193E+01  0.10566000000E+00 0.  1.
         14    1    4    4    0    0  0.26164983035E+02 -0.45747373717E+01  0.18447521133E+03  0.18637767612E+03  0.00000000000E+00 0. -1.
<mgrwt>
<rscale>  0 0.80227105E+02</rscale>
<asrwt>0</asrwt>
<pdfrwt beam="1">  1        2 0.46495264E-01 0.80227105E+02</pdfrwt>
<pdfrwt beam="2">  1       -1 0.81911866E-03 0.80227105E+02</pdfrwt>
<totfact> 0.25373309E+05</totfact>
</mgrwt>
</event>
<event>
 8    1  0.2433467E-024  0.8042513E+02  0.7818608E-02  0.1327849E+00
          2   -1    0    0  501    0  0.00000000000E+00  0.00000000000E+00  0.45853779863E+02  0.45853779934E+02  0.25500000000E-02 0. -1.
         -1   -1    0    0    0  501 -0.00000000000E+00 -0.00000000000E+00 -0.35265364810E+02  0.35265365170E+02  0.50400000000E-02 0.  1.
         24    2    1    2    0    0  0.35527136788E-14  0.35527136788E-14  0.10588415053E+02  0.81119145105E+02  0.80425127722E+02 0.  0.
         66    2    3    3    0    0  0.20704002301E+02  0.30922498983E+02  0.20600366783E+02  0.42582059121E+02  0.19999981858E+01 0.  0.
        -13    1    3    3    0    0 -0.20704002301E+02 -0.30922498983E+02 -0.10011951730E+02  0.38537085984E+02  0.10566000000E+00 0.  1.
         13    1    4    4    0    0  0.12783306528E+01  0.19736393487E+01  0.17958719575E+01  0.29606927669E+01  0.10566000000E+00 0.  1.
        -13    1    4    4    0    0  0.14455657157E+02  0.21086397907E+02  0.13429040488E+02  0.28878235628E+02  0.10566000000E+00 0. -1.
         14    1    4    4    0    0  0.49700144907E+01  0.78624617276E+01  0.53754543375E+01  0.10743130726E+02  0.00000000000E+00 0. -1.
<mgrwt>
<rscale>  0 0.80425128E+02</rscale>
<asrwt>0</asrwt>
<pdfrwt beam="1">  1        2 0.70544276E-02 0.80425128E+02</pdfrwt>
<pdfrwt beam="2">  1       -1 0.54254408E-02 0.80425128E+02</pdfrwt>
<totfact> 0.14455311E+05</totfact>
</mgrwt>
</event>
<event>
 8    1  0.2433467E-024  0.7753690E+02  0.7818608E-02  0.1336190E+00
         -1   -1    0    0    0  501 -0.00000000000E+00  0.00000000000E+00  0.12106799164E+03  0.12106799174E+03  0.50400000000E-02 0.  1.
          2   -1    0    0  501    0  0.00000000000E+00 -0.00000000000E+00 -0.12414450326E+02  0.12414450588E+02  0.25500000000E-02 0. -1.
         24    2    1    2    0    0 -0.44408920985E-15  0.00000000000E+00  0.10865354131E+03  0.13348244233E+03  0.77536896838E+02 0.  0.
         66    2    3    3    0    0  0.37188354673E+01  0.19590759663E+02 -0.28211621889E+01  0.20238244750E+02  0.19999982623E+01 0.  0.
        -13    1    3    3    0    0 -0.37188354673E+01 -0.19590759663E+02  0.11147470350E+03  0.11324419758E+03  0.10566000000E+00 0.  1.
         13    1    4    4    0    0  0.22227415287E+00  0.25221863102E+01 -0.14807118846E+00  0.25384874818E+01  0.10566000000E+00 0. -1.
        -13    1    4    4    0    0  0.27573377672E+01  0.11234516607E+02 -0.23868563887E+01  0.11812092211E+02  0.10566000000E+00 0.  1.
        -14    1    4    4    0    0  0.73922354725E+00  0.58340567456E+01 -0.28623461175E+00  0.58876650565E+01  0.00000000000E+00 0.  1.
<mgrwt>
<rscale>  0 0.77536897E+02</rscale>
<asrwt>0</asrwt>
<pdfrwt beam="1">  1        2 0.19099154E-02 0.77536897E+02</pdfrwt>
<pdfrwt beam="2">  1       -1 0.18625845E-01 0.77536897E+02</pdfrwt>
<totfact> 0.12289107E+05</totfact>
</mgrwt>
</event>
<event>
 8    1  0.2433467E-024  0.7990327E+02  0.7818608E-02  0.1329326E+00
         -1   -1    0    0    0  501 -0.00000000000E+00  0.00000000000E+00  0.32079943101E+02  0.32079943497E+02  0.50400000000E-02 0.  1.
          2   -1    0    0  501    0  0.00000000000E+00 -0.00000000000E+00 -0.49754855533E+02  0.49754855598E+02  0.25500000000E-02 0. -1.
         24    2    1    2    0    0  0.00000000000E+00  0.00000000000E+00 -0.17674912432E+02  0.81834799095E+02  0.79903265349E+02 0.  0.
         66    2    3    3    0    0 -0.29392414799E+02 -0.26360968587E+02 -0.14929125676E+02  0.42257466927E+02  0.20000012762E+01 0.  0.
        -13    1    3    3    0    0  0.29392414799E+02  0.26360968587E+02 -0.27457867557E+01  0.39577332168E+02  0.10566000000E+00 0.  1.
         13    1    4    4    0    0 -0.10389750779E+02 -0.86272710145E+01 -0.54730154161E+01  0.14571952106E+02  0.10566000000E+00 0. -1.
        -13    1    4    4    0    0 -0.18616081528E+02 -0.17298981296E+02 -0.94195456578E+01  0.27102624408E+02  0.10566000000E+00 0.  1.
        -14    1    4    4    0    0 -0.38658249238E+00 -0.43471627593E+00 -0.36564601916E-01  0.58289041345E+00  0.00000000000E+00 0.  1.
<mgrwt>
<rscale>  0 0.79903265E+02</rscale>
<asrwt>0</asrwt>
<pdfrwt beam="1">  1        2 0.76545932E-02 0.79903265E+02</pdfrwt>
<pdfrwt beam="2">  1       -1 0.49353759E-02 0.79903265E+02</pdfrwt>
<totfact> 0.14976590E+05</totfact>
</mgrwt>
</event>
<event>
 8    1  0.2433467E-024  0.8100179E+02  0.7818608E-02  0.1326232E+00
         -1   -1    0    0    0  501 -0.00000000000E+00  0.00000000000E+00  0.38035931148E+01  0.38035964539E+01  0.50400000000E-02 0.  1.
          2   -1    0    0  501    0  0.00000000000E+00 -0.00000000000E+00 -0.43125583158E+03  0.43125583159E+03  0.25500000000E-02 0. -1.
         24    2    1    2    0    0  0.00000000000E+00  0.00000000000E+00 -0.42745223846E+03  0.43505942804E+03  0.81001788615E+02 0.  0.
         66    2    3    3    0    0 -0.19985840486E+02 -0.94704239207E+01 -0.39593124660E+03  0.39655349549E+03  0.20000012948E+01 0.  0.
        -13    1    3    3    0    0  0.19985840486E+02  0.94704239207E+01 -0.31520991868E+02  0.38505932550E+02  0.10566000000E+00 0.  1.
         13    1    4    4    0    0 -0.14937057569E+02 -0.68433210016E+01 -0.30482798703E+03  0.30527046954E+03  0.10566000000E+00 0. -1.
        -13    1    4    4    0    0 -0.42029555731E+01 -0.24291774292E+01 -0.76459749060E+02  0.76613772449E+02  0.10566000000E+00 0.  1.
         14    1    4    4    0    0 -0.84582734399E+00 -0.19792548998E+00 -0.14643510503E+02  0.14669253500E+02  0.00000000000E+00 0. -1.
<mgrwt>
<rscale>  0 0.81001789E+02</rscale>
<asrwt>0</asrwt>
<pdfrwt beam="1">  1        2 0.66347012E-01 0.81001789E+02</pdfrwt>
<pdfrwt beam="2">  1       -1 0.58516877E-03 0.81001789E+02</pdfrwt>
<totfact> 0.28070530E+05</totfact>
</mgrwt>
</event>
<event>
 8    1  0.2433467E-024  0.7980695E+02  0.7818608E-02  0.1329600E+00
         -1   -1    0    0    0  501 -0.00000000000E+00  0.00000000000E+00  0.36350291634E+02  0.36350291983E+02  0.50400000000E-02 0.  1.
          2   -1    0    0  501    0  0.00000000000E+00 -0.00000000000E+00 -0.43803975578E+02  0.43803975653E+02  0.25500000000E-02 0. -1.
         24    2    1    2    0    0  0.00000000000E+00  0.00000000000E+00 -0.74536839447E+01  0.80154267636E+02  0.79806949671E+02 0.  0.
         66    2    3    3    0    0 -0.33194637595E+02 -0.93719870273E+01 -0.23830377994E+02  0.41971478608E+02  0.19999988060E+01 0.  0.
        -13    1    3    3    0    0  0.33194637595E+02  0.93719870273E+01  0.16376694050E+02  0.38182789028E+02  0.10566000000E+00 0.  1.
         13    1    4    4    0    0 -0.11365583807E+02 -0.28928033613E+01 -0.80359664591E+01  0.14217338975E+02  0.10566000000E+00 0. -1.
        -13    1    4    4    0    0 -0.14990012327E+02 -0.47968396982E+01 -0.10145866210E+02  0.18725915354E+02  0.10566000000E+00 0.  1.
        -14    1    4    4    0    0 -0.68390414612E+01 -0.16823439678E+01 -0.56485453249E+01  0.90282242784E+01  0.00000000000E+00 0.  1.
<mgrwt>
<rscale>  0 0.79806950E+02</rscale>
<asrwt>0</asrwt>
<pdfrwt beam="1">  1        2 0.67390731E-02 0.79806950E+02</pdfrwt>
<pdfrwt beam="2">  1       -1 0.55923526E-02 0.79806950E+02</pdfrwt>
<totfact> 0.14623557E+05</totfact>
</mgrwt>
</event>
<event>
 8    1  0.2433467E-024  0.8007781E+02  0.7818608E-02  0.1328831E+00
         -1   -1    0    0    0  501 -0.00000000000E+00  0.00000000000E+00  0.87223920445E+01  0.87223935006E+01  0.50400000000E-02 0.  1.
          2   -1    0    0  501    0  0.00000000000E+00 -0.00000000000E+00 -0.18379289966E+03  0.18379289968E+03  0.25500000000E-02 0. -1.
         24    2    1    2    0    0  0.00000000000E+00  0.00000000000E+00 -0.17507050761E+03  0.19251529318E+03  0.80077808854E+02 0.  0.
         66    2    3    3    0    0 -0.39822068389E+02 -0.36596796317E+01 -0.90919641859E+02  0.99345717901E+02  0.20000009023E+01 0.  0.
        -13    1    3    3    0    0  0.39822068389E+02  0.36596796317E+01 -0.84150865756E+02  0.93169575277E+02  0.10566000000E+00 0.  1.
         13    1    4    4    0    0 -0.22047387260E+02 -0.15601338034E+01 -0.49620312630E+02  0.54320418740E+02  0.10566000000E+00 0. -1.
        -13    1    4    4    0    0 -0.74162807576E+01 -0.12657460760E+01 -0.18353301737E+02  0.19835780350E+02  0.10566000000E+00 0.  1.
        -14    1    4    4    0    0 -0.10358400371E+02 -0.83379975224E+00 -0.22946027492E+02  0.25189518811E+02  0.00000000000E+00 0.  1.
<mgrwt>
<rscale>  0 0.80077809E+02</rscale>
<asrwt>0</asrwt>
<pdfrwt beam="1">  1        2 0.28275828E-01 0.80077809E+02</pdfrwt>
<pdfrwt beam="2">  1       -1 0.13419067E-02 0.80077809E+02</pdfrwt>
<totfact> 0.21370989E+05</totfact>
</mgrwt>
</event>
<event>
 8    1  0.2433467E-024  0.7773553E+02  0.7818608E-02  0.1335603E+00
          2   -1    0    0  501    0  0.00000000000E+00  0.00000000000E+00  0.48120199300E+02  0.48120199368E+02  0.25500000000E-02 0. -1.
         -1   -1    0    0    0  501 -0.00000000000E+00 -0.00000000000E+00 -0.31394364440E+02  0.31394364844E+02  0.50400000000E-02 0.  1.
         24    2    1    2    0    0 -0.71054273576E-14  0.35527136788E-14  0.16725834861E+02  0.79514564212E+02  0.77735528364E+02 0.  0.
         66    2    3    3    0    0  0.22149373644E+02 -0.16488784706E+02  0.36310699615E+02  0.45661161644E+02  0.20000005733E+01 0.  0.
        -13    1    3    3    0    0 -0.22149373644E+02  0.16488784706E+02 -0.19584864754E+02  0.33853402567E+02  0.10566000000E+00 0.  1.
         13    1    4    4    0    0  0.14462688727E+02 -0.10511325186E+02  0.23367810348E+02  0.29423171938E+02  0.10566000000E+00 0. -1.
        -13    1    4    4    0    0  0.82985977236E+00 -0.91964811468E+00  0.21936289054E+01  0.25214265222E+01  0.10566000000E+00 0.  1.
        -14    1    4    4    0    0  0.68568251444E+01 -0.50578114060E+01  0.10749260361E+02  0.13716563184E+02  0.00000000000E+00 0.  1.
<mgrwt>
<rscale>  0 0.77735528E+02</rscale>
<asrwt>0</asrwt>
<pdfrwt beam="1">  1        2 0.74031076E-02 0.77735528E+02</pdfrwt>
<pdfrwt beam="2">  1       -1 0.48299023E-02 0.77735528E+02</pdfrwt>
<totfact> 0.16031544E+05</totfact>
</mgrwt>
</event>
<event>
 8    1  0.2433467E-024  0.7978713E+02  0.7818608E-02  0.1329657E+00
         -1   -1    0    0    0  501 -0.00000000000E+00  0.00000000000E+00  0.72722754116E+02  0.72722754290E+02  0.50400000000E-02 0.  1.
          2   -1    0    0  501    0  0.00000000000E+00 -0.00000000000E+00 -0.21884439003E+02  0.21884439152E+02  0.25500000000E-02 0. -1.
         24    2    1    2    0    0  0.71054273576E-14  0.00000000000E+00  0.50838315112E+02  0.94607193442E+02  0.79787134098E+02 0.  0.
         66    2    3    3    0    0  0.32712649846E+02 -0.12592122125E+02  0.29117744384E+01  0.35230064304E+02  0.20000002302E+01 0.  0.
        -13    1    3    3    0    0 -0.32712649846E+02  0.12592122125E+02  0.47926540674E+02  0.59377129138E+02  0.10566000000E+00 0.  1.
         13    1    4    4    0    0  0.85493731295E+01 -0.27487344023E+01  0.10720221276E+01  0.90447618652E+01  0.10566000000E+00 0. -1.
        -13    1    4    4    0    0  0.77963624410E+01 -0.37414482612E+01  0.84855888008E+00  0.86898169492E+01  0.10566000000E+00 0.  1.
         14    1    4    4    0    0  0.16366914276E+02 -0.61019394621E+01  0.99119343067E+00  0.17495485490E+02  0.00000000000E+00 0. -1.
<mgrwt>
<rscale>  0 0.79787134E+02</rscale>
<asrwt>0</asrwt>
<pdfrwt beam="1">  1        2 0.33668367E-02 0.79787134E+02</pdfrwt>
<pdfrwt beam="2">  1       -1 0.11188116E-01 0.79787134E+02</pdfrwt>
<totfact> 0.12738820E+05</totfact>
</mgrwt>
</event>
<event>
 8    1  0.2433467E-024  0.8033623E+02  0.7818608E-02  0.1328100E+00
         -1   -1    0    0    0  501 -0.00000000000E+00  0.00000000000E+00  0.19740370342E+02  0.19740370985E+02  0.50400000000E-02 0.  1.
          2   -1    0    0  501    0  0.00000000000E+00 -0.00000000000E+00 -0.81734919155E+02  0.81734919194E+02  0.25500000000E-02 0. -1.
         24    2    1    2    0    0  0.17763568394E-14  0.00000000000E+00 -0.61994548813E+02  0.10147529018E+03  0.80336233634E+02 0.  0.
         66    2    3    3    0    0  0.13213268230E+02 -0.46689914766E+01 -0.78532418314E+02  0.79798061796E+02  0.20000003325E+01 0.  0.
        -13    1    3    3    0    0 -0.13213268230E+02  0.46689914766E+01  0.16537869502E+02  0.21677228384E+02  0.10566000000E+00 0.  1.
         13    1    4    4    0    0  0.78972458225E+01 -0.26860090747E+01 -0.47578410141E+02  0.48304217330E+02  0.10566000000E+00 0. -1.
        -13    1    4    4    0    0  0.60418609926E+00  0.91076562584E-01 -0.23605047917E+01  0.24405906437E+01  0.10566000000E+00 0.  1.
        -14    1    4    4    0    0  0.47118363078E+01 -0.20740589645E+01 -0.28593503382E+02  0.29053253822E+02  0.00000000000E+00 0.  1.
<mgrwt>
<rscale>  0 0.80336234E+02</rscale>
<asrwt>0</asrwt>
<pdfrwt beam="1">  1        2 0.12574603E-01 0.80336234E+02</pdfrwt>
<pdfrwt beam="2">  1       -1 0.30369802E-02 0.80336234E+02</pdfrwt>
<totfact> 0.16599616E+05</totfact>
</mgrwt>
</event>
<event>
 8    1  0.2433467E-024  0.7616714E+02  0.7818608E-02  0.1340294E+00
          2   -1    0    0  501    0  0.00000000000E+00  0.00000000000E+00  0.82719129195E+03  0.82719129195E+03  0.25500000000E-02 0. -1.
         -1   -1    0    0    0  501 -0.00000000000E+00 -0.00000000000E+00 -0.17533492844E+01  0.17533565282E+01  0.50400000000E-02 0.  1.
         24    2    1    2    0    0  0.00000000000E+00  0.17763568394E-14  0.82543794266E+03  0.82894464848E+03  0.76167138945E+02 0.  0.
         66    2    3    3    0    0  0.80928965182E+01  0.15523723087E+02  0.78076459469E+03  0.78096340073E+03  0.20000011245E+01 0.  0.
        -13    1    3    3    0    0 -0.80928965182E+01 -0.15523723087E+02  0.44673347972E+02  0.47981247749E+02  0.10566000000E+00 0.  1.
         13    1    4    4    0    0  0.15079585601E+01  0.25482143755E+01  0.12224389269E+03  0.12227979310E+03  0.10566000000E+00 0. -1.
        -13    1    4    4    0    0  0.25969420971E+01  0.35810326837E+01  0.18454919946E+03  0.18460223750E+03  0.10566000000E+00 0.  1.
         14    1    4    4    0    0  0.39879958610E+01  0.93944760274E+01  0.47397150254E+03  0.47408137014E+03  0.00000000000E+00 0. -1.
<mgrwt>
<rscale>  0 0.76167139E+02</rscale>
<asrwt>0</asrwt>
<pdfrwt beam="1">  1        2 0.12725981E+00 0.76167139E+02</pdfrwt>
<pdfrwt beam="2">  1       -1 0.26974744E-03 0.76167139E+02</pdfrwt>
<totfact> 0.39242080E+05</totfact>
</mgrwt>
</event>
<event>
 8    1  0.2433467E-024  0.7835004E+02  0.7818608E-02  0.1333800E+00
         -1   -1    0    0    0  501 -0.00000000000E+00  0.00000000000E+00  0.20985408210E+01  0.20985468732E+01  0.50400000000E-02 0.  1.
          2   -1    0    0  501    0  0.00000000000E+00 -0.00000000000E+00 -0.73130810722E+03  0.73130810722E+03  0.25500000000E-02 0. -1.
         24    2    1    2    0    0  0.17763568394E-14  0.35527136788E-14 -0.72920956640E+03  0.73340665409E+03  0.78350038588E+02 0.  0.
         66    2    3    3    0    0 -0.14058939771E+02  0.30643466417E+02 -0.55111644367E+03  0.55215035117E+03  0.19999995706E+01 0.  0.
        -13    1    3    3    0    0  0.14058939771E+02 -0.30643466417E+02 -0.17809312273E+03  0.18125630292E+03  0.10566000000E+00 0.  1.
         13    1    4    4    0    0 -0.14906401374E+01  0.28789171780E+01 -0.47955468557E+02  0.48065042398E+02  0.10566000000E+00 0. -1.
        -13    1    4    4    0    0 -0.23002763557E+01  0.49151422694E+01 -0.99149046978E+02  0.99297505384E+02  0.10566000000E+00 0.  1.
        -14    1    4    4    0    0 -0.10268023278E+02  0.22849406970E+02 -0.40401192813E+03  0.40478780339E+03  0.00000000000E+00 0.  1.
<mgrwt>
<rscale>  0 0.78350039E+02</rscale>
<asrwt>0</asrwt>
<pdfrwt beam="1">  1        2 0.11250874E+00 0.78350039E+02</pdfrwt>
<pdfrwt beam="2">  1       -1 0.32285348E-03 0.78350039E+02</pdfrwt>
<totfact> 0.35653775E+05</totfact>
</mgrwt>
</event>
<event>
 8    1  0.2433467E-024  0.7874010E+02  0.7818608E-02  0.1332665E+00
         -1   -1    0    0    0  501 -0.00000000000E+00  0.00000000000E+00  0.34653890047E+02  0.34653890413E+02  0.50400000000E-02 0.  1.
          2   -1    0    0  501    0  0.00000000000E+00 -0.00000000000E+00 -0.44728051350E+02  0.44728051422E+02  0.25500000000E-02 0. -1.
         24    2    1    2    0    0 -0.35527136788E-14  0.35527136788E-14 -0.10074161303E+02  0.79381941835E+02  0.78740103909E+02 0.  0.
         66    2    3    3    0    0 -0.30797854091E+02  0.24382763194E+02 -0.27930050479E+01  0.39431305320E+02  0.20000011106E+01 0.  0.
        -13    1    3    3    0    0  0.30797854091E+02 -0.24382763194E+02 -0.72811562550E+01  0.39950636516E+02  0.10566000000E+00 0.  1.
         13    1    4    4    0    0 -0.54133280795E+00  0.30969218525E+00  0.31137845700E-01  0.63331197652E+00  0.10566000000E+00 0. -1.
        -13    1    4    4    0    0 -0.50327130020E+01  0.40627393171E+01 -0.10364410817E+01  0.65512918627E+01  0.10566000000E+00 0.  1.
         14    1    4    4    0    0 -0.25223808281E+02  0.20010331692E+02 -0.17877018118E+01  0.32246701480E+02  0.00000000000E+00 0. -1.
<mgrwt>
<rscale>  0 0.78740104E+02</rscale>
<asrwt>0</asrwt>
<pdfrwt beam="1">  1        2 0.68812387E-02 0.78740104E+02</pdfrwt>
<pdfrwt beam="2">  1       -1 0.53313677E-02 0.78740104E+02</pdfrwt>
<totfact> 0.15241128E+05</totfact>
</mgrwt>
</event>
<event>
 8    1  0.2433467E-024  0.8099608E+02  0.7818608E-02  0.1326248E+00
         -1   -1    0    0    0  501 -0.00000000000E+00  0.00000000000E+00  0.22531126919E+03  0.22531126924E+03  0.50400000000E-02 0.  1.
          2   -1    0    0  501    0  0.00000000000E+00 -0.00000000000E+00 -0.72792247087E+01  0.72792251554E+01  0.25500000000E-02 0. -1.
         24    2    1    2    0    0  0.71054273576E-14  0.88817841970E-15  0.21803204448E+03  0.23259049440E+03  0.80996084259E+02 0.  0.
         66    2    3    3    0    0  0.39056847750E+02  0.64659862472E+01  0.84912813018E+02  0.93709295948E+02  0.19999995535E+01 0.  0.
        -13    1    3    3    0    0 -0.39056847750E+02 -0.64659862472E+01  0.13311923146E+03  0.13888119845E+03  0.10566000000E+00 0.  1.
         13    1    4    4    0    0  0.29633251526E+02  0.51491412212E+01  0.65023411198E+02  0.71642853232E+02  0.10566000000E+00 0. -1.
        -13    1    4    4    0    0  0.67824118304E+01  0.55678643201E+00  0.14405569383E+02  0.15932442206E+02  0.10566000000E+00 0.  1.
         14    1    4    4    0    0  0.26411843938E+01  0.76005859400E+00  0.54838324365E+01  0.61340005103E+01  0.00000000000E+00 0. -1.
<mgrwt>
<rscale>  0 0.80996084E+02</rscale>
<asrwt>0</asrwt>
<pdfrwt beam="1">  1        2 0.11198807E-02 0.80996084E+02</pdfrwt>
<pdfrwt beam="2">  1       -1 0.34663273E-01 0.80996084E+02</pdfrwt>
<totfact> 0.92954503E+04</totfact>
</mgrwt>
</event>
<event>
 8    1  0.2433467E-024  0.8653624E+02  0.7818608E-02  0.1311463E+00
          2   -1    0    0  501    0  0.00000000000E+00  0.00000000000E+00  0.26497743709E+04  0.26497743709E+04  0.25500000000E-02 0. -1.
         -1   -1    0    0    0  501 -0.00000000000E+00 -0.00000000000E+00 -0.70651544651E+00  0.70653342296E+00  0.50400000000E-02 0.  1.
         24    2    1    2    0    0  0.17763568394E-14 -0.88817841970E-15  0.26490678554E+04  0.26504809043E+04  0.86536243217E+02 0.  0.
         66    2    3    3    0    0  0.86254337204E+01 -0.62756015874E+01  0.26088445566E+04  0.26088671300E+04  0.19999999590E+01 0.  0.
        -13    1    3    3    0    0 -0.86254337204E+01  0.62756015874E+01  0.40223298843E+02  0.41613774354E+02  0.10566000000E+00 0.  1.
         13    1    4    4    0    0  0.47733156800E+01 -0.31312814046E+01  0.13483463177E+04  0.13483584068E+04  0.10566000000E+00 0. -1.
        -13    1    4    4    0    0  0.21462671896E+00 -0.18267796483E-01  0.24402396626E+02  0.24403576039E+02  0.10566000000E+00 0. -1.
        -14    1    4    4    0    0  0.36374913215E+01 -0.31260523864E+01  0.12360958423E+04  0.12361051472E+04  0.00000000000E+00 0.  1.
<mgrwt>
<rscale>  0 0.86536243E+02</rscale>
<asrwt>0</asrwt>
<pdfrwt beam="1">  1        2 0.40766172E+00 0.86536243E+02</pdfrwt>
<pdfrwt beam="2">  1       -1 0.10869497E-03 0.86536243E+02</pdfrwt>
<totfact> 0.15404780E+05</totfact>
</mgrwt>
</event>
<event>
 8    1  0.2649386E-024  0.7663885E+02  0.7818608E-02  0.1338870E+00
         -1   -1    0    0    0  501 -0.00000000000E+00  0.00000000000E+00  0.16417294991E+01  0.16417372353E+01  0.50400000000E-02 0.  1.
          2   -1    0    0  501    0  0.00000000000E+00 -0.00000000000E+00 -0.89440727842E+03  0.89440727842E+03  0.25500000000E-02 0. -1.
         24    2    1    2    0    0 -0.17763568394E-14  0.00000000000E+00 -0.89276554892E+03  0.89604901566E+03  0.76638848656E+02 0.  0.
         66    2    3    3    0    0  0.12724899778E+02  0.11997380460E+02 -0.84498365278E+03  0.84516698567E+03  0.20000000375E+01 0.  0.
        -13    1    3    3    0    0 -0.12724899778E+02 -0.11997380460E+02 -0.47781896141E+02  0.50882029982E+02  0.10566000000E+00 0.  1.
         13    1    4    4    0    0  0.38598635731E+01  0.32008898342E+01 -0.24838984266E+03  0.24844047445E+03  0.10566000000E+00 0. -1.
        -13    1    4    4    0    0  0.49825094009E+01  0.48334352658E+01 -0.36717640378E+03  0.36724203211E+03  0.10566000000E+00 0.  1.
        -14    1    4    4    0    0  0.38825268038E+01  0.39630553601E+01 -0.22941740634E+03  0.22948447911E+03  0.00000000000E+00 0.  1.
<mgrwt>
<rscale>  0 0.76638849E+02</rscale>
<asrwt>0</asrwt>
<pdfrwt beam="1">  1        2 0.13760073E+00 0.76638849E+02</pdfrwt>
<pdfrwt beam="2">  1       -1 0.25257508E-03 0.76638849E+02</pdfrwt>
<totfact> 0.39030135E+05</totfact>
</mgrwt>
</event>
<event>
 8    1  0.2433467E-024  0.8037044E+02  0.7818608E-02  0.1328003E+00
         -1   -1    0    0    0  501 -0.00000000000E+00  0.00000000000E+00  0.51928497455E+02  0.51928497699E+02  0.50400000000E-02 0.  1.
          2   -1    0    0  501    0  0.00000000000E+00 -0.00000000000E+00 -0.31097607458E+02  0.31097607563E+02  0.25500000000E-02 0. -1.
         24    2    1    2    0    0  0.35527136788E-14 -0.35527136788E-14  0.20830889997E+02  0.83026105262E+02  0.80370443429E+02 0.  0.
         66    2    3    3    0    0 -0.29242524584E+02  0.27033784709E+02  0.50643454675E+01  0.40194506527E+02  0.20000000599E+01 0.  0.
        -13    1    3    3    0    0  0.29242524584E+02 -0.27033784709E+02  0.15766544529E+02  0.42831598735E+02  0.10566000000E+00 0.  1.
         13    1    4    4    0    0 -0.39385432586E+01  0.35629130660E+01  0.41793088624E+00  0.53284428098E+01  0.10566000000E+00 0. -1.
        -13    1    4    4    0    0 -0.91261981741E-01  0.20304806440E+00  0.42179035493E-01  0.25000074481E+00  0.10566000000E+00 0.  1.
         14    1    4    4    0    0 -0.25212719344E+02  0.23267823578E+02  0.46042355457E+01  0.34616062973E+02  0.00000000000E+00 0. -1.
<mgrwt>
<rscale>  0 0.80370443E+02</rscale>
<asrwt>0</asrwt>
<pdfrwt beam="1">  1        2 0.47842473E-02 0.80370443E+02</pdfrwt>
<pdfrwt beam="2">  1       -1 0.79889997E-02 0.80370443E+02</pdfrwt>
<totfact> 0.13377039E+05</totfact>
</mgrwt>
</event>
<event>
 8    1  0.2433467E-024  0.7775779E+02  0.7818608E-02  0.1335538E+00
         -1   -1    0    0    0  501 -0.00000000000E+00  0.00000000000E+00  0.24843110276E+02  0.24843110787E+02  0.50400000000E-02 0.  1.
          2   -1    0    0  501    0  0.00000000000E+00 -0.00000000000E+00 -0.60844573539E+02  0.60844573592E+02  0.25500000000E-02 0. -1.
         24    2    1    2    0    0  0.00000000000E+00  0.00000000000E+00 -0.36001463263E+02  0.85687684379E+02  0.77757789945E+02 0.  0.
         66    2    3    3    0    0 -0.21584122559E+02 -0.17595907916E+02 -0.47869471614E+02  0.55416392562E+02  0.19999824726E+01 0.  0.
        -13    1    3    3    0    0  0.21584122559E+02  0.17595907916E+02  0.11868008352E+02  0.30271291817E+02  0.10566000000E+00 0.  1.
         13    1    4    4    0    0 -0.13536342194E+02 -0.11574773430E+02 -0.29498008316E+02  0.34457968579E+02  0.10566000000E+00 0. -1.
        -13    1    4    4    0    0 -0.70264262528E+00 -0.27878980759E+00 -0.14253503047E+01  0.16168543355E+01  0.10566000000E+00 0.  1.
         14    1    4    4    0    0 -0.73451377397E+01 -0.57423446782E+01 -0.16946112994E+02  0.19341569647E+02  0.00000000000E+00 0. -1.
<mgrwt>
<rscale>  0 0.77757790E+02</rscale>
<asrwt>0</asrwt>
<pdfrwt beam="1">  1        2 0.93607036E-02 0.77757790E+02</pdfrwt>
<pdfrwt beam="2">  1       -1 0.38220170E-02 0.77757790E+02</pdfrwt>
<totfact> 0.16869311E+05</totfact>
</mgrwt>
</event>
<event>
 8    1  0.2433467E-024  0.8000857E+02  0.7818608E-02  0.1329027E+00
          2   -1    0    0  501    0  0.00000000000E+00  0.00000000000E+00  0.57274162425E+03  0.57274162425E+03  0.25500000000E-02 0. -1.
         -1   -1    0    0    0  501 -0.00000000000E+00 -0.00000000000E+00 -0.27941768580E+01  0.27941814035E+01  0.50400000000E-02 0.  1.
         24    2    1    2    0    0  0.00000000000E+00  0.11102230246E-15  0.56994744739E+03  0.57553580566E+03  0.80008567086E+02 0.  0.
         66    2    3    3    0    0 -0.16749378711E+02  0.98014044350E+00  0.54618801361E+03  0.54644931016E+03  0.20000011110E+01 0.  0.
        -13    1    3    3    0    0  0.16749378711E+02 -0.98014044350E+00  0.23759433779E+02  0.29086495492E+02  0.10566000000E+00 0.  1.
         13    1    4    4    0    0 -0.79834333383E+01  0.10253611371E+01  0.25515038615E+03  0.25527733407E+03  0.10566000000E+00 0. -1.
        -13    1    4    4    0    0 -0.10045714411E+01  0.22026147887E+00  0.25859469241E+02  0.25880127364E+02  0.10566000000E+00 0. -1.
         14    1    4    4    0    0 -0.77613739320E+01 -0.26548217243E+00  0.26517815822E+03  0.26529184873E+03  0.00000000000E+00 0. -1.
<mgrwt>
<rscale>  0 0.80008567E+02</rscale>
<asrwt>0</asrwt>
<pdfrwt beam="1">  1        2 0.88114199E-01 0.80008567E+02</pdfrwt>
<pdfrwt beam="2">  1       -1 0.42987321E-03 0.80008567E+02</pdfrwt>
<totfact> 0.31731995E+05</totfact>
</mgrwt>
</event>
<event>
 8    1  0.2433467E-024  0.8084007E+02  0.7818608E-02  0.1326684E+00
         -1   -1    0    0    0  501 -0.00000000000E+00  0.00000000000E+00  0.21850651767E+03  0.21850651773E+03  0.50400000000E-02 0.  1.
          2   -1    0    0  501    0  0.00000000000E+00 -0.00000000000E+00 -0.74770280804E+01  0.74770285152E+01  0.25500000000E-02 0. -1.
         24    2    1    2    0    0 -0.71054273576E-14  0.62450045135E-16  0.21102948959E+03  0.22598354625E+03  0.80840074816E+02 0.  0.
         66    2    3    3    0    0  0.36788381687E+02 -0.50828387913E-01  0.58937438051E+02  0.69505461785E+02  0.20000007943E+01 0.  0.
        -13    1    3    3    0    0 -0.36788381687E+02  0.50828387913E-01  0.15209205154E+03  0.15647808446E+03  0.10566000000E+00 0.  1.
         13    1    4    4    0    0  0.21009650335E+02 -0.50781687822E-01  0.32538157552E+02  0.38731780838E+02  0.10566000000E+00 0. -1.
        -13    1    4    4    0    0  0.26682538864E+01 -0.31240468654E+00  0.40590346920E+01  0.48686858758E+01  0.10566000000E+00 0. -1.
        -14    1    4    4    0    0  0.13110477466E+02  0.31235798645E+00  0.22340245807E+02  0.25904995071E+02  0.00000000000E+00 0.  1.
<mgrwt>
<rscale>  0 0.80840075E+02</rscale>
<asrwt>0</asrwt>
<pdfrwt beam="1">  1        2 0.11503122E-02 0.80840075E+02</pdfrwt>
<pdfrwt beam="2">  1       -1 0.33616384E-01 0.80840075E+02</pdfrwt>
<totfact> 0.94347826E+04</totfact>
</mgrwt>
</event>
<event>
 8    1  0.2433467E-024  0.8418108E+02  0.7818608E-02  0.1317588E+00
         -1   -1    0    0    0  501 -0.00000000000E+00  0.00000000000E+00  0.25562106761E+01  0.25562156447E+01  0.50400000000E-02 0.  1.
          2   -1    0    0  501    0  0.00000000000E+00 -0.00000000000E+00 -0.69306174695E+03  0.69306174695E+03  0.25500000000E-02 0. -1.
         24    2    1    2    0    0  0.00000000000E+00 -0.35527136788E-14 -0.69050553627E+03  0.69561796259E+03  0.84181080213E+02 0.  0.
         66    2    3    3    0    0  0.89953539996E+00  0.25177653297E+02 -0.62382340043E+03  0.62433513301E+03  0.19999991384E+01 0.  0.
        -13    1    3    3    0    0 -0.89953539996E+00 -0.25177653297E+02 -0.66682135836E+02  0.71282829581E+02  0.10566000000E+00 0.  1.
         13    1    4    4    0    0  0.12002805560E+00  0.17789079864E+01 -0.54967296313E+02  0.54996306679E+02  0.10566000000E+00 0. -1.
        -13    1    4    4    0    0  0.63351870466E-01  0.14645701027E+01 -0.42537553818E+02  0.42562937256E+02  0.10566000000E+00 0.  1.
         14    1    4    4    0    0  0.71615547389E+00  0.21934175208E+02 -0.52631855030E+03  0.52677588908E+03  0.00000000000E+00 0. -1.
<mgrwt>
<rscale>  0 0.84181080E+02</rscale>
<asrwt>0</asrwt>
<pdfrwt beam="1">  1        2 0.10662473E+00 0.84181080E+02</pdfrwt>
<pdfrwt beam="2">  1       -1 0.39326412E-03 0.84181080E+02</pdfrwt>
<totfact> 0.29225282E+05</totfact>
</mgrwt>
</event>
<event>
 8    1  0.2433467E-024  0.7926033E+02  0.7818608E-02  0.1331164E+00
         -1   -1    0    0    0  501 -0.00000000000E+00  0.00000000000E+00  0.22904873302E+02  0.22904873857E+02  0.50400000000E-02 0.  1.
          2   -1    0    0  501    0  0.00000000000E+00 -0.00000000000E+00 -0.68568375316E+02  0.68568375363E+02  0.25500000000E-02 0. -1.
         24    2    1    2    0    0  0.00000000000E+00  0.00000000000E+00 -0.45663502014E+02  0.91473249220E+02  0.79260329969E+02 0.  0.
         66    2    3    3    0    0  0.86983033726E+01 -0.17429804689E+02 -0.62642754010E+02  0.65632104984E+02  0.20000003832E+01 0.  0.
        -13    1    3    3    0    0 -0.86983033726E+01  0.17429804689E+02  0.16979251997E+02  0.25841144237E+02  0.10566000000E+00 0.  1.
         13    1    4    4    0    0  0.57494890618E+01 -0.98559935260E+01 -0.36079251314E+02  0.37840729013E+02  0.10566000000E+00 0. -1.
        -13    1    4    4    0    0  0.14135089667E+01 -0.40342937114E+01 -0.15246854036E+02  0.15835127261E+02  0.10566000000E+00 0.  1.
         14    1    4    4    0    0  0.15353053441E+01 -0.35395174515E+01 -0.11316648660E+02  0.11956248709E+02  0.00000000000E+00 0. -1.
<mgrwt>
<rscale>  0 0.79260330E+02</rscale>
<asrwt>0</asrwt>
<pdfrwt beam="1">  1        2 0.10548981E-01 0.79260330E+02</pdfrwt>
<pdfrwt beam="2">  1       -1 0.35238267E-02 0.79260330E+02</pdfrwt>
<totfact> 0.16474633E+05</totfact>
</mgrwt>
</event>
<event>
 8    1  0.2433467E-024  0.8035045E+02  0.7818608E-02  0.1328060E+00
          2   -1    0    0  501    0  0.00000000000E+00  0.00000000000E+00  0.14182443172E+03  0.14182443174E+03  0.25500000000E-02 0. -1.
         -1   -1    0    0    0  501 -0.00000000000E+00 -0.00000000000E+00 -0.11380609471E+02  0.11380610587E+02  0.50400000000E-02 0.  1.
         24    2    1    2    0    0  0.00000000000E+00  0.00000000000E+00  0.13044382225E+03  0.15320504233E+03  0.80350446375E+02 0.  0.
         66    2    3    3    0    0  0.16082347211E+02  0.21098875312E+02  0.12272475491E+03  0.12557535547E+03  0.20000007447E+01 0.  0.
        -13    1    3    3    0    0 -0.16082347211E+02 -0.21098875312E+02  0.77190673370E+01  0.27629686857E+02  0.10566000000E+00 0.  1.
         13    1    4    4    0    0  0.10269530120E+02  0.13039802989E+02  0.75231446173E+02  0.77040777308E+02  0.10566000000E+00 0. -1.
        -13    1    4    4    0    0  0.38311647971E+01  0.44148146485E+01  0.28534645753E+02  0.29127402637E+02  0.10566000000E+00 0.  1.
        -14    1    4    4    0    0  0.19816522935E+01  0.36442576743E+01  0.18958662985E+02  0.19407175529E+02  0.00000000000E+00 0.  1.
<mgrwt>
<rscale>  0 0.80350446E+02</rscale>
<asrwt>0</asrwt>
<pdfrwt beam="1">  1        2 0.21819144E-01 0.80350446E+02</pdfrwt>
<pdfrwt beam="2">  1       -1 0.17508631E-02 0.80350446E+02</pdfrwt>
<totfact> 0.19447318E+05</totfact>
</mgrwt>
</event>
<event>
 8    1  0.2744046E-024  0.7843276E+02  0.7818608E-02  0.1333559E+00
         -1   -1    0    0    0  501 -0.00000000000E+00  0.00000000000E+00  0.16153570607E+01  0.16153649233E+01  0.50400000000E-02 0.  1.
          2   -1    0    0  501    0  0.00000000000E+00 -0.00000000000E+00 -0.95206238888E+03  0.95206238888E+03  0.25500000000E-02 0. -1.
         24    2    1    2    0    0  0.35527136788E-14  0.17763568394E-14 -0.95044703182E+03  0.95367775380E+03  0.78432759812E+02 0.  0.
         66    2    3    3    0    0 -0.28422108467E+02 -0.12990108233E+02 -0.76310590722E+03  0.76374811607E+03  0.20000001588E+01 0.  0.
        -13    1    3    3    0    0  0.28422108467E+02  0.12990108233E+02 -0.18734112460E+03  0.18992963774E+03  0.10566000000E+00 0.  1.
         13    1    4    4    0    0 -0.22162606195E+02 -0.99056020427E+01 -0.59093320944E+03  0.59143162855E+03  0.10566000000E+00 0. -1.
        -13    1    4    4    0    0 -0.53867137086E+01 -0.23247621748E+01 -0.14748772134E+03  0.14760440479E+03  0.10566000000E+00 0.  1.
        -14    1    4    4    0    0 -0.87278856430E+00 -0.75974401593E+00 -0.24684976436E+02  0.24712082722E+02  0.00000000000E+00 0.  1.
<mgrwt>
<rscale>  0 0.78432760E+02</rscale>
<asrwt>0</asrwt>
<pdfrwt beam="1">  1        2 0.14647069E+00 0.78432760E+02</pdfrwt>
<pdfrwt beam="2">  1       -1 0.24851784E-03 0.78432760E+02</pdfrwt>
<totfact> 0.36979382E+05</totfact>
</mgrwt>
</event>
<event>
 8    1  0.2433467E-024  0.8083729E+02  0.7818608E-02  0.1326692E+00
         -1   -1    0    0    0  501 -0.00000000000E+00  0.00000000000E+00  0.35952111441E+02  0.35952111794E+02  0.50400000000E-02 0.  1.
          2   -1    0    0  501    0  0.00000000000E+00 -0.00000000000E+00 -0.45440077500E+02  0.45440077571E+02  0.25500000000E-02 0. -1.
         24    2    1    2    0    0  0.00000000000E+00 -0.71054273576E-14 -0.94879660589E+01  0.81392189366E+02  0.80837287125E+02 0.  0.
         66    2    3    3    0    0  0.14772671963E+02 -0.32980002039E+02 -0.22919302104E+02  0.42839312386E+02  0.19999763555E+01 0.  0.
        -13    1    3    3    0    0 -0.14772671963E+02  0.32980002039E+02  0.13431336045E+02  0.38552876979E+02  0.10566000000E+00 0.  1.
         13    1    4    4    0    0  0.91925659402E+00 -0.20352592623E+01 -0.18652650461E+01  0.29116474165E+01  0.10566000000E+00 0.  1.
        -13    1    4    4    0    0  0.35575716995E+01 -0.91883879093E+01 -0.58998819921E+01  0.11484883993E+02  0.10566000000E+00 0.  1.
         14    1    4    4    0    0  0.10295843669E+02 -0.21756354867E+02 -0.15154155066E+02  0.28442780977E+02  0.00000000000E+00 0. -1.
<mgrwt>
<rscale>  0 0.80837287E+02</rscale>
<asrwt>0</asrwt>
<pdfrwt beam="1">  1        2 0.69907812E-02 0.80837287E+02</pdfrwt>
<pdfrwt beam="2">  1       -1 0.55310941E-02 0.80837287E+02</pdfrwt>
<totfact> 0.14225884E+05</totfact>
</mgrwt>
</event>
<event>
 8    1  0.2433467E-024  0.8464691E+02  0.7818608E-02  0.1316359E+00
          2   -1    0    0  501    0  0.00000000000E+00  0.00000000000E+00  0.17029703626E+03  0.17029703628E+03  0.25500000000E-02 0. -1.
         -1   -1    0    0    0  501 -0.00000000000E+00 -0.00000000000E+00 -0.10518530243E+02  0.10518531451E+02  0.50400000000E-02 0.  1.
         24    2    1    2    0    0 -0.17763568394E-14 -0.17763568394E-14  0.15977850602E+03  0.18081556773E+03  0.84646905133E+02 0.  0.
         66    2    3    3    0    0 -0.69645779500E+01 -0.13771468970E+02  0.16406281180E+03  0.16479916540E+03  0.19999988613E+01 0.  0.
        -13    1    3    3    0    0  0.69645779500E+01  0.13771468970E+02 -0.42843057846E+01  0.16016402333E+02  0.10566000000E+00 0.  1.
         13    1    4    4    0    0 -0.70188113884E+00 -0.16334527588E+01  0.24382857195E+02  0.24447815733E+02  0.10566000000E+00 0. -1.
        -13    1    4    4    0    0 -0.11813638962E+01 -0.30867169264E+01  0.30255977337E+02  0.30436142507E+02  0.10566000000E+00 0.  1.
        -14    1    4    4    0    0 -0.50813329150E+01 -0.90512992850E+01  0.10942397727E+03  0.10991520716E+03  0.00000000000E+00 0.  1.
<mgrwt>
<rscale>  0 0.84646905E+02</rscale>
<asrwt>0</asrwt>
<pdfrwt beam="1">  1        2 0.26199541E-01 0.84646905E+02</pdfrwt>
<pdfrwt beam="2">  1       -1 0.16182357E-02 0.84646905E+02</pdfrwt>
<totfact> 0.17974809E+05</totfact>
</mgrwt>
</event>
<event>
 8    1  0.2433467E-024  0.8412784E+02  0.7818608E-02  0.1317729E+00
         -1   -1    0    0    0  501 -0.00000000000E+00  0.00000000000E+00  0.16459892023E+02  0.16459892795E+02  0.50400000000E-02 0.  1.
          2   -1    0    0  501    0  0.00000000000E+00 -0.00000000000E+00 -0.10749603700E+03  0.10749603703E+03  0.25500000000E-02 0. -1.
         24    2    1    2    0    0 -0.35527136788E-14 -0.71054273576E-14 -0.91036144975E+02  0.12395592982E+03  0.84127836335E+02 0.  0.
         66    2    3    3    0    0  0.16762245462E+02  0.38194390553E+02 -0.37805256374E+02  0.56329581349E+02  0.19999956963E+01 0.  0.
        -13    1    3    3    0    0 -0.16762245462E+02 -0.38194390553E+02 -0.53230888600E+02  0.67626348474E+02  0.10566000000E+00 0.  1.
         13    1    4    4    0    0  0.89227544311E+00  0.14917160906E+01 -0.15150162563E+01  0.23082050719E+01  0.10566000000E+00 0. -1.
        -13    1    4    4    0    0  0.30065953887E+01  0.85508071659E+01 -0.83346120665E+01  0.12313928754E+02  0.10566000000E+00 0.  1.
         14    1    4    4    0    0  0.12863374630E+02  0.28151867297E+02 -0.27955628052E+02  0.41707447524E+02  0.00000000000E+00 0. -1.
<mgrwt>
<rscale>  0 0.84127836E+02</rscale>
<asrwt>0</asrwt>
<pdfrwt beam="1">  1        2 0.16537851E-01 0.84127836E+02</pdfrwt>
<pdfrwt beam="2">  1       -1 0.25322912E-02 0.84127836E+02</pdfrwt>
<totfact> 0.15809404E+05</totfact>
</mgrwt>
</event>
<event>
 8    1  0.2433467E-024  0.8062219E+02  0.7818608E-02  0.1327295E+00
          2   -1    0    0  501    0  0.00000000000E+00  0.00000000000E+00  0.27337871198E+01  0.27337883090E+01  0.25500000000E-02 0. -1.
         -1   -1    0    0    0  501 -0.00000000000E+00 -0.00000000000E+00 -0.59440765347E+03  0.59440765349E+03  0.50400000000E-02 0.  1.
         24    2    1    2    0    0  0.35527136788E-14 -0.35527136788E-14 -0.59167386635E+03  0.59714144180E+03  0.80622189214E+02 0.  0.
         66    2    3    3    0    0  0.28185029312E+02 -0.21809749969E+02 -0.43516095375E+03  0.43662239606E+03  0.20000002226E+01 0.  0.
        -13    1    3    3    0    0 -0.28185029312E+02  0.21809749969E+02 -0.15651291260E+03  0.16051904574E+03  0.10566000000E+00 0.  1.
         13    1    4    4    0    0  0.18231375365E+02 -0.13461430286E+02 -0.26785727152E+03  0.26881428947E+03  0.10566000000E+00 0. -1.
        -13    1    4    4    0    0  0.55757703163E+00 -0.41591539002E+00 -0.85582647364E+01  0.85871378871E+01  0.10566000000E+00 0. -1.
         14    1    4    4    0    0  0.93960769150E+01 -0.79324042931E+01 -0.15874541749E+03  0.15922096870E+03  0.00000000000E+00 0. -1.
<mgrwt>
<rscale>  0 0.80622189E+02</rscale>
<asrwt>0</asrwt>
<pdfrwt beam="1">  1        2 0.42058320E-03 0.80622189E+02</pdfrwt>
<pdfrwt beam="2">  1       -1 0.91447229E-01 0.80622189E+02</pdfrwt>
<totfact> 0.58243924E+04</totfact>
</mgrwt>
</event>
<event>
 8    1  0.2549137E-024  0.8217493E+02  0.7818608E-02  0.1322990E+00
         -1   -1    0    0    0  501 -0.00000000000E+00  0.00000000000E+00  0.13360801592E+01  0.13360896652E+01  0.50400000000E-02 0.  1.
          2   -1    0    0  501    0  0.00000000000E+00 -0.00000000000E+00 -0.12635274013E+04  0.12635274013E+04  0.25500000000E-02 0. -1.
         24    2    1    2    0    0  0.00000000000E+00  0.88817841970E-15 -0.12621913211E+04  0.12648634910E+04  0.82174933038E+02 0.  0.
         66    2    3    3    0    0  0.14827720813E+02 -0.41664362607E+01 -0.12173794604E+04  0.12174785300E+04  0.19999995309E+01 0.  0.
        -13    1    3    3    0    0 -0.14827720813E+02  0.41664362607E+01 -0.44811860772E+02  0.47384960963E+02  0.10566000000E+00 0.  1.
         13    1    4    4    0    0  0.79021073662E+01 -0.22467034010E+01 -0.67974427879E+03  0.67979392958E+03  0.10566000000E+00 0. -1.
        -13    1    4    4    0    0  0.66469703065E+01 -0.16039221356E+01 -0.51605956919E+03  0.51610487781E+03  0.10566000000E+00 0.  1.
        -14    1    4    4    0    0  0.27864313997E+00 -0.31581072407E+00 -0.21575612382E+02  0.21579722614E+02  0.00000000000E+00 0.  1.
<mgrwt>
<rscale>  0 0.82174933E+02</rscale>
<asrwt>0</asrwt>
<pdfrwt beam="1">  1        2 0.19438788E+00 0.82174933E+02</pdfrwt>
<pdfrwt beam="2">  1       -1 0.20555254E-03 0.82174933E+02</pdfrwt>
<totfact> 0.32448806E+05</totfact>
</mgrwt>
</event>
<event>
 8    1  0.2433467E-024  0.7856720E+02  0.7818608E-02  0.1333167E+00
          2   -1    0    0  501    0  0.00000000000E+00  0.00000000000E+00  0.83092219596E+03  0.83092219596E+03  0.25500000000E-02 0. -1.
         -1   -1    0    0    0  501 -0.00000000000E+00 -0.00000000000E+00 -0.18572115202E+01  0.18572183588E+01  0.50400000000E-02 0.  1.
         24    2    1    2    0    0  0.00000000000E+00 -0.17763568394E-14  0.82906498444E+03  0.83277941432E+03  0.78567197324E+02 0.  0.
         66    2    3    3    0    0 -0.30646615413E+02 -0.13586237013E+02  0.63135251339E+03  0.63224504509E+03  0.19999999018E+01 0.  0.
        -13    1    3    3    0    0  0.30646615413E+02  0.13586237013E+02  0.19771247105E+03  0.20053436923E+03  0.10566000000E+00 0.  1.
         13    1    4    4    0    0 -0.21737476445E+02 -0.93447510537E+01  0.44849284949E+03  0.44911656556E+03  0.10566000000E+00 0. -1.
        -13    1    4    4    0    0 -0.68073353861E+01 -0.36845047376E+01  0.14467034781E+03  0.14487731393E+03  0.10566000000E+00 0.  1.
         14    1    4    4    0    0 -0.21018035823E+01 -0.55698122141E+00  0.38189316091E+02  0.38251165601E+02  0.00000000000E+00 0. -1.
<mgrwt>
<rscale>  0 0.78567197E+02</rscale>
<asrwt>0</asrwt>
<pdfrwt beam="1">  1        2 0.12783398E+00 0.78567197E+02</pdfrwt>
<pdfrwt beam="2">  1       -1 0.28572584E-03 0.78567197E+02</pdfrwt>
<totfact> 0.36239234E+05</totfact>
</mgrwt>
</event>
<event>
 8    1  0.2433467E-024  0.7914037E+02  0.7818608E-02  0.1331509E+00
          2   -1    0    0  501    0  0.00000000000E+00  0.00000000000E+00  0.87512402625E+01  0.87512406340E+01  0.25500000000E-02 0. -1.
         -1   -1    0    0    0  501 -0.00000000000E+00 -0.00000000000E+00 -0.17892314358E+03  0.17892314365E+03  0.50400000000E-02 0.  1.
         24    2    1    2    0    0  0.00000000000E+00 -0.35527136788E-14 -0.17017190332E+03  0.18767438429E+03  0.79140367943E+02 0.  0.
         66    2    3    3    0    0  0.24223101917E+02 -0.30346008725E+02 -0.67369483889E+02  0.77783586143E+02  0.20000004530E+01 0.  0.
        -13    1    3    3    0    0 -0.24223101917E+02  0.30346008725E+02 -0.10280241943E+03  0.10989079815E+03  0.10566000000E+00 0.  1.
         13    1    4    4    0    0  0.15624984282E+02 -0.20894584116E+02 -0.45062004651E+02  0.52070329425E+02  0.10566000000E+00 0. -1.
        -13    1    4    4    0    0  0.13440097981E+01 -0.15453368265E+01 -0.32540545153E+01  0.38463571166E+01  0.10566000000E+00 0.  1.
         14    1    4    4    0    0  0.72541078366E+01 -0.79060877816E+01 -0.19053424723E+02  0.21866899602E+02  0.00000000000E+00 0. -1.
<mgrwt>
<rscale>  0 0.79140368E+02</rscale>
<asrwt>0</asrwt>
<pdfrwt beam="1">  1        2 0.13463448E-02 0.79140368E+02</pdfrwt>
<pdfrwt beam="2">  1       -1 0.27526635E-01 0.79140368E+02</pdfrwt>
<totfact> 0.10575931E+05</totfact>
</mgrwt>
</event>
<event>
 8    1  0.2433467E-024  0.7823983E+02  0.7818608E-02  0.1334122E+00
         -1   -1    0    0    0  501 -0.00000000000E+00  0.00000000000E+00  0.36619476480E+01  0.36619511163E+01  0.50400000000E-02 0.  1.
          2   -1    0    0  501    0  0.00000000000E+00 -0.00000000000E+00 -0.41791069172E+03  0.41791069173E+03  0.25500000000E-02 0. -1.
         24    2    1    2    0    0  0.44408920985E-15  0.00000000000E+00 -0.41424874407E+03  0.42157264285E+03  0.78239831476E+02 0.  0.
         66    2    3    3    0    0 -0.21767875090E+01  0.34421877975E+02 -0.30643150502E+03  0.30837294193E+03  0.19999889797E+01 0.  0.
        -13    1    3    3    0    0  0.21767875090E+01 -0.34421877975E+02 -0.10781723905E+03  0.11319970092E+03  0.10566000000E+00 0.  1.
         13    1    4    4    0    0 -0.15082668450E+01  0.11026142876E+02 -0.99013005759E+02  0.99636525276E+02  0.10566000000E+00 0. -1.
        -13    1    4    4    0    0 -0.53017878443E-01  0.13021113808E+01 -0.13027694694E+02  0.13093139350E+02  0.10566000000E+00 0. -1.
        -14    1    4    4    0    0 -0.61550278547E+00  0.22093623718E+02 -0.19439080457E+03  0.19564327730E+03  0.00000000000E+00 0.  1.
<mgrwt>
<rscale>  0 0.78239831E+02</rscale>
<asrwt>0</asrwt>
<pdfrwt beam="1">  1        2 0.64293915E-01 0.78239831E+02</pdfrwt>
<pdfrwt beam="2">  1       -1 0.56337716E-03 0.78239831E+02</pdfrwt>
<totfact> 0.30400490E+05</totfact>
</mgrwt>
</event>
<event>
 8    1  0.2433467E-024  0.7980600E+02  0.7818608E-02  0.1329603E+00
         -1   -1    0    0    0  501 -0.00000000000E+00  0.00000000000E+00  0.16781629721E+02  0.16781630478E+02  0.50400000000E-02 0.  1.
          2   -1    0    0  501    0  0.00000000000E+00 -0.00000000000E+00 -0.94880491463E+02  0.94880491498E+02  0.25500000000E-02 0. -1.
         24    2    1    2    0    0  0.00000000000E+00  0.00000000000E+00 -0.78098861743E+02  0.11166212198E+03  0.79805997761E+02 0.  0.
         66    2    3    3    0    0 -0.18582510788E+02  0.10914547829E+02 -0.86020295819E+02  0.88701343606E+02  0.20000008145E+01 0.  0.
        -13    1    3    3    0    0  0.18582510788E+02 -0.10914547829E+02  0.79214340760E+01  0.22960778370E+02  0.10566000000E+00 0.  1.
         13    1    4    4    0    0 -0.76906959699E+01  0.39980937296E+01 -0.33671560554E+02  0.34769479607E+02  0.10566000000E+00 0. -1.
        -13    1    4    4    0    0 -0.98581427552E+01  0.65987300966E+01 -0.48846830388E+02  0.50266790433E+02  0.10566000000E+00 0.  1.
        -14    1    4    4    0    0 -0.10336720627E+01  0.31772400288E+00 -0.35019048768E+01  0.36650735656E+01  0.00000000000E+00 0.  1.
<mgrwt>
<rscale>  0 0.79805998E+02</rscale>
<asrwt>0</asrwt>
<pdfrwt beam="1">  1        2 0.14596998E-01 0.79805998E+02</pdfrwt>
<pdfrwt beam="2">  1       -1 0.25817893E-02 0.79805998E+02</pdfrwt>
<totfact> 0.17583687E+05</totfact>
</mgrwt>
</event>
<event>
 8    1  0.2433467E-024  0.7981255E+02  0.7818608E-02  0.1329584E+00
          2   -1    0    0  501    0  0.00000000000E+00  0.00000000000E+00  0.19353935978E+04  0.19353935978E+04  0.25500000000E-02 0. -1.
         -1   -1    0    0    0  501 -0.00000000000E+00 -0.00000000000E+00 -0.82282798856E+00  0.82284342396E+00  0.50400000000E-02 0.  1.
         24    2    1    2    0    0 -0.35527136788E-14  0.00000000000E+00  0.19345707698E+04  0.19362164412E+04  0.79812554549E+02 0.  0.
         66    2    3    3    0    0  0.14391492331E+02 -0.87675078286E+01  0.18447728055E+04  0.18448508579E+04  0.19999998236E+01 0.  0.
        -13    1    3    3    0    0 -0.14391492331E+02  0.87675078286E+01  0.89797964347E+02  0.91365583290E+02  0.10566000000E+00 0.  1.
         13    1    4    4    0    0  0.31118471538E+01 -0.21638433112E+01  0.37163926436E+03  0.37165860651E+03  0.10566000000E+00 0. -1.
        -13    1    4    4    0    0  0.46323202992E+01 -0.34789070757E+01  0.68214875359E+03  0.68217336093E+03  0.10566000000E+00 0. -1.
         14    1    4    4    0    0  0.66473248781E+01 -0.31247574417E+01  0.79098478750E+03  0.79101889048E+03  0.00000000000E+00 0. -1.
<mgrwt>
<rscale>  0 0.79812555E+02</rscale>
<asrwt>0</asrwt>
<pdfrwt beam="1">  1        2 0.29775389E+00 0.79812555E+02</pdfrwt>
<pdfrwt beam="2">  1       -1 0.12658967E-03 0.79812555E+02</pdfrwt>
<totfact> 0.28757614E+05</totfact>
</mgrwt>
</event>
<event>
 8    1  0.2433467E-024  0.8063277E+02  0.7818608E-02  0.1327265E+00
         -1   -1    0    0    0  501 -0.00000000000E+00  0.00000000000E+00  0.21247166647E+01  0.21247226423E+01  0.50400000000E-02 0.  1.
          2   -1    0    0  501    0  0.00000000000E+00 -0.00000000000E+00 -0.76500016989E+03  0.76500016989E+03  0.25500000000E-02 0. -1.
         24    2    1    2    0    0  0.00000000000E+00  0.00000000000E+00 -0.76287545323E+03  0.76712489254E+03  0.80632770110E+02 0.  0.
         66    2    3    3    0    0 -0.11164921633E+02 -0.23600096767E+02 -0.67363660393E+03  0.67414530644E+03  0.20000006636E+01 0.  0.
        -13    1    3    3    0    0  0.11164921633E+02  0.23600096767E+02 -0.89238849295E+02  0.92979586093E+02  0.10566000000E+00 0.  1.
         13    1    4    4    0    0 -0.15882892996E+01 -0.39128018251E+01 -0.96245857008E+02  0.96338511698E+02  0.10566000000E+00 0. -1.
        -13    1    4    4    0    0 -0.36678557977E+01 -0.82244881718E+01 -0.24994704969E+03  0.25010924450E+03  0.10566000000E+00 0.  1.
         14    1    4    4    0    0 -0.59087765355E+01 -0.11462806770E+02 -0.32744369723E+03  0.32769755024E+03  0.00000000000E+00 0. -1.
<mgrwt>
<rscale>  0 0.80632770E+02</rscale>
<asrwt>0</asrwt>
<pdfrwt beam="1">  1        2 0.11769211E+00 0.80632770E+02</pdfrwt>
<pdfrwt beam="2">  1       -1 0.32688056E-03 0.80632770E+02</pdfrwt>
<totfact> 0.33394756E+05</totfact>
</mgrwt>
</event>
<event>
 8    1  0.2433467E-024  0.7929548E+02  0.7818608E-02  0.1331063E+00
         -1   -1    0    0    0  501 -0.00000000000E+00  0.00000000000E+00  0.66690961396E+02  0.66690961586E+02  0.50400000000E-02 0.  1.
          2   -1    0    0  501    0  0.00000000000E+00 -0.00000000000E+00 -0.23570556546E+02  0.23570556684E+02  0.25500000000E-02 0. -1.
         24    2    1    2    0    0  0.71054273576E-14  0.00000000000E+00  0.43120404850E+02  0.90261518270E+02  0.79295475067E+02 0.  0.
         66    2    3    3    0    0  0.28779139601E+02 -0.11483155812E+02 -0.65361238407E+01  0.31730468825E+02  0.19999983600E+01 0.  0.
        -13    1    3    3    0    0 -0.28779139601E+02  0.11483155812E+02  0.49656528690E+02  0.58531049445E+02  0.10566000000E+00 0.  1.
         13    1    4    4    0    0  0.19897674815E+02 -0.87251698461E+01 -0.44140108654E+01  0.22170717351E+02  0.10566000000E+00 0. -1.
        -13    1    4    4    0    0  0.30794467646E+01 -0.97564570123E+00 -0.44365263043E+00  0.32623409697E+01  0.10566000000E+00 0.  1.
        -14    1    4    4    0    0  0.58020180212E+01 -0.17823402646E+01 -0.16784603449E+01  0.62974105048E+01  0.00000000000E+00 0.  1.
<mgrwt>
<rscale>  0 0.79295475E+02</rscale>
<asrwt>0</asrwt>
<pdfrwt beam="1">  1        2 0.36262395E-02 0.79295475E+02</pdfrwt>
<pdfrwt beam="2">  1       -1 0.10260148E-01 0.79295475E+02</pdfrwt>
<totfact> 0.13156509E+05</totfact>
</mgrwt>
</event>
<event>
 8    1  0.2433467E-024  0.7987228E+02  0.7818608E-02  0.1329414E+00
          2   -1    0    0  501    0  0.00000000000E+00  0.00000000000E+00  0.16991602636E+02  0.16991602827E+02  0.25500000000E-02 0. -1.
         -1   -1    0    0    0  501 -0.00000000000E+00 -0.00000000000E+00 -0.93863741663E+02  0.93863741799E+02  0.50400000000E-02 0.  1.
         24    2    1    2    0    0  0.71054273576E-14  0.00000000000E+00 -0.76872139028E+02  0.11085534463E+03  0.79872283512E+02 0.  0.
         66    2    3    3    0    0  0.38463122231E+02 -0.87348827380E+01 -0.29997221259E+02  0.49593782223E+02  0.20000009227E+01 0.  0.
        -13    1    3    3    0    0 -0.38463122231E+02  0.87348827380E+01 -0.46874917768E+02  0.61261562403E+02  0.10566000000E+00 0.  1.
         13    1    4    4    0    0  0.19665871239E+02 -0.41526335944E+01 -0.15667545139E+02  0.25484779616E+02  0.10566000000E+00 0. -1.
        -13    1    4    4    0    0  0.83871086619E+01 -0.14145033808E+01 -0.61923194911E+01  0.10521425580E+02  0.10566000000E+00 0.  1.
         14    1    4    4    0    0  0.10410142330E+02 -0.31677457627E+01 -0.81373566293E+01  0.13587577027E+02  0.00000000000E+00 0. -1.
<mgrwt>
<rscale>  0 0.79872284E+02</rscale>
<asrwt>0</asrwt>
<pdfrwt beam="1">  1        2 0.26140928E-02 0.79872284E+02</pdfrwt>
<pdfrwt beam="2">  1       -1 0.14440575E-01 0.79872284E+02</pdfrwt>
<totfact> 0.12061207E+05</totfact>
</mgrwt>
</event>
<event>
 8    1  0.2433467E-024  0.7971721E+02  0.7818608E-02  0.1329856E+00
          2   -1    0    0  501    0  0.00000000000E+00  0.00000000000E+00  0.16043618643E+02  0.16043618846E+02  0.25500000000E-02 0. -1.
         -1   -1    0    0    0  501 -0.00000000000E+00 -0.00000000000E+00 -0.99024304374E+02  0.99024304502E+02  0.50400000000E-02 0.  1.
         24    2    1    2    0    0  0.00000000000E+00  0.44408920985E-15 -0.82980685730E+02  0.11506792335E+03  0.79717205039E+02 0.  0.
         66    2    3    3    0    0 -0.36780829336E+02  0.37783980230E+01 -0.20126131595E+02  0.42144594860E+02  0.20000011568E+01 0.  0.
        -13    1    3    3    0    0  0.36780829336E+02 -0.37783980230E+01 -0.62854554135E+02  0.72923328488E+02  0.10566000000E+00 0.  1.
         13    1    4    4    0    0 -0.21041843454E+01  0.72114328893E-01 -0.11235964745E+01  0.23888125311E+01  0.10566000000E+00 0. -1.
        -13    1    4    4    0    0 -0.24382871694E+02  0.21029394348E+01 -0.14060943556E+02  0.28225309281E+02  0.10566000000E+00 0.  1.
        -14    1    4    4    0    0 -0.10293773297E+02  0.16033442593E+01 -0.49415915653E+01  0.11530473048E+02  0.00000000000E+00 0.  1.
<mgrwt>
<rscale>  0 0.79717205E+02</rscale>
<asrwt>0</asrwt>
<pdfrwt beam="1">  1        2 0.24682491E-02 0.79717205E+02</pdfrwt>
<pdfrwt beam="2">  1       -1 0.15234508E-01 0.79717205E+02</pdfrwt>
<totfact> 0.11983156E+05</totfact>
</mgrwt>
</event>
<event>
 8    1  0.2433467E-024  0.7927698E+02  0.7818608E-02  0.1331116E+00
         -1   -1    0    0    0  501 -0.00000000000E+00  0.00000000000E+00  0.82781608337E+01  0.82781623679E+01  0.50400000000E-02 0.  1.
          2   -1    0    0  501    0  0.00000000000E+00 -0.00000000000E+00 -0.18980180292E+03  0.18980180293E+03  0.25500000000E-02 0. -1.
         24    2    1    2    0    0 -0.35527136788E-14 -0.35527136788E-14 -0.18152364208E+03  0.19807996530E+03  0.79276982907E+02 0.  0.
         66    2    3    3    0    0  0.26557892125E+02  0.13687661880E+02 -0.15580805688E+03  0.15865946038E+03  0.20000144332E+01 0.  0.
        -13    1    3    3    0    0 -0.26557892125E+02 -0.13687661880E+02 -0.25715585202E+02  0.39420504921E+02  0.10566000000E+00 0.  1.
         13    1    4    4    0    0  0.94633092749E+01  0.50458130054E+01 -0.58353637093E+02  0.59331042274E+02  0.10566000000E+00 0. -1.
        -13    1    4    4    0    0  0.86959778661E+01  0.42594672076E+01 -0.52713015277E+02  0.53595113915E+02  0.10566000000E+00 0.  1.
         14    1    4    4    0    0  0.83986049839E+01  0.43823816666E+01 -0.44741404511E+02  0.45733304193E+02  0.00000000000E+00 0. -1.
<mgrwt>
<rscale>  0 0.79276983E+02</rscale>
<asrwt>0</asrwt>
<pdfrwt beam="1">  1        2 0.29200274E-01 0.79276983E+02</pdfrwt>
<pdfrwt beam="2">  1       -1 0.12735635E-02 0.79276983E+02</pdfrwt>
<totfact> 0.22188769E+05</totfact>
</mgrwt>
</event>
<event>
 8    1  0.2433467E-024  0.7905471E+02  0.7818608E-02  0.1331756E+00
         -1   -1    0    0    0  501 -0.00000000000E+00  0.00000000000E+00  0.83730611789E+01  0.83730626957E+01  0.50400000000E-02 0.  1.
          2   -1    0    0  501    0  0.00000000000E+00 -0.00000000000E+00 -0.18659983092E+03  0.18659983094E+03  0.25500000000E-02 0. -1.
         24    2    1    2    0    0 -0.88817841970E-15  0.00000000000E+00 -0.17822676974E+03  0.19497289363E+03  0.79054713960E+02 0.  0.
         66    2    3    3    0    0 -0.71116149357E+01 -0.20151873693E+02 -0.17110699782E+03  0.17244789870E+03  0.19999956732E+01 0.  0.
        -13    1    3    3    0    0  0.71116149357E+01  0.20151873693E+02 -0.71197719151E+01  0.22524994927E+02  0.10566000000E+00 0.  1.
         13    1    4    4    0    0 -0.37448935243E+01 -0.11341587127E+02 -0.96806055910E+02  0.97540142767E+02  0.10566000000E+00 0. -1.
        -13    1    4    4    0    0 -0.22637883016E+01 -0.41725470139E+01 -0.37085703738E+02  0.37388440350E+02  0.10566000000E+00 0.  1.
        -14    1    4    4    0    0 -0.11029331098E+01 -0.46377395522E+01 -0.37215238176E+02  0.37519315587E+02  0.00000000000E+00 0.  1.
<mgrwt>
<rscale>  0 0.79054714E+02</rscale>
<asrwt>0</asrwt>
<pdfrwt beam="1">  1        2 0.28707663E-01 0.79054714E+02</pdfrwt>
<pdfrwt beam="2">  1       -1 0.12881635E-02 0.79054714E+02</pdfrwt>
<totfact> 0.22223882E+05</totfact>
</mgrwt>
</event>
<event>
 8    1  0.2433467E-024  0.7860472E+02  0.7818608E-02  0.1333058E+00
          2   -1    0    0  501    0  0.00000000000E+00  0.00000000000E+00  0.30672594673E+02  0.30672594779E+02  0.25500000000E-02 0. -1.
         -1   -1    0    0    0  501 -0.00000000000E+00 -0.00000000000E+00 -0.50360112097E+02  0.50360112349E+02  0.50400000000E-02 0.  1.
         24    2    1    2    0    0  0.00000000000E+00  0.00000000000E+00 -0.19687517424E+02  0.81032707128E+02  0.78604715394E+02 0.  0.
         66    2    3    3    0    0 -0.11214724138E+02  0.10907489617E+02  0.27289457571E+02  0.31519166445E+02  0.19999979161E+01 0.  0.
        -13    1    3    3    0    0  0.11214724138E+02 -0.10907489617E+02 -0.46976974995E+02  0.49513540683E+02  0.10566000000E+00 0.  1.
         13    1    4    4    0    0 -0.19689481492E+01  0.24311723951E+01  0.65334029611E+01  0.72445755097E+01  0.10566000000E+00 0. -1.
        -13    1    4    4    0    0 -0.68488264248E+01  0.58054250481E+01  0.14201080427E+02  0.16801524714E+02  0.10566000000E+00 0.  1.
         14    1    4    4    0    0 -0.23969495644E+01  0.26708921734E+01  0.65549741824E+01  0.74730662213E+01  0.00000000000E+00 0. -1.
<mgrwt>
<rscale>  0 0.78604715E+02</rscale>
<asrwt>0</asrwt>
<pdfrwt beam="1">  1        2 0.47188607E-02 0.78604715E+02</pdfrwt>
<pdfrwt beam="2">  1       -1 0.77477096E-02 0.78604715E+02</pdfrwt>
<totfact> 0.14195625E+05</totfact>
</mgrwt>
</event>
<event>
 8    1  0.2433467E-024  0.7959684E+02  0.7818608E-02  0.1330199E+00
         -1   -1    0    0    0  501 -0.00000000000E+00  0.00000000000E+00  0.16200107000E+02  0.16200107784E+02  0.50400000000E-02 0.  1.
          2   -1    0    0  501    0  0.00000000000E+00 -0.00000000000E+00 -0.97771839512E+02  0.97771839545E+02  0.25500000000E-02 0. -1.
         24    2    1    2    0    0  0.35527136788E-14  0.00000000000E+00 -0.81571732511E+02  0.11397194733E+03  0.79596841854E+02 0.  0.
         66    2    3    3    0    0 -0.30085314691E+02  0.10162259179E+02 -0.75102000938E+02  0.81564135581E+02  0.19999991361E+01 0.  0.
        -13    1    3    3    0    0  0.30085314691E+02 -0.10162259179E+02 -0.64697315738E+01  0.32407811748E+02  0.10566000000E+00 0.  1.
         13    1    4    4    0    0 -0.37934419064E+01  0.11533742146E+01 -0.10287868975E+02  0.11025964160E+02  0.10566000000E+00 0. -1.
        -13    1    4    4    0    0 -0.77496039080E+00  0.69371236271E-01 -0.21966958500E+01  0.23328121804E+01  0.10566000000E+00 0.  1.
         14    1    4    4    0    0 -0.25516912393E+02  0.89395137282E+01 -0.62617436113E+02  0.68205359240E+02  0.00000000000E+00 0. -1.
<mgrwt>
<rscale>  0 0.79596842E+02</rscale>
<asrwt>0</asrwt>
<pdfrwt beam="1">  1        2 0.15041821E-01 0.79596842E+02</pdfrwt>
<pdfrwt beam="2">  1       -1 0.24923243E-02 0.79596842E+02</pdfrwt>
<totfact> 0.17854966E+05</totfact>
</mgrwt>
</event>
<event>
 8    1  0.2433467E-024  0.7941786E+02  0.7818608E-02  0.1330712E+00
          2   -1    0    0  501    0  0.00000000000E+00  0.00000000000E+00  0.11649139190E+03  0.11649139193E+03  0.25500000000E-02 0. -1.
         -1   -1    0    0    0  501 -0.00000000000E+00 -0.00000000000E+00 -0.13535756587E+02  0.13535757525E+02  0.50400000000E-02 0.  1.
         24    2    1    2    0    0  0.00000000000E+00  0.00000000000E+00  0.10295563531E+03  0.13002714945E+03  0.79417861670E+02 0.  0.
         66    2    3    3    0    0  0.27192166739E+02 -0.28443434556E+02  0.43105771354E+02  0.58399918031E+02  0.20000001657E+01 0.  0.
        -13    1    3    3    0    0 -0.27192166739E+02  0.28443434556E+02  0.59849863959E+02  0.71627231422E+02  0.10566000000E+00 0.  1.
         13    1    4    4    0    0  0.11186616689E+02 -0.11821638109E+02  0.17830416031E+02  0.24141798202E+02  0.10566000000E+00 0. -1.
        -13    1    4    4    0    0  0.14080501944E+02 -0.15278243822E+02  0.22651371956E+02  0.30737291436E+02  0.10566000000E+00 0.  1.
        -14    1    4    4    0    0  0.19250481054E+01 -0.13435526253E+01  0.26239833667E+01  0.35208283931E+01  0.00000000000E+00 0.  1.
<mgrwt>
<rscale>  0 0.79417862E+02</rscale>
<asrwt>0</asrwt>
<pdfrwt beam="1">  1        2 0.17921752E-01 0.79417862E+02</pdfrwt>
<pdfrwt beam="2">  1       -1 0.20824242E-02 0.79417862E+02</pdfrwt>
<totfact> 0.18886693E+05</totfact>
</mgrwt>
</event>
<event>
 8    1  0.2433467E-024  0.8022758E+02  0.7818608E-02  0.1328407E+00
          2   -1    0    0  501    0  0.00000000000E+00  0.00000000000E+00  0.88842043751E+02  0.88842043787E+02  0.25500000000E-02 0. -1.
         -1   -1    0    0    0  501 -0.00000000000E+00 -0.00000000000E+00 -0.18112100138E+02  0.18112100839E+02  0.50400000000E-02 0.  1.
         24    2    1    2    0    0  0.00000000000E+00  0.17763568394E-14  0.70729943613E+02  0.10695414463E+03  0.80227577112E+02 0.  0.
         66    2    3    3    0    0  0.36526780374E+02  0.14721090243E+02  0.45380496550E+02  0.60119095648E+02  0.20000030076E+01 0.  0.
        -13    1    3    3    0    0 -0.36526780374E+02 -0.14721090243E+02  0.25349447063E+02  0.46835048978E+02  0.10566000000E+00 0.  1.
         13    1    4    4    0    0  0.10482207814E+02  0.48226535157E+01  0.13588897537E+02  0.17827057186E+02  0.10566000000E+00 0. -1.
        -13    1    4    4    0    0  0.11089759398E+02  0.38109536511E+01  0.12629719271E+02  0.17234474292E+02  0.10566000000E+00 0.  1.
        -14    1    4    4    0    0  0.14954813161E+02  0.60874830759E+01  0.19161879742E+02  0.25057564170E+02  0.00000000000E+00 0.  1.
<mgrwt>
<rscale>  0 0.80227577E+02</rscale>
<asrwt>0</asrwt>
<pdfrwt beam="1">  1        2 0.13668007E-01 0.80227577E+02</pdfrwt>
<pdfrwt beam="2">  1       -1 0.27864770E-02 0.80227577E+02</pdfrwt>
<totfact> 0.17030459E+05</totfact>
</mgrwt>
</event>
<event>
 8    1  0.2433467E-024  0.8000694E+02  0.7818608E-02  0.1329032E+00
          2   -1    0    0  501    0  0.00000000000E+00  0.00000000000E+00  0.52842644482E+03  0.52842644483E+03  0.25500000000E-02 0. -1.
         -1   -1    0    0    0  501 -0.00000000000E+00 -0.00000000000E+00 -0.30283804236E+01  0.30283846175E+01  0.50400000000E-02 0.  1.
         24    2    1    2    0    0 -0.17763568394E-14  0.00000000000E+00  0.52539806440E+03  0.53145482945E+03  0.80006935122E+02 0.  0.
         66    2    3    3    0    0 -0.15883486917E+02  0.22122037713E+02  0.45727714421E+03  0.45809175535E+03  0.19999987172E+01 0.  0.
        -13    1    3    3    0    0  0.15883486917E+02 -0.22122037713E+02  0.68120920191E+02  0.73363074097E+02  0.10566000000E+00 0.  1.
         13    1    4    4    0    0 -0.10993437390E+02  0.16061527216E+02  0.32205840470E+03  0.32264602202E+03  0.10566000000E+00 0. -1.
        -13    1    4    4    0    0 -0.34727175605E+01  0.47045551235E+01  0.96010467113E+02  0.96188427399E+02  0.10566000000E+00 0.  1.
        -14    1    4    4    0    0 -0.14173319665E+01  0.13559553737E+01  0.39208272390E+02  0.39257305928E+02  0.00000000000E+00 0.  1.
<mgrwt>
<rscale>  0 0.80006935E+02</rscale>
<asrwt>0</asrwt>
<pdfrwt beam="1">  1        2 0.81296289E-01 0.80006935E+02</pdfrwt>
<pdfrwt beam="2">  1       -1 0.46590550E-03 0.80006935E+02</pdfrwt>
<totfact> 0.30976637E+05</totfact>
</mgrwt>
</event>
<event>
 8    1  0.2433467E-024  0.7877335E+02  0.7818608E-02  0.1332569E+00
          2   -1    0    0  501    0  0.00000000000E+00  0.00000000000E+00  0.11650961096E+02  0.11650961375E+02  0.25500000000E-02 0. -1.
         -1   -1    0    0    0  501 -0.00000000000E+00 -0.00000000000E+00 -0.13314869848E+03  0.13314869857E+03  0.50400000000E-02 0.  1.
         24    2    1    2    0    0  0.00000000000E+00  0.00000000000E+00 -0.12149773738E+03  0.14479965995E+03  0.78773354202E+02 0.  0.
         66    2    3    3    0    0 -0.28727337387E+02 -0.14848863060E+02 -0.19539015050E+02  0.37835456257E+02  0.19999983993E+01 0.  0.
        -13    1    3    3    0    0  0.28727337387E+02  0.14848863060E+02 -0.10195872233E+03  0.10696420369E+03  0.10566000000E+00 0.  1.
         13    1    4    4    0    0 -0.18693074968E+02 -0.94528613618E+01 -0.13502984165E+02  0.24922467476E+02  0.10566000000E+00 0. -1.
        -13    1    4    4    0    0 -0.36423785799E+01 -0.23052269835E+01 -0.24386771391E+01  0.49537161191E+01  0.10566000000E+00 0.  1.
         14    1    4    4    0    0 -0.63918838390E+01 -0.30907747143E+01 -0.35973537452E+01  0.79592726624E+01  0.00000000000E+00 0. -1.
<mgrwt>
<rscale>  0 0.78773354E+02</rscale>
<asrwt>0</asrwt>
<pdfrwt beam="1">  1        2 0.17924557E-02 0.78773354E+02</pdfrwt>
<pdfrwt beam="2">  1       -1 0.20484414E-01 0.78773354E+02</pdfrwt>
<totfact> 0.11550831E+05</totfact>
</mgrwt>
</event>
<event>
 8    1  0.2433467E-024  0.8085615E+02  0.7818608E-02  0.1326639E+00
          2   -1    0    0  501    0  0.00000000000E+00  0.00000000000E+00  0.50687857409E+02  0.50687857473E+02  0.25500000000E-02 0. -1.
         -1   -1    0    0    0  501 -0.00000000000E+00 -0.00000000000E+00 -0.32244985793E+02  0.32244986187E+02  0.50400000000E-02 0.  1.
         24    2    1    2    0    0  0.00000000000E+00 -0.35527136788E-14  0.18442871616E+02  0.82932843660E+02  0.80856150317E+02 0.  0.
         66    2    3    3    0    0 -0.38621080959E+01 -0.17197866156E+02  0.46516583553E+02  0.49784284940E+02  0.20000005598E+01 0.  0.
        -13    1    3    3    0    0  0.38621080959E+01  0.17197866156E+02 -0.28073711937E+02  0.33148558721E+02  0.10566000000E+00 0.  1.
         13    1    4    4    0    0 -0.20182286348E+01 -0.11100424960E+02  0.27735009622E+02  0.29942187694E+02  0.10566000000E+00 0. -1.
        -13    1    4    4    0    0 -0.90102681486E+00 -0.21010354004E+01  0.63335639711E+01  0.67343444882E+01  0.10566000000E+00 0.  1.
         14    1    4    4    0    0 -0.94285264625E+00 -0.39964057963E+01  0.12448009959E+02  0.13107752758E+02  0.00000000000E+00 0. -1.
<mgrwt>
<rscale>  0 0.80856150E+02</rscale>
<asrwt>0</asrwt>
<pdfrwt beam="1">  1        2 0.77981318E-02 0.80856150E+02</pdfrwt>
<pdfrwt beam="2">  1       -1 0.49607672E-02 0.80856150E+02</pdfrwt>
<totfact> 0.14556775E+05</totfact>
</mgrwt>
</event>
<event>
 8    1  0.2608789E-024  0.7975990E+02  0.7818608E-02  0.1329734E+00
          2   -1    0    0  501    0  0.00000000000E+00  0.00000000000E+00  0.14278882230E+03  0.14278882232E+03  0.25500000000E-02 0. -1.
         -1   -1    0    0    0  501 -0.00000000000E+00 -0.00000000000E+00 -0.11138199622E+02  0.11138200763E+02  0.50400000000E-02 0.  1.
         24    2    1    2    0    0 -0.35527136788E-14  0.00000000000E+00  0.13165062268E+03  0.15392702308E+03  0.79759902108E+02 0.  0.
         66    2    3    3    0    0 -0.16791431518E+02 -0.18170284321E+02  0.12616704075E+03  0.12858551090E+03  0.20000095859E+01 0.  0.
        -13    1    3    3    0    0  0.16791431518E+02  0.18170284321E+02  0.54835819259E+01  0.25341512178E+02  0.10566000000E+00 0.  1.
         13    1    4    4    0    0 -0.11612669745E+02 -0.11857218901E+02  0.83889909360E+02  0.85515938837E+02  0.10566000000E+00 0.  1.
        -13    1    4    4    0    0 -0.46817156608E+01 -0.53661284417E+01  0.35344927935E+02  0.36055358696E+02  0.10566000000E+00 0. -1.
        -14    1    4    4    0    0 -0.49704611180E+00 -0.94693697783E+00  0.69322034546E+01  0.70142133709E+01  0.00000000000E+00 0.  1.
<mgrwt>
<rscale>  0 0.79759902E+02</rscale>
<asrwt>0</asrwt>
<pdfrwt beam="1">  1        2 0.21967510E-01 0.79759902E+02</pdfrwt>
<pdfrwt beam="2">  1       -1 0.17135694E-02 0.79759902E+02</pdfrwt>
<totfact> 0.19874860E+05</totfact>
</mgrwt>
</event>
<event>
 8    1  0.2433467E-024  0.7805363E+02  0.7818608E-02  0.1334667E+00
          2   -1    0    0  501    0  0.00000000000E+00  0.00000000000E+00  0.49386339330E+02  0.49386339396E+02  0.25500000000E-02 0. -1.
         -1   -1    0    0    0  501 -0.00000000000E+00 -0.00000000000E+00 -0.30840354673E+02  0.30840355085E+02  0.50400000000E-02 0.  1.
         24    2    1    2    0    0  0.00000000000E+00  0.00000000000E+00  0.18545984656E+02  0.80226694481E+02  0.78053628746E+02 0.  0.
         66    2    3    3    0    0 -0.63267149854E+01 -0.35067713433E+02  0.25573352217E+02  0.43906357109E+02  0.20000007527E+01 0.  0.
        -13    1    3    3    0    0  0.63267149854E+01  0.35067713433E+02 -0.70273675606E+01  0.36320337372E+02  0.10566000000E+00 0.  1.
         13    1    4    4    0    0 -0.31523966846E+01 -0.17320431838E+02  0.13503492676E+02  0.22187619124E+02  0.10566000000E+00 0. -1.
        -13    1    4    4    0    0 -0.22023986469E+01 -0.12779111835E+02  0.81517494439E+01  0.15317259615E+02  0.10566000000E+00 0.  1.
        -14    1    4    4    0    0 -0.97191965399E+00 -0.49681697599E+01  0.39181100968E+01  0.64014783690E+01  0.00000000000E+00 0.  1.
<mgrwt>
<rscale>  0 0.78053629E+02</rscale>
<asrwt>0</asrwt>
<pdfrwt beam="1">  1        2 0.75978983E-02 0.78053629E+02</pdfrwt>
<pdfrwt beam="2">  1       -1 0.47446700E-02 0.78053629E+02</pdfrwt>
<totfact> 0.15941765E+05</totfact>
</mgrwt>
</event>
<event>
 8    1  0.2433467E-024  0.8473369E+02  0.7818608E-02  0.1316130E+00
         -1   -1    0    0    0  501 -0.00000000000E+00  0.00000000000E+00  0.47657415676E+03  0.47657415679E+03  0.50400000000E-02 0.  1.
          2   -1    0    0  501    0  0.00000000000E+00 -0.00000000000E+00 -0.37663593474E+01  0.37663602106E+01  0.25500000000E-02 0. -1.
         24    2    1    2    0    0  0.00000000000E+00  0.44408920985E-15  0.47280779742E+03  0.48034051700E+03  0.84733694449E+02 0.  0.
         66    2    3    3    0    0  0.40480868373E+02  0.38063094358E+01  0.30355120964E+03  0.30626871467E+03  0.20000045264E+01 0.  0.
        -13    1    3    3    0    0 -0.40480868373E+02 -0.38063094358E+01  0.16925658778E+03  0.17407180233E+03  0.10566000000E+00 0.  1.
         13    1    4    4    0    0  0.63276078221E+01  0.10614816504E+01  0.47309905940E+02  0.47743101367E+02  0.10566000000E+00 0. -1.
        -13    1    4    4    0    0  0.67296191019E+01  0.74881476548E+00  0.54517019778E+02  0.54936009195E+02  0.10566000000E+00 0.  1.
        -14    1    4    4    0    0  0.27423641449E+02  0.19960130199E+01  0.20172428392E+03  0.20358960411E+03  0.00000000000E+00 0.  1.
<mgrwt>
<rscale>  0 0.84733694E+02</rscale>
<asrwt>0</asrwt>
<pdfrwt beam="1">  1        2 0.57943999E-03 0.84733694E+02</pdfrwt>
<pdfrwt beam="2">  1       -1 0.73319098E-01 0.84733694E+02</pdfrwt>
<totfact> 0.59288060E+04</totfact>
</mgrwt>
</event>
<event>
 8    1  0.2433467E-024  0.7870537E+02  0.7818608E-02  0.1332766E+00
          2   -1    0    0  501    0  0.00000000000E+00  0.00000000000E+00  0.69125951312E+03  0.69125951312E+03  0.25500000000E-02 0. -1.
         -1   -1    0    0    0  501 -0.00000000000E+00 -0.00000000000E+00 -0.22403045207E+01  0.22403101899E+01  0.50400000000E-02 0.  1.
         24    2    1    2    0    0 -0.17763568394E-14  0.00000000000E+00  0.68901920860E+03  0.69349982331E+03  0.78705369058E+02 0.  0.
         66    2    3    3    0    0  0.15034479370E+02  0.19331215384E+02  0.61587135702E+03  0.61636130626E+03  0.20000007100E+01 0.  0.
        -13    1    3    3    0    0 -0.15034479370E+02 -0.19331215384E+02  0.73147851577E+02  0.77138517049E+02  0.10566000000E+00 0.  1.
         13    1    4    4    0    0  0.63301885906E+01  0.74242735669E+01  0.23983277158E+03  0.24003116592E+03  0.10566000000E+00 0. -1.
        -13    1    4    4    0    0  0.77969867488E+00  0.15606407696E+01  0.37243951666E+02  0.37284938372E+02  0.10566000000E+00 0.  1.
        -14    1    4    4    0    0  0.79245921049E+01  0.10346301047E+02  0.33879463377E+03  0.33904520197E+03  0.00000000000E+00 0.  1.
<mgrwt>
<rscale>  0 0.78705369E+02</rscale>
<asrwt>0</asrwt>
<pdfrwt beam="1">  1        2 0.10634770E+00 0.78705369E+02</pdfrwt>
<pdfrwt beam="2">  1       -1 0.34466239E-03 0.78705369E+02</pdfrwt>
<totfact> 0.34798662E+05</totfact>
</mgrwt>
</event>
<event>
 8    1  0.2433467E-024  0.8020331E+02  0.7818608E-02  0.1328475E+00
          2   -1    0    0  501    0  0.00000000000E+00  0.00000000000E+00  0.41322674571E+02  0.41322674650E+02  0.25500000000E-02 0. -1.
         -1   -1    0    0    0  501 -0.00000000000E+00 -0.00000000000E+00 -0.38916711129E+02  0.38916711455E+02  0.50400000000E-02 0.  1.
         24    2    1    2    0    0  0.17763568394E-14  0.00000000000E+00  0.24059634424E+01  0.80239386105E+02  0.80203306805E+02 0.  0.
         66    2    3    3    0    0 -0.88161367977E+01 -0.39075876363E+02  0.24246292391E+01  0.40181179780E+02  0.19999999993E+01 0.  0.
        -13    1    3    3    0    0  0.88161367977E+01  0.39075876363E+02 -0.18665796701E-01  0.40058206325E+02  0.10566000000E+00 0.  1.
         13    1    4    4    0    0 -0.24264003248E+01 -0.11040117628E+02  0.60025106544E+00  0.11320030086E+02  0.10566000000E+00 0. -1.
        -13    1    4    4    0    0 -0.47609406274E+00 -0.46367144157E+01  0.51951271845E+00  0.46911452365E+01  0.10566000000E+00 0.  1.
        -14    1    4    4    0    0 -0.59136424101E+01 -0.23399044319E+02  0.13048654552E+01  0.24170004457E+02  0.00000000000E+00 0.  1.
<mgrwt>
<rscale>  0 0.80203307E+02</rscale>
<asrwt>0</asrwt>
<pdfrwt beam="1">  1        2 0.63573345E-02 0.80203307E+02</pdfrwt>
<pdfrwt beam="2">  1       -1 0.59871864E-02 0.80203307E+02</pdfrwt>
<totfact> 0.14250973E+05</totfact>
</mgrwt>
</event>
<event>
 8    1  0.2433467E-024  0.8049843E+02  0.7818608E-02  0.1327643E+00
          2   -1    0    0  501    0  0.00000000000E+00  0.00000000000E+00  0.26096960442E+03  0.26096960443E+03  0.25500000000E-02 0. -1.
         -1   -1    0    0    0  501 -0.00000000000E+00 -0.00000000000E+00 -0.62076156410E+01  0.62076176870E+01  0.50400000000E-02 0.  1.
         24    2    1    2    0    0 -0.17763568394E-14 -0.71054273576E-14  0.25476198878E+03  0.26717722212E+03  0.80498429133E+02 0.  0.
         66    2    3    3    0    0  0.10336710356E+02  0.20017910344E+02  0.23806003897E+03  0.23913206912E+03  0.20000024189E+01 0.  0.
        -13    1    3    3    0    0 -0.10336710356E+02 -0.20017910344E+02  0.16701949808E+02  0.28045153003E+02  0.10566000000E+00 0.  1.
         13    1    4    4    0    0  0.35383857872E+00  0.29700648186E+00  0.69002551287E+01  0.69165091966E+01  0.10566000000E+00 0.  1.
        -13    1    4    4    0    0  0.69437876273E+01  0.13606129735E+02  0.15587216562E+03  0.15661892009E+03  0.10566000000E+00 0. -1.
         14    1    4    4    0    0  0.30390841502E+01  0.61147741272E+01  0.75287618225E+02  0.75596639827E+02  0.00000000000E+00 0. -1.
<mgrwt>
<rscale>  0 0.80498429E+02</rscale>
<asrwt>0</asrwt>
<pdfrwt beam="1">  1        2 0.40149167E-01 0.80498429E+02</pdfrwt>
<pdfrwt beam="2">  1       -1 0.95501802E-03 0.80498429E+02</pdfrwt>
<totfact> 0.23847399E+05</totfact>
</mgrwt>
</event>
<event>
 8    1  0.2433467E-024  0.8166888E+02  0.7818608E-02  0.1324381E+00
          2   -1    0    0  501    0  0.00000000000E+00  0.00000000000E+00  0.17035535275E+03  0.17035535277E+03  0.25500000000E-02 0. -1.
         -1   -1    0    0    0  501 -0.00000000000E+00 -0.00000000000E+00 -0.97880775161E+01  0.97880788137E+01  0.50400000000E-02 0.  1.
         24    2    1    2    0    0  0.10658141036E-13  0.00000000000E+00  0.16056727524E+03  0.18014343159E+03  0.81668880649E+02 0.  0.
         66    2    3    3    0    0 -0.26828474418E+02 -0.24127637968E+01  0.14795442122E+03  0.15039979833E+03  0.20000277026E+01 0.  0.
        -13    1    3    3    0    0  0.26828474418E+02  0.24127637968E+01  0.12612854019E+02  0.29743633256E+02  0.10566000000E+00 0.  1.
         13    1    4    4    0    0 -0.11728413600E+02 -0.42623585041E+00  0.65879765161E+02  0.66917053016E+02  0.10566000000E+00 0. -1.
        -13    1    4    4    0    0 -0.75089285669E+01 -0.10846742535E+01  0.38014568220E+02  0.38764404902E+02  0.10566000000E+00 0.  1.
        -14    1    4    4    0    0 -0.75911322515E+01 -0.90185369291E+00  0.44060087838E+02  0.44718340413E+02  0.00000000000E+00 0.  1.
<mgrwt>
<rscale>  0 0.81668881E+02</rscale>
<asrwt>0</asrwt>
<pdfrwt beam="1">  1        2 0.26208514E-01 0.81668881E+02</pdfrwt>
<pdfrwt beam="2">  1       -1 0.15058583E-02 0.81668881E+02</pdfrwt>
<totfact> 0.19772088E+05</totfact>
</mgrwt>
</event>
<event>
 8    1  0.2433467E-024  0.8207288E+02  0.7818608E-02  0.1323270E+00
         -1   -1    0    0    0  501 -0.00000000000E+00  0.00000000000E+00  0.92005688644E+01  0.92005702448E+01  0.50400000000E-02 0.  1.
          2   -1    0    0  501    0  0.00000000000E+00 -0.00000000000E+00 -0.18303101292E+03  0.18303101294E+03  0.25500000000E-02 0. -1.
         24    2    1    2    0    0  0.00000000000E+00  0.88817841970E-15 -0.17383044406E+03  0.19223158318E+03  0.82072884026E+02 0.  0.
         66    2    3    3    0    0  0.40158103945E+02  0.54192075179E+01 -0.10176962685E+03  0.10955865132E+03  0.20000017675E+01 0.  0.
        -13    1    3    3    0    0 -0.40158103945E+02 -0.54192075179E+01 -0.72060817204E+02  0.82672931863E+02  0.10566000000E+00 0.  1.
         13    1    4    4    0    0  0.18740609973E+01  0.33547634860E+00 -0.40744387933E+01  0.44985402653E+01  0.10566000000E+00 0. -1.
        -13    1    4    4    0    0  0.32237863889E+02  0.47071414717E+01 -0.82994072990E+02  0.89159768755E+02  0.10566000000E+00 0.  1.
         14    1    4    4    0    0  0.60461790579E+01  0.37658969768E+00 -0.14701115067E+02  0.15900342299E+02  0.00000000000E+00 0. -1.
<mgrwt>
<rscale>  0 0.82072884E+02</rscale>
<asrwt>0</asrwt>
<pdfrwt beam="1">  1        2 0.28158615E-01 0.82072884E+02</pdfrwt>
<pdfrwt beam="2">  1       -1 0.14154724E-02 0.82072884E+02</pdfrwt>
<totfact> 0.19995060E+05</totfact>
</mgrwt>
</event>
<event>
 8    1  0.2433467E-024  0.8250262E+02  0.7818608E-02  0.1322096E+00
          2   -1    0    0  501    0  0.00000000000E+00  0.00000000000E+00  0.74304870112E+02  0.74304870155E+02  0.25500000000E-02 0. -1.
         -1   -1    0    0    0  501 -0.00000000000E+00 -0.00000000000E+00 -0.22901199850E+02  0.22901200405E+02  0.50400000000E-02 0.  1.
         24    2    1    2    0    0  0.00000000000E+00  0.00000000000E+00  0.51403670261E+02  0.97206070560E+02  0.82502623215E+02 0.  0.
         66    2    3    3    0    0  0.37212993612E+02 -0.17302875065E+02  0.30350954487E+02  0.51082059627E+02  0.19999995943E+01 0.  0.
        -13    1    3    3    0    0 -0.37212993612E+02  0.17302875065E+02  0.21052715774E+02  0.46124010933E+02  0.10566000000E+00 0.  1.
         13    1    4    4    0    0  0.12059684255E+02 -0.58899539460E+01  0.89485904702E+01  0.16131211276E+02  0.10566000000E+00 0.  1.
        -13    1    4    4    0    0  0.24424086299E+02 -0.11115214641E+02  0.20936411421E+02  0.34035694136E+02  0.10566000000E+00 0. -1.
         14    1    4    4    0    0  0.72922305774E+00 -0.29770647814E+00  0.46595259624E+00  0.91515421488E+00  0.00000000000E+00 0. -1.
<mgrwt>
<rscale>  0 0.82502623E+02</rscale>
<asrwt>0</asrwt>
<pdfrwt beam="1">  1        2 0.11431519E-01 0.82502623E+02</pdfrwt>
<pdfrwt beam="2">  1       -1 0.35232616E-02 0.82502623E+02</pdfrwt>
<totfact> 0.15075210E+05</totfact>
</mgrwt>
</event>
<event>
 8    1  0.2433467E-024  0.8063585E+02  0.7818608E-02  0.1327257E+00
         -1   -1    0    0    0  501 -0.00000000000E+00  0.00000000000E+00  0.26231167311E+01  0.26231215729E+01  0.50400000000E-02 0.  1.
          2   -1    0    0  501    0  0.00000000000E+00 -0.00000000000E+00 -0.61969540683E+03  0.61969540683E+03  0.25500000000E-02 0. -1.
         24    2    1    2    0    0 -0.35527136788E-14  0.00000000000E+00 -0.61707229009E+03  0.62231852840E+03  0.80635845578E+02 0.  0.
         66    2    3    3    0    0 -0.24520972465E+02  0.57551160992E+01 -0.55144867123E+03  0.55202720626E+03  0.19999991315E+01 0.  0.
        -13    1    3    3    0    0  0.24520972465E+02 -0.57551160992E+01 -0.65623618860E+02  0.70291322140E+02  0.10566000000E+00 0.  1.
         13    1    4    4    0    0 -0.10634243924E+02  0.33702103140E+01 -0.24709573128E+03  0.24734744195E+03  0.10566000000E+00 0. -1.
        -13    1    4    4    0    0 -0.62022910775E+01  0.12177123993E+01 -0.14334678515E+03  0.14348610809E+03  0.10566000000E+00 0.  1.
        -14    1    4    4    0    0 -0.76844374632E+01  0.11671933859E+01 -0.16100615481E+03  0.16119365622E+03  0.00000000000E+00 0.  1.
<mgrwt>
<rscale>  0 0.80635846E+02</rscale>
<asrwt>0</asrwt>
<pdfrwt beam="1">  1        2 0.95337638E-01 0.80635846E+02</pdfrwt>
<pdfrwt beam="2">  1       -1 0.40355729E-03 0.80635846E+02</pdfrwt>
<totfact> 0.31787415E+05</totfact>
</mgrwt>
</event>
<event>
 8    1  0.2433467E-024  0.7941596E+02  0.7818608E-02  0.1330717E+00
         -1   -1    0    0    0  501 -0.00000000000E+00  0.00000000000E+00  0.49190695979E+02  0.49190696237E+02  0.50400000000E-02 0.  1.
          2   -1    0    0  501    0  0.00000000000E+00 -0.00000000000E+00 -0.32053291679E+02  0.32053291780E+02  0.25500000000E-02 0. -1.
         24    2    1    2    0    0 -0.35527136788E-14  0.17763568394E-14  0.17137404300E+02  0.81243988017E+02  0.79415961637E+02 0.  0.
         66    2    3    3    0    0  0.27902493094E+02 -0.13189939530E+02 -0.16943885360E+02  0.35264980909E+02  0.20000004531E+01 0.  0.
        -13    1    3    3    0    0 -0.27902493094E+02  0.13189939530E+02  0.34081289661E+02  0.45979007108E+02  0.10566000000E+00 0.  1.
         13    1    4    4    0    0  0.19448927443E+02 -0.87799549513E+01 -0.10979178789E+02  0.23997956550E+02  0.10566000000E+00 0. -1.
        -13    1    4    4    0    0  0.32752228529E+01 -0.17897999870E+01 -0.27051677196E+01  0.46108095988E+01  0.10566000000E+00 0.  1.
        -14    1    4    4    0    0  0.51783427974E+01 -0.26201845913E+01 -0.32595388517E+01  0.66562147611E+01  0.00000000000E+00 0.  1.
<mgrwt>
<rscale>  0 0.79415962E+02</rscale>
<asrwt>0</asrwt>
<pdfrwt beam="1">  1        2 0.49312757E-02 0.79415962E+02</pdfrwt>
<pdfrwt beam="2">  1       -1 0.75677994E-02 0.79415962E+02</pdfrwt>
<totfact> 0.13914403E+05</totfact>
</mgrwt>
</event>
<event>
 8    1  0.2433467E-024  0.8008300E+02  0.7818608E-02  0.1328816E+00
         -1   -1    0    0    0  501 -0.00000000000E+00  0.00000000000E+00  0.13461309210E+01  0.13461403560E+01  0.50400000000E-02 0.  1.
          2   -1    0    0  501    0  0.00000000000E+00 -0.00000000000E+00 -0.11910550171E+04  0.11910550171E+04  0.25500000000E-02 0. -1.
         24    2    1    2    0    0  0.35527136788E-14  0.00000000000E+00 -0.11897088862E+04  0.11924011575E+04  0.80082997295E+02 0.  0.
         66    2    3    3    0    0 -0.23778902613E+02  0.24012115616E+01 -0.10731110139E+04  0.10733789872E+04  0.20000017961E+01 0.  0.
        -13    1    3    3    0    0  0.23778902613E+02 -0.24012115616E+01 -0.11659787229E+03  0.11902217026E+03  0.10566000000E+00 0.  1.
         13    1    4    4    0    0 -0.10381333569E+02  0.10936671233E+01 -0.43863062403E+03  0.43875483324E+03  0.10566000000E+00 0. -1.
        -13    1    4    4    0    0 -0.89521907474E+01  0.95844289006E+00 -0.39941560854E+03  0.39951708329E+03  0.10566000000E+00 0.  1.
        -14    1    4    4    0    0 -0.44453782961E+01  0.34910154825E+00 -0.23506478131E+03  0.23510707066E+03  0.00000000000E+00 0.  1.
<mgrwt>
<rscale>  0 0.80082997E+02</rscale>
<asrwt>0</asrwt>
<pdfrwt beam="1">  1        2 0.18323839E+00 0.80082997E+02</pdfrwt>
<pdfrwt beam="2">  1       -1 0.20709874E-03 0.80082997E+02</pdfrwt>
<totfact> 0.34971777E+05</totfact>
</mgrwt>
</event>
<event>
 8    1  0.2433467E-024  0.7875093E+02  0.7818608E-02  0.1332634E+00
         -1   -1    0    0    0  501 -0.00000000000E+00  0.00000000000E+00  0.42085749225E+01  0.42085779404E+01  0.50400000000E-02 0.  1.
          2   -1    0    0  501    0  0.00000000000E+00 -0.00000000000E+00 -0.36839705039E+03  0.36839705040E+03  0.25500000000E-02 0. -1.
         24    2    1    2    0    0  0.00000000000E+00  0.11102230246E-15 -0.36418847546E+03  0.37260562834E+03  0.78750927656E+02 0.  0.
         66    2    3    3    0    0 -0.17490644591E+02 -0.59839231812E+00 -0.34896651200E+03  0.34941080009E+03  0.20000001487E+01 0.  0.
        -13    1    3    3    0    0  0.17490644591E+02  0.59839231812E+00 -0.15221963462E+02  0.23194828244E+02  0.10566000000E+00 0.  1.
         13    1    4    4    0    0 -0.85177872879E+01 -0.75102741586E+00 -0.16611023750E+03  0.16633021045E+03  0.10566000000E+00 0. -1.
        -13    1    4    4    0    0 -0.10504656144E+01  0.35485843768E+00 -0.26993679767E+02  0.27016648828E+02  0.10566000000E+00 0.  1.
         14    1    4    4    0    0 -0.79223916887E+01 -0.20222333994E+00 -0.15586259473E+03  0.15606394081E+03  0.00000000000E+00 0. -1.
<mgrwt>
<rscale>  0 0.78750928E+02</rscale>
<asrwt>0</asrwt>
<pdfrwt beam="1">  1        2 0.56676444E-01 0.78750928E+02</pdfrwt>
<pdfrwt beam="2">  1       -1 0.64747359E-03 0.78750928E+02</pdfrwt>
<totfact> 0.28596939E+05</totfact>
</mgrwt>
</event>
<event>
 8    1  0.2433467E-024  0.7642536E+02  0.7818608E-02  0.1339513E+00
         -1   -1    0    0    0  501 -0.00000000000E+00  0.00000000000E+00  0.11317717475E+01  0.11317829695E+01  0.50400000000E-02 0.  1.
          2   -1    0    0  501    0  0.00000000000E+00 -0.00000000000E+00 -0.12901909879E+04  0.12901909879E+04  0.25500000000E-02 0. -1.
         24    2    1    2    0    0  0.00000000000E+00  0.00000000000E+00 -0.12890592162E+04  0.12913227709E+04  0.76425361138E+02 0.  0.
         66    2    3    3    0    0 -0.14016464468E+02 -0.38280481102E+01 -0.12416559856E+04  0.12417426069E+04  0.19999994054E+01 0.  0.
        -13    1    3    3    0    0  0.14016464468E+02  0.38280481102E+01 -0.47403230632E+02  0.49580164047E+02  0.10566000000E+00 0.  1.
         13    1    4    4    0    0 -0.86680349666E+01 -0.23896124357E+01 -0.84558168959E+03  0.84562949926E+03  0.10566000000E+00 0. -1.
        -13    1    4    4    0    0 -0.51074567184E+01 -0.13528354133E+01 -0.38087678028E+03  0.38091344056E+03  0.10566000000E+00 0. -1.
         14    1    4    4    0    0 -0.24097278320E+00 -0.85600261206E-01 -0.15197515696E+02  0.15199667056E+02  0.00000000000E+00 0. -1.
<mgrwt>
<rscale>  0 0.76425361E+02</rscale>
<asrwt>0</asrwt>
<pdfrwt beam="1">  1        2 0.19848974E+00 0.76425361E+02</pdfrwt>
<pdfrwt beam="2">  1       -1 0.17412063E-03 0.76425361E+02</pdfrwt>
<totfact> 0.39025167E+05</totfact>
</mgrwt>
</event>
<event>
 8    1  0.2433467E-024  0.8045371E+02  0.7818608E-02  0.1327769E+00
          2   -1    0    0  501    0  0.00000000000E+00  0.00000000000E+00  0.58414689471E+03  0.58414689472E+03  0.25500000000E-02 0. -1.
         -1   -1    0    0    0  501 -0.00000000000E+00 -0.00000000000E+00 -0.27701907734E+01  0.27701953582E+01  0.50400000000E-02 0.  1.
         24    2    1    2    0    0 -0.17763568394E-14  0.00000000000E+00  0.58137670394E+03  0.58691709008E+03  0.80453705574E+02 0.  0.
         66    2    3    3    0    0 -0.90689531078E+01 -0.10184801686E+02  0.56675492035E+03  0.56692249543E+03  0.19999959707E+01 0.  0.
        -13    1    3    3    0    0  0.90689531078E+01  0.10184801686E+02  0.14621783589E+02  0.19994594650E+02  0.10566000000E+00 0.  1.
         13    1    4    4    0    0 -0.24568252316E+01 -0.18826444457E+01  0.12787500856E+03  0.12791250649E+03  0.10566000000E+00 0. -1.
        -13    1    4    4    0    0 -0.12155857105E+01 -0.23754316632E+01  0.11056406121E+03  0.11059630699E+03  0.10566000000E+00 0.  1.
        -14    1    4    4    0    0 -0.53965421656E+01 -0.59267255767E+01  0.32831585058E+03  0.32841368194E+03  0.00000000000E+00 0.  1.
<mgrwt>
<rscale>  0 0.80453706E+02</rscale>
<asrwt>0</asrwt>
<pdfrwt beam="1">  1        2 0.89868709E-01 0.80453706E+02</pdfrwt>
<pdfrwt beam="2">  1       -1 0.42618376E-03 0.80453706E+02</pdfrwt>
<totfact> 0.31455078E+05</totfact>
</mgrwt>
</event>
<event>
 8    1  0.2433467E-024  0.7852246E+02  0.7818608E-02  0.1333298E+00
         -1   -1    0    0    0  501 -0.00000000000E+00  0.00000000000E+00  0.74189178302E+02  0.74189178473E+02  0.50400000000E-02 0.  1.
          2   -1    0    0  501    0  0.00000000000E+00 -0.00000000000E+00 -0.20777209051E+02  0.20777209208E+02  0.25500000000E-02 0. -1.
         24    2    1    2    0    0  0.00000000000E+00  0.00000000000E+00  0.53411969251E+02  0.94966387681E+02  0.78522457488E+02 0.  0.
         66    2    3    3    0    0 -0.16222040885E+02 -0.16957939475E+02 -0.11305406870E+02  0.26125438692E+02  0.20000001605E+01 0.  0.
        -13    1    3    3    0    0  0.16222040885E+02  0.16957939475E+02  0.64717376121E+02  0.68840948989E+02  0.10566000000E+00 0.  1.
         13    1    4    4    0    0 -0.13903708990E+02 -0.14745039568E+02 -0.98476658289E+01  0.22532576458E+02  0.10566000000E+00 0. -1.
        -13    1    4    4    0    0 -0.98352472222E+00 -0.14089390317E+01 -0.85484109693E+00  0.19220685240E+01  0.10566000000E+00 0.  1.
         14    1    4    4    0    0 -0.13348071731E+01 -0.80396087561E+00 -0.60289994428E+00  0.16707937101E+01  0.00000000000E+00 0. -1.
<mgrwt>
<rscale>  0 0.78522457E+02</rscale>
<asrwt>0</asrwt>
<pdfrwt beam="1">  1        2 0.31964938E-02 0.78522457E+02</pdfrwt>
<pdfrwt beam="2">  1       -1 0.11413720E-01 0.78522457E+02</pdfrwt>
<totfact> 0.13196584E+05</totfact>
</mgrwt>
</event>
<event>
 8    1  0.2433467E-024  0.7426669E+02  0.7818608E-02  0.1346157E+00
         -1   -1    0    0    0  501 -0.00000000000E+00  0.00000000000E+00  0.13500140666E+01  0.13500234745E+01  0.50400000000E-02 0.  1.
          2   -1    0    0  501    0  0.00000000000E+00 -0.00000000000E+00 -0.10213823315E+04  0.10213823315E+04  0.25500000000E-02 0. -1.
         24    2    1    2    0    0  0.35527136788E-14  0.17763568394E-14 -0.10200323175E+04  0.10227323550E+04  0.74266690445E+02 0.  0.
         66    2    3    3    0    0 -0.26260099932E+02 -0.80333374147E+01 -0.85404254184E+03  0.85448627293E+03  0.19999992855E+01 0.  0.
        -13    1    3    3    0    0  0.26260099932E+02  0.80333374147E+01 -0.16598977562E+03  0.16824608207E+03  0.10566000000E+00 0.  1.
         13    1    4    4    0    0 -0.66005340290E+01 -0.22504448593E+01 -0.22091488994E+03  0.22102495631E+03  0.10566000000E+00 0. -1.
        -13    1    4    4    0    0 -0.16700313393E+02 -0.54372640838E+01 -0.54944655902E+03  0.54972720207E+03  0.10566000000E+00 0.  1.
        -14    1    4    4    0    0 -0.29592525103E+01 -0.34562847163E+00 -0.83681092876E+02  0.83734114550E+02  0.00000000000E+00 0.  1.
<mgrwt>
<rscale>  0 0.74266690E+02</rscale>
<asrwt>0</asrwt>
<pdfrwt beam="1">  1        2 0.15713513E+00 0.74266690E+02</pdfrwt>
<pdfrwt beam="2">  1       -1 0.20769601E-03 0.74266690E+02</pdfrwt>
<totfact> 0.42733298E+05</totfact>
</mgrwt>
</event>
<event>
 8    1  0.2433467E-024  0.8527040E+02  0.7818608E-02  0.1314727E+00
         -1   -1    0    0    0  501 -0.00000000000E+00  0.00000000000E+00  0.77721168422E+01  0.77721184763E+01  0.50400000000E-02 0.  1.
          2   -1    0    0  501    0  0.00000000000E+00 -0.00000000000E+00 -0.23388221420E+03  0.23388221421E+03  0.25500000000E-02 0. -1.
         24    2    1    2    0    0  0.00000000000E+00 -0.35527136788E-14 -0.22611009736E+03  0.24165433269E+03  0.85270395688E+02 0.  0.
         66    2    3    3    0    0 -0.14944720819E+02 -0.25164889486E+02 -0.20088523488E+03  0.20301599429E+03  0.20000003197E+01 0.  0.
        -13    1    3    3    0    0  0.14944720819E+02  0.25164889486E+02 -0.25224862472E+02  0.38638338396E+02  0.10566000000E+00 0.  1.
         13    1    4    4    0    0 -0.25814672254E+01 -0.57124501325E+01 -0.41290311022E+02  0.41763584711E+02  0.10566000000E+00 0. -1.
        -13    1    4    4    0    0 -0.25109803925E+01 -0.39530582761E+01 -0.30492745016E+02  0.30850451454E+02  0.10566000000E+00 0.  1.
         14    1    4    4    0    0 -0.98522732013E+01 -0.15499381077E+02 -0.12910217885E+03  0.13040195813E+03  0.00000000000E+00 0. -1.
<mgrwt>
<rscale>  0 0.85270396E+02</rscale>
<asrwt>0</asrwt>
<pdfrwt beam="1">  1        2 0.35981874E-01 0.85270396E+02</pdfrwt>
<pdfrwt beam="2">  1       -1 0.11957106E-02 0.85270396E+02</pdfrwt>
<totfact> 0.19693870E+05</totfact>
</mgrwt>
</event>
<event>
 8    1  0.2433467E-024  0.7766952E+02  0.7818608E-02  0.1335798E+00
          2   -1    0    0  501    0  0.00000000000E+00  0.00000000000E+00  0.53015475203E+02  0.53015475264E+02  0.25500000000E-02 0. -1.
         -1   -1    0    0    0  501 -0.00000000000E+00 -0.00000000000E+00 -0.28447138266E+02  0.28447138713E+02  0.50400000000E-02 0.  1.
         24    2    1    2    0    0  0.00000000000E+00  0.35527136788E-14  0.24568336937E+02  0.81462613977E+02  0.77669519737E+02 0.  0.
         66    2    3    3    0    0  0.47106190866E+01 -0.29077912637E+02  0.38793185108E+02  0.48750652785E+02  0.20000001593E+01 0.  0.
        -13    1    3    3    0    0 -0.47106190866E+01  0.29077912637E+02 -0.14224848172E+02  0.32711961192E+02  0.10566000000E+00 0.  1.
         13    1    4    4    0    0  0.35389172341E+01 -0.22323321354E+02  0.30676820529E+02  0.38104239833E+02  0.10566000000E+00 0. -1.
        -13    1    4    4    0    0  0.28855331116E-01 -0.87695574793E+00  0.79867863520E+00  0.11911908377E+01  0.10566000000E+00 0.  1.
        -14    1    4    4    0    0  0.11428465214E+01 -0.58776355348E+01  0.73176859444E+01  0.94552221144E+01  0.00000000000E+00 0.  1.
<mgrwt>
<rscale>  0 0.77669520E+02</rscale>
<asrwt>0</asrwt>
<pdfrwt beam="1">  1        2 0.81562268E-02 0.77669520E+02</pdfrwt>
<pdfrwt beam="2">  1       -1 0.43764829E-02 0.77669520E+02</pdfrwt>
<totfact> 0.16407565E+05</totfact>
</mgrwt>
</event>
<event>
 8    1  0.2433467E-024  0.8190409E+02  0.7818608E-02  0.1323733E+00
          2   -1    0    0  501    0  0.00000000000E+00  0.00000000000E+00  0.29809432064E+03  0.29809432065E+03  0.25500000000E-02 0. -1.
         -1   -1    0    0    0  501 -0.00000000000E+00 -0.00000000000E+00 -0.56259703814E+01  0.56259726390E+01  0.50400000000E-02 0.  1.
         24    2    1    2    0    0  0.35527136788E-14 -0.17763568394E-14  0.29246835026E+03  0.30372029329E+03  0.81904094239E+02 0.  0.
         66    2    3    3    0    0  0.25137065724E+02 -0.14843716577E+02  0.25269388856E+03  0.25438240762E+03  0.19999988745E+01 0.  0.
        -13    1    3    3    0    0 -0.25137065724E+02  0.14843716577E+02  0.39774461699E+02  0.49337885671E+02  0.10566000000E+00 0.  1.
         13    1    4    4    0    0  0.45576997798E+01 -0.32530190816E+01  0.43388321990E+02  0.43748284647E+02  0.10566000000E+00 0. -1.
        -13    1    4    4    0    0  0.78039519330E+01 -0.44166686706E+01  0.80194523103E+02  0.80694369863E+02  0.10566000000E+00 0.  1.
         14    1    4    4    0    0  0.12775414011E+02 -0.71740288248E+01  0.12911104347E+03  0.12993975311E+03  0.00000000000E+00 0. -1.
<mgrwt>
<rscale>  0 0.81904094E+02</rscale>
<asrwt>0</asrwt>
<pdfrwt beam="1">  1        2 0.45860677E-01 0.81904094E+02</pdfrwt>
<pdfrwt beam="2">  1       -1 0.86553385E-03 0.81904094E+02</pdfrwt>
<totfact> 0.23912630E+05</totfact>
</mgrwt>
</event>
<event>
 8    1  0.2433467E-024  0.7861953E+02  0.7818608E-02  0.1333015E+00
         -1   -1    0    0    0  501 -0.00000000000E+00  0.00000000000E+00  0.16794025185E+02  0.16794025941E+02  0.50400000000E-02 0.  1.
          2   -1    0    0  501    0  0.00000000000E+00 -0.00000000000E+00 -0.92012347186E+02  0.92012347221E+02  0.25500000000E-02 0. -1.
         24    2    1    2    0    0  0.00000000000E+00 -0.17763568394E-14 -0.75218322001E+02  0.10880637316E+03  0.78619532409E+02 0.  0.
         66    2    3    3    0    0 -0.24966672785E+02 -0.12652301666E+02 -0.75782521336E+02  0.80810927598E+02  0.19999979521E+01 0.  0.
        -13    1    3    3    0    0  0.24966672785E+02  0.12652301666E+02  0.56419933540E+00  0.27995445564E+02  0.10566000000E+00 0.  1.
         13    1    4    4    0    0 -0.69203617033E+01 -0.38053002943E+01 -0.21666416773E+02  0.23061146898E+02  0.10566000000E+00 0. -1.
        -13    1    4    4    0    0 -0.40077361724E+01 -0.19473519162E+01 -0.13974286491E+02  0.14667855183E+02  0.10566000000E+00 0.  1.
        -14    1    4    4    0    0 -0.14038574910E+02 -0.68996494557E+01 -0.40141818073E+02  0.43081925517E+02  0.00000000000E+00 0.  1.
<mgrwt>
<rscale>  0 0.78619532E+02</rscale>
<asrwt>0</asrwt>
<pdfrwt beam="1">  1        2 0.14155746E-01 0.78619532E+02</pdfrwt>
<pdfrwt beam="2">  1       -1 0.25836963E-02 0.78619532E+02</pdfrwt>
<totfact> 0.18151778E+05</totfact>
</mgrwt>
</event>
<event>
 8    1  0.3476697E-024  0.7704133E+02  0.7818608E-02  0.1337664E+00
          2   -1    0    0  501    0  0.00000000000E+00  0.00000000000E+00  0.45155165145E+02  0.45155165217E+02  0.25500000000E-02 0. -1.
         -1   -1    0    0    0  501 -0.00000000000E+00 -0.00000000000E+00 -0.32860952858E+02  0.32860953244E+02  0.50400000000E-02 0.  1.
         24    2    1    2    0    0  0.00000000000E+00 -0.17763568394E-14  0.12294212287E+02  0.78016118462E+02  0.77041333608E+02 0.  0.
         66    2    3    3    0    0 -0.34104521740E+02 -0.13053093482E+02  0.18484633012E+02  0.40977839271E+02  0.20000002871E+01 0.  0.
        -13    1    3    3    0    0  0.34104521740E+02  0.13053093482E+02 -0.61904207247E+01  0.37038279190E+02  0.10566000000E+00 0.  1.
         13    1    4    4    0    0 -0.19959917763E+02 -0.74912878156E+01  0.10898518282E+02  0.23943821229E+02  0.10566000000E+00 0. -1.
        -13    1    4    4    0    0 -0.85677560883E+01 -0.39236683571E+01  0.43235207468E+01  0.10368491378E+02  0.10566000000E+00 0.  1.
        -14    1    4    4    0    0 -0.55768478891E+01 -0.16381373093E+01  0.32625939829E+01  0.66655266649E+01  0.00000000000E+00 0.  1.
<mgrwt>
<rscale>  0 0.77041334E+02</rscale>
<asrwt>0</asrwt>
<pdfrwt beam="1">  1        2 0.69469485E-02 0.77041334E+02</pdfrwt>
<pdfrwt beam="2">  1       -1 0.50555313E-02 0.77041334E+02</pdfrwt>
<totfact> 0.16211780E+05</totfact>
</mgrwt>
</event>
<event>
 8    1  0.2433467E-024  0.7985536E+02  0.7818608E-02  0.1329462E+00
          2   -1    0    0  501    0  0.00000000000E+00  0.00000000000E+00  0.60148058573E+03  0.60148058574E+03  0.25500000000E-02 0. -1.
         -1   -1    0    0    0  501 -0.00000000000E+00 -0.00000000000E+00 -0.26504897981E+01  0.26504945900E+01  0.50400000000E-02 0.  1.
         24    2    1    2    0    0  0.00000000000E+00  0.00000000000E+00  0.59883009594E+03  0.60413108033E+03  0.79855359378E+02 0.  0.
         66    2    3    3    0    0  0.70550537852E+01 -0.80243740446E+01  0.59045410957E+03  0.59055416336E+03  0.19999984767E+01 0.  0.
        -13    1    3    3    0    0 -0.70550537852E+01  0.80243740446E+01  0.83759863687E+01  0.13576916970E+02  0.10566000000E+00 0.  1.
         13    1    4    4    0    0  0.61665858597E+01 -0.65215063573E+01  0.48992926618E+03  0.49001148338E+03  0.10566000000E+00 0. -1.
        -13    1    4    4    0    0  0.95421132805E+00 -0.11545824135E+01  0.72154994101E+02  0.72170616718E+02  0.10566000000E+00 0.  1.
         14    1    4    4    0    0 -0.65743402557E-01 -0.34828527378E+00  0.28369849290E+02  0.28372063259E+02  0.00000000000E+00 0. -1.
<mgrwt>
<rscale>  0 0.79855359E+02</rscale>
<asrwt>0</asrwt>
<pdfrwt beam="1">  1        2 0.92535512E-01 0.79855359E+02</pdfrwt>
<pdfrwt beam="2">  1       -1 0.40776787E-03 0.79855359E+02</pdfrwt>
<totfact> 0.32337474E+05</totfact>
</mgrwt>
</event>
<event>
 8    1  0.2433467E-024  0.7902095E+02  0.7818608E-02  0.1331853E+00
          2   -1    0    0  501    0  0.00000000000E+00  0.00000000000E+00  0.64652439687E+03  0.64652439688E+03  0.25500000000E-02 0. -1.
         -1   -1    0    0    0  501 -0.00000000000E+00 -0.00000000000E+00 -0.24145660307E+01  0.24145712908E+01  0.50400000000E-02 0.  1.
         24    2    1    2    0    0 -0.17763568394E-14  0.00000000000E+00  0.64410983084E+03  0.64893896817E+03  0.79020947985E+02 0.  0.
         66    2    3    3    0    0 -0.13473338068E+02  0.39113804426E+01  0.62536270461E+03  0.62552325460E+03  0.20000001903E+01 0.  0.
        -13    1    3    3    0    0  0.13473338068E+02 -0.39113804426E+01  0.18747126237E+02  0.23415713567E+02  0.10566000000E+00 0.  1.
         13    1    4    4    0    0 -0.51513413651E+01  0.20168247551E+01  0.24499764166E+03  0.24506011402E+03  0.10566000000E+00 0. -1.
        -13    1    4    4    0    0 -0.36761829958E+00 -0.17170018398E+00  0.17476137041E+02  0.17481165695E+02  0.10566000000E+00 0.  1.
         14    1    4    4    0    0 -0.79543784036E+01  0.20662558715E+01  0.36288892591E+03  0.36298197489E+03  0.00000000000E+00 0. -1.
<mgrwt>
<rscale>  0 0.79020948E+02</rscale>
<asrwt>0</asrwt>
<pdfrwt beam="1">  1        2 0.99465259E-01 0.79020948E+02</pdfrwt>
<pdfrwt beam="2">  1       -1 0.37147223E-03 0.79020948E+02</pdfrwt>
<totfact> 0.33879571E+05</totfact>
</mgrwt>
</event>
<event>
 8    1  0.2433467E-024  0.7967628E+02  0.7818608E-02  0.1329973E+00
         -1   -1    0    0    0  501 -0.00000000000E+00  0.00000000000E+00  0.32056209905E+02  0.32056210301E+02  0.50400000000E-02 0.  1.
          2   -1    0    0  501    0  0.00000000000E+00 -0.00000000000E+00 -0.49509203822E+02  0.49509203888E+02  0.25500000000E-02 0. -1.
         24    2    1    2    0    0  0.35527136788E-14  0.00000000000E+00 -0.17452993917E+02  0.81565414190E+02  0.79676281259E+02 0.  0.
         66    2    3    3    0    0  0.31996816146E+02  0.22682207122E+02 -0.15734765374E+02  0.42306756077E+02  0.20000012304E+01 0.  0.
        -13    1    3    3    0    0 -0.31996816146E+02 -0.22682207122E+02 -0.17182285428E+01  0.39258658113E+02  0.10566000000E+00 0.  1.
         13    1    4    4    0    0  0.10972510194E+02  0.76771609996E+01 -0.51769121053E+01  0.14357798019E+02  0.10566000000E+00 0. -1.
        -13    1    4    4    0    0  0.25884660452E+01  0.21235991801E+01 -0.87026097538E+00  0.34609750282E+01  0.10566000000E+00 0.  1.
        -14    1    4    4    0    0  0.18435839907E+02  0.12881446942E+02 -0.96875922938E+01  0.24487983030E+02  0.00000000000E+00 0.  1.
<mgrwt>
<rscale>  0 0.79676281E+02</rscale>
<asrwt>0</asrwt>
<pdfrwt beam="1">  1        2 0.76168006E-02 0.79676281E+02</pdfrwt>
<pdfrwt beam="2">  1       -1 0.49317246E-02 0.79676281E+02</pdfrwt>
<totfact> 0.15077545E+05</totfact>
</mgrwt>
</event>
<event>
 8    1  0.2433467E-024  0.8061084E+02  0.7818608E-02  0.1327327E+00
         -1   -1    0    0    0  501 -0.00000000000E+00  0.00000000000E+00  0.10027597434E+03  0.10027597447E+03  0.50400000000E-02 0.  1.
          2   -1    0    0  501    0  0.00000000000E+00 -0.00000000000E+00 -0.16200559102E+02  0.16200559303E+02  0.25500000000E-02 0. -1.
         24    2    1    2    0    0  0.35527136788E-14 -0.35527136788E-14  0.84075415240E+02  0.11647653377E+03  0.80610839666E+02 0.  0.
         66    2    3    3    0    0 -0.24221771648E+02  0.24050704466E+02  0.11161345053E+02  0.35968127985E+02  0.20000000620E+01 0.  0.
        -13    1    3    3    0    0  0.24221771648E+02 -0.24050704466E+02  0.72914070187E+02  0.80508405787E+02  0.10566000000E+00 0.  1.
         13    1    4    4    0    0 -0.32768036876E+01  0.35455071507E+01  0.20570335839E+01  0.52488679316E+01  0.10566000000E+00 0. -1.
        -13    1    4    4    0    0 -0.11205240132E+02  0.10368281814E+02  0.42524320843E+01  0.15847807951E+02  0.10566000000E+00 0.  1.
        -14    1    4    4    0    0 -0.97397278286E+01  0.10136915502E+02  0.48518793852E+01  0.14871452103E+02  0.00000000000E+00 0.  1.
<mgrwt>
<rscale>  0 0.80610840E+02</rscale>
<asrwt>0</asrwt>
<pdfrwt beam="1">  1        2 0.24923937E-02 0.80610840E+02</pdfrwt>
<pdfrwt beam="2">  1       -1 0.15427073E-01 0.80610840E+02</pdfrwt>
<totfact> 0.11623497E+05</totfact>
</mgrwt>
</event>
<event>
 8    1  0.2433467E-024  0.8016689E+02  0.7818608E-02  0.1328578E+00
          2   -1    0    0  501    0  0.00000000000E+00  0.00000000000E+00  0.95894405271E+03  0.95894405271E+03  0.25500000000E-02 0. -1.
         -1   -1    0    0    0  501 -0.00000000000E+00 -0.00000000000E+00 -0.16754667763E+01  0.16754743568E+01  0.50400000000E-02 0.  1.
         24    2    1    2    0    0  0.00000000000E+00  0.00000000000E+00  0.95726858593E+03  0.96061952707E+03  0.80166889506E+02 0.  0.
         66    2    3    3    0    0 -0.10471679267E+02 -0.25869999212E+01  0.94121214801E+03  0.94127607861E+03  0.19999944429E+01 0.  0.
        -13    1    3    3    0    0  0.10471679267E+02  0.25869999212E+01  0.16056437923E+02  0.19343448454E+02  0.10566000000E+00 0.  1.
         13    1    4    4    0    0 -0.20261105333E+01 -0.16587780232E+00  0.20106612182E+03  0.20107642614E+03  0.10566000000E+00 0. -1.
        -13    1    4    4    0    0 -0.11153014045E+01 -0.63060113918E+00  0.14722388751E+03  0.14722950035E+03  0.10566000000E+00 0.  1.
        -14    1    4    4    0    0 -0.73302673293E+01 -0.17905209797E+01  0.59292213867E+03  0.59297015213E+03  0.00000000000E+00 0.  1.
<mgrwt>
<rscale>  0 0.80166890E+02</rscale>
<asrwt>0</asrwt>
<pdfrwt beam="1">  1        2 0.14752954E+00 0.80166890E+02</pdfrwt>
<pdfrwt beam="2">  1       -1 0.25776525E-03 0.80166890E+02</pdfrwt>
<totfact> 0.34958368E+05</totfact>
</mgrwt>
</event>
<event>
 8    1  0.2433467E-024  0.8089608E+02  0.7818608E-02  0.1326528E+00
          2   -1    0    0  501    0  0.00000000000E+00  0.00000000000E+00  0.10815058594E+03  0.10815058598E+03  0.25500000000E-02 0. -1.
         -1   -1    0    0    0  501 -0.00000000000E+00 -0.00000000000E+00 -0.15127461080E+02  0.15127461920E+02  0.50400000000E-02 0.  1.
         24    2    1    2    0    0  0.00000000000E+00  0.17763568394E-14  0.93023124865E+02  0.12327804789E+03  0.80896077366E+02 0.  0.
         66    2    3    3    0    0 -0.25363747733E+02 -0.47554304926E+01  0.93955324111E+02  0.97455306412E+02  0.20000002266E+01 0.  0.
        -13    1    3    3    0    0  0.25363747733E+02  0.47554304926E+01 -0.93219924589E+00  0.25822741483E+02  0.10566000000E+00 0.  1.
         13    1    4    4    0    0 -0.15747373581E+02 -0.29419212473E+01  0.57370748563E+02  0.59565498655E+02  0.10566000000E+00 0. -1.
        -13    1    4    4    0    0 -0.36940108692E+01 -0.69049272707E+00  0.11890979231E+02  0.12471128562E+02  0.10566000000E+00 0.  1.
        -14    1    4    4    0    0 -0.59223632829E+01 -0.11230165183E+01  0.24693596317E+02  0.25418679195E+02  0.00000000000E+00 0.  1.
<mgrwt>
<rscale>  0 0.80896077E+02</rscale>
<asrwt>0</asrwt>
<pdfrwt beam="1">  1        2 0.16638553E-01 0.80896077E+02</pdfrwt>
<pdfrwt beam="2">  1       -1 0.23273017E-02 0.80896077E+02</pdfrwt>
<totfact> 0.17592599E+05</totfact>
</mgrwt>
</event>
<event>
 8    1  0.2433467E-024  0.7774166E+02  0.7818608E-02  0.1335585E+00
          2   -1    0    0  501    0  0.00000000000E+00  0.00000000000E+00  0.19772193032E+02  0.19772193196E+02  0.25500000000E-02 0. -1.
         -1   -1    0    0    0  501 -0.00000000000E+00 -0.00000000000E+00 -0.76417482725E+02  0.76417482891E+02  0.50400000000E-02 0.  1.
         24    2    1    2    0    0  0.00000000000E+00  0.00000000000E+00 -0.56645289693E+02  0.96189676087E+02  0.77741655124E+02 0.  0.
         66    2    3    3    0    0  0.30121976255E+02 -0.80049231649E+00  0.19904643487E+01  0.30264437692E+02  0.19999997595E+01 0.  0.
        -13    1    3    3    0    0 -0.30121976255E+02  0.80049231649E+00 -0.58635754042E+02  0.65925238395E+02  0.10566000000E+00 0.  1.
         13    1    4    4    0    0  0.23818883768E+02 -0.13356379883E+01  0.17504389307E+01  0.23920667911E+02  0.10566000000E+00 0. -1.
        -13    1    4    4    0    0  0.86289629304E+00 -0.10102985443E-01  0.92767198189E-01  0.87433510253E+00  0.10566000000E+00 0. -1.
         14    1    4    4    0    0  0.54401961931E+01  0.54524865728E+00  0.14725821980E+00  0.54694346783E+01  0.00000000000E+00 0. -1.
<mgrwt>
<rscale>  0 0.77741655E+02</rscale>
<asrwt>0</asrwt>
<pdfrwt beam="1">  1        2 0.30418759E-02 0.77741655E+02</pdfrwt>
<pdfrwt beam="2">  1       -1 0.11756536E-01 0.77741655E+02</pdfrwt>
<totfact> 0.13446467E+05</totfact>
</mgrwt>
</event>
<event>
 8    1  0.2433467E-024  0.7948780E+02  0.7818608E-02  0.1330511E+00
         -1   -1    0    0    0  501 -0.00000000000E+00  0.00000000000E+00  0.10263966440E+01  0.10264090181E+01  0.50400000000E-02 0.  1.
          2   -1    0    0  501    0  0.00000000000E+00 -0.00000000000E+00 -0.15389451829E+04  0.15389451829E+04  0.25500000000E-02 0. -1.
         24    2    1    2    0    0  0.00000000000E+00 -0.44408920985E-15 -0.15379187863E+04  0.15399715919E+04  0.79487802852E+02 0.  0.
         66    2    3    3    0    0  0.18958011391E+02  0.38714783141E+01 -0.14414571065E+04  0.14415883547E+04  0.19999981673E+01 0.  0.
        -13    1    3    3    0    0 -0.18958011391E+02 -0.38714783141E+01 -0.96461679778E+02  0.98383237240E+02  0.10566000000E+00 0.  1.
         13    1    4    4    0    0  0.11767175343E+01  0.33343923218E+00 -0.77318450047E+02  0.77328194907E+02  0.10566000000E+00 0. -1.
        -13    1    4    4    0    0  0.12182961478E+02  0.30515062387E+01 -0.90656285834E+03  0.90664985718E+03  0.10566000000E+00 0.  1.
         14    1    4    4    0    0  0.55983323789E+01  0.48653284325E+00 -0.45757579811E+03  0.45761030261E+03  0.00000000000E+00 0. -1.
<mgrwt>
<rscale>  0 0.79487803E+02</rscale>
<asrwt>0</asrwt>
<pdfrwt beam="1">  1        2 0.23675895E+00 0.79487803E+02</pdfrwt>
<pdfrwt beam="2">  1       -1 0.15790936E-03 0.79487803E+02</pdfrwt>
<totfact> 0.33470679E+05</totfact>
</mgrwt>
</event>
<event>
 8    1  0.2433467E-024  0.7893279E+02  0.7818608E-02  0.1332108E+00
         -1   -1    0    0    0  501 -0.00000000000E+00  0.00000000000E+00  0.10823293543E+02  0.10823294716E+02  0.50400000000E-02 0.  1.
          2   -1    0    0  501    0  0.00000000000E+00 -0.00000000000E+00 -0.14391147618E+03  0.14391147621E+03  0.25500000000E-02 0. -1.
         24    2    1    2    0    0 -0.35527136788E-14  0.00000000000E+00 -0.13308818264E+03  0.15473477092E+03  0.78932787698E+02 0.  0.
         66    2    3    3    0    0  0.25602397342E+02 -0.29149815794E+02 -0.52670134039E+02  0.65447211792E+02  0.20000003092E+01 0.  0.
        -13    1    3    3    0    0 -0.25602397342E+02  0.29149815794E+02 -0.80418048601E+02  0.89287559130E+02  0.10566000000E+00 0.  1.
         13    1    4    4    0    0  0.20549113738E+02 -0.22529090986E+02 -0.40951919143E+02  0.51057779639E+02  0.10566000000E+00 0. -1.
        -13    1    4    4    0    0  0.43231018783E+01 -0.53093440614E+01 -0.97430196055E+01  0.11908649767E+02  0.10566000000E+00 0.  1.
         14    1    4    4    0    0  0.73018172599E+00 -0.13113807457E+01 -0.19751952901E+01  0.24807823861E+01  0.00000000000E+00 0. -1.
<mgrwt>
<rscale>  0 0.78932788E+02</rscale>
<asrwt>0</asrwt>
<pdfrwt beam="1">  1        2 0.22140226E-01 0.78932788E+02</pdfrwt>
<pdfrwt beam="2">  1       -1 0.16651223E-02 0.78932788E+02</pdfrwt>
<totfact> 0.20483157E+05</totfact>
</mgrwt>
</event>
<event>
 8    1  0.2433467E-024  0.8214928E+02  0.7818608E-02  0.1323060E+00
          2   -1    0    0  501    0  0.00000000000E+00  0.00000000000E+00  0.57326663660E+03  0.57326663661E+03  0.25500000000E-02 0. -1.
         -1   -1    0    0    0  501 -0.00000000000E+00 -0.00000000000E+00 -0.29430016398E+01  0.29430059554E+01  0.50400000000E-02 0.  1.
         24    2    1    2    0    0  0.00000000000E+00  0.00000000000E+00  0.57032363496E+03  0.57620964256E+03  0.82149276236E+02 0.  0.
         66    2    3    3    0    0 -0.33249160638E+02  0.55293065495E+01  0.44968394631E+03  0.45094981039E+03  0.20000017981E+01 0.  0.
        -13    1    3    3    0    0  0.33249160638E+02 -0.55293065495E+01  0.12063968866E+03  0.12525983218E+03  0.10566000000E+00 0.  1.
         13    1    4    4    0    0 -0.16292896991E+02  0.23511868437E+01  0.21456616436E+03  0.21519673935E+03  0.10566000000E+00 0. -1.
        -13    1    4    4    0    0 -0.56776827035E+00  0.35398188257E-01  0.10782409759E+02  0.10797922860E+02  0.10566000000E+00 0.  1.
        -14    1    4    4    0    0 -0.16388495377E+02  0.31427215175E+01  0.22433537218E+03  0.22495514818E+03  0.00000000000E+00 0.  1.
<mgrwt>
<rscale>  0 0.82149276E+02</rscale>
<asrwt>0</asrwt>
<pdfrwt beam="1">  1        2 0.88194896E-01 0.82149276E+02</pdfrwt>
<pdfrwt beam="2">  1       -1 0.45276967E-03 0.82149276E+02</pdfrwt>
<totfact> 0.29629460E+05</totfact>
</mgrwt>
</event>
<event>
 8    1  0.2815614E-024  0.7080451E+02  0.7818608E-02  0.1357378E+00
         -1   -1    0    0    0  501 -0.00000000000E+00  0.00000000000E+00  0.10600822783E+02  0.10600823981E+02  0.50400000000E-02 0.  1.
          2   -1    0    0  501    0  0.00000000000E+00 -0.00000000000E+00 -0.11822851689E+03  0.11822851691E+03  0.25500000000E-02 0. -1.
         24    2    1    2    0    0 -0.35527136788E-14  0.00000000000E+00 -0.10762769410E+03  0.12882934089E+03  0.70804509302E+02 0.  0.
         66    2    3    3    0    0  0.18224337381E+02 -0.32111579169E+01 -0.10871042195E+03  0.11029231115E+03  0.20000124330E+01 0.  0.
        -13    1    3    3    0    0 -0.18224337381E+02  0.32111579169E+01  0.10827278486E+01  0.18537029745E+02  0.10566000000E+00 0.  1.
         13    1    4    4    0    0  0.13898857274E+02 -0.23211536502E+01 -0.85373244577E+02  0.86528423316E+02  0.10566000000E+00 0. -1.
        -13    1    4    4    0    0  0.13389071207E+01 -0.42663608146E+00 -0.91960237301E+01  0.93033707389E+01  0.10566000000E+00 0.  1.
        -14    1    4    4    0    0  0.29865729864E+01 -0.46336818528E+00 -0.14141153644E+02  0.14460517095E+02  0.00000000000E+00 0.  1.
<mgrwt>
<rscale>  0 0.70804509E+02</rscale>
<asrwt>0</asrwt>
<pdfrwt beam="1">  1        2 0.18189002E-01 0.70804509E+02</pdfrwt>
<pdfrwt beam="2">  1       -1 0.16308960E-02 0.70804509E+02</pdfrwt>
<totfact> 0.25700473E+05</totfact>
</mgrwt>
</event>
<event>
 8    1  0.2433467E-024  0.8131736E+02  0.7818608E-02  0.1325354E+00
         -1   -1    0    0    0  501 -0.00000000000E+00  0.00000000000E+00  0.58689436438E+02  0.58689436654E+02  0.50400000000E-02 0.  1.
          2   -1    0    0  501    0  0.00000000000E+00 -0.00000000000E+00 -0.28167387267E+02  0.28167387383E+02  0.25500000000E-02 0. -1.
         24    2    1    2    0    0  0.35527136788E-14  0.00000000000E+00  0.30522049170E+02  0.86856824037E+02  0.81317356058E+02 0.  0.
         66    2    3    3    0    0  0.21436476034E+02 -0.42176730460E+01 -0.21324616898E+02  0.30594943362E+02  0.20000006959E+01 0.  0.
        -13    1    3    3    0    0 -0.21436476034E+02  0.42176730460E+01  0.51846666068E+02  0.56261880675E+02  0.10566000000E+00 0.  1.
         13    1    4    4    0    0  0.16252331829E+02 -0.31947618766E+01 -0.16023657095E+02  0.23045900808E+02  0.10566000000E+00 0. -1.
        -13    1    4    4    0    0  0.17977244190E+01  0.74377159219E-01 -0.20302066322E+01  0.27148200775E+01  0.10566000000E+00 0.  1.
         14    1    4    4    0    0  0.33864197861E+01 -0.10972883286E+01 -0.32707531709E+01  0.48342224761E+01  0.00000000000E+00 0. -1.
<mgrwt>
<rscale>  0 0.81317356E+02</rscale>
<asrwt>0</asrwt>
<pdfrwt beam="1">  1        2 0.43334443E-02 0.81317356E+02</pdfrwt>
<pdfrwt beam="2">  1       -1 0.90291440E-02 0.81317356E+02</pdfrwt>
<totfact> 0.12691654E+05</totfact>
</mgrwt>
</event>
<event>
 8    1  0.2433467E-024  0.7823625E+02  0.7818608E-02  0.1334133E+00
         -1   -1    0    0    0  501 -0.00000000000E+00  0.00000000000E+00  0.11234081476E+02  0.11234082607E+02  0.50400000000E-02 0.  1.
          2   -1    0    0  501    0  0.00000000000E+00 -0.00000000000E+00 -0.13621295489E+03  0.13621295491E+03  0.25500000000E-02 0. -1.
         24    2    1    2    0    0  0.00000000000E+00 -0.17763568394E-14 -0.12497887341E+03  0.14744703752E+03  0.78236245268E+02 0.  0.
         66    2    3    3    0    0  0.13488611641E+02 -0.14915505264E+02 -0.12570934785E+03  0.12732342705E+03  0.19999994268E+01 0.  0.
        -13    1    3    3    0    0 -0.13488611641E+02  0.14915505264E+02  0.73047443930E+00  0.20123610467E+02  0.10566000000E+00 0.  1.
         13    1    4    4    0    0  0.95082238905E+01 -0.97003090573E+01 -0.83030779627E+02  0.84134557982E+02  0.10566000000E+00 0. -1.
        -13    1    4    4    0    0  0.24464504532E+01 -0.37684378199E+01 -0.27575495279E+02  0.27939315442E+02  0.10566000000E+00 0.  1.
        -14    1    4    4    0    0  0.15339372971E+01 -0.14467583870E+01 -0.15103072943E+02  0.15249553625E+02  0.00000000000E+00 0.  1.
<mgrwt>
<rscale>  0 0.78236245E+02</rscale>
<asrwt>0</asrwt>
<pdfrwt beam="1">  1        2 0.20955838E-01 0.78236245E+02</pdfrwt>
<pdfrwt beam="2">  1       -1 0.17283204E-02 0.78236245E+02</pdfrwt>
<totfact> 0.20610859E+05</totfact>
</mgrwt>
</event>
<event>
 8    1  0.2433467E-024  0.7985966E+02  0.7818608E-02  0.1329450E+00
         -1   -1    0    0    0  501 -0.00000000000E+00  0.00000000000E+00  0.23300890053E+03  0.23300890058E+03  0.50400000000E-02 0.  1.
          2   -1    0    0  501    0  0.00000000000E+00 -0.00000000000E+00 -0.68426190357E+01  0.68426195108E+01  0.25500000000E-02 0. -1.
         24    2    1    2    0    0  0.00000000000E+00  0.00000000000E+00  0.22616628149E+03  0.23985152009E+03  0.79859656943E+02 0.  0.
         66    2    3    3    0    0  0.23073182259E+01  0.33766222593E+02  0.49661356032E+02  0.60130955379E+02  0.20000015599E+01 0.  0.
        -13    1    3    3    0    0 -0.23073182259E+01 -0.33766222593E+02  0.17650492546E+03  0.17972056471E+03  0.10566000000E+00 0.  1.
         13    1    4    4    0    0  0.15814047750E+01  0.13353810704E+02  0.19723169039E+02  0.23871314634E+02  0.10566000000E+00 0. -1.
        -13    1    4    4    0    0 -0.24723130074E+00  0.20197238602E+01  0.30584655957E+01  0.36750215814E+01  0.10566000000E+00 0.  1.
         14    1    4    4    0    0  0.97314475167E+00  0.18392688029E+02  0.26879721397E+02  0.32584619163E+02  0.00000000000E+00 0. -1.
<mgrwt>
<rscale>  0 0.79859657E+02</rscale>
<asrwt>0</asrwt>
<pdfrwt beam="1">  1        2 0.10527107E-02 0.79859657E+02</pdfrwt>
<pdfrwt beam="2">  1       -1 0.35847521E-01 0.79859657E+02</pdfrwt>
<totfact> 0.95301378E+04</totfact>
</mgrwt>
</event>
<event>
 8    1  0.2433467E-024  0.7444712E+02  0.7818608E-02  0.1345592E+00
         -1   -1    0    0    0  501 -0.00000000000E+00  0.00000000000E+00  0.13733299771E+01  0.13733392252E+01  0.50400000000E-02 0.  1.
          2   -1    0    0  501    0  0.00000000000E+00 -0.00000000000E+00 -0.10089263387E+04  0.10089263387E+04  0.25500000000E-02 0. -1.
         24    2    1    2    0    0  0.00000000000E+00  0.88817841970E-15 -0.10075530087E+04  0.10102996779E+04  0.74447121069E+02 0.  0.
         66    2    3    3    0    0  0.95062328320E+01 -0.67555936450E+01 -0.98347156636E+03  0.98354274352E+03  0.19999992469E+01 0.  0.
        -13    1    3    3    0    0 -0.95062328320E+01  0.67555936450E+01 -0.24081442341E+02  0.26756934380E+02  0.10566000000E+00 0.  1.
         13    1    4    4    0    0  0.33333077449E+01 -0.26625076431E+01 -0.36034275071E+03  0.36036801889E+03  0.10566000000E+00 0. -1.
        -13    1    4    4    0    0  0.78087882644E+00 -0.71729582246E+00 -0.13951879716E+03  0.13952286626E+03  0.10566000000E+00 0.  1.
         14    1    4    4    0    0  0.53920462607E+01 -0.33757901795E+01 -0.48361001849E+03  0.48365185837E+03  0.00000000000E+00 0. -1.
<mgrwt>
<rscale>  0 0.74447121E+02</rscale>
<asrwt>0</asrwt>
<pdfrwt beam="1">  1        2 0.15521885E+00 0.74447121E+02</pdfrwt>
<pdfrwt beam="2">  1       -1 0.21128305E-03 0.74447121E+02</pdfrwt>
<totfact> 0.42450837E+05</totfact>
</mgrwt>
</event>
<event>
 8    1  0.2433467E-024  0.8014228E+02  0.7818608E-02  0.1328648E+00
         -1   -1    0    0    0  501 -0.00000000000E+00  0.00000000000E+00  0.17154557488E+01  0.17154631525E+01  0.50400000000E-02 0.  1.
          2   -1    0    0  501    0  0.00000000000E+00 -0.00000000000E+00 -0.93601529950E+03  0.93601529951E+03  0.25500000000E-02 0. -1.
         24    2    1    2    0    0  0.88817841970E-15  0.35527136788E-14 -0.93429984376E+03  0.93773076266E+03  0.80142280963E+02 0.  0.
         66    2    3    3    0    0 -0.65331197838E+01 -0.30684690012E+02 -0.75866119672E+03  0.75931221724E+03  0.19999945216E+01 0.  0.
        -13    1    3    3    0    0  0.65331197838E+01  0.30684690012E+02 -0.17563864703E+03  0.17841854542E+03  0.10566000000E+00 0.  1.
         13    1    4    4    0    0 -0.17000561003E+01 -0.99835661218E+01 -0.24427919175E+03  0.24448905184E+03  0.10566000000E+00 0.  1.
        -13    1    4    4    0    0 -0.44722579057E+01 -0.19506124628E+02 -0.47502877640E+03  0.47545014414E+03  0.10566000000E+00 0. -1.
        -14    1    4    4    0    0 -0.36080577779E+00 -0.11949992622E+01 -0.39353228573E+02  0.39373021260E+02  0.00000000000E+00 0.  1.
<mgrwt>
<rscale>  0 0.80142281E+02</rscale>
<asrwt>0</asrwt>
<pdfrwt beam="1">  1        2 0.14400195E+00 0.80142281E+02</pdfrwt>
<pdfrwt beam="2">  1       -1 0.26391759E-03 0.80142281E+02</pdfrwt>
<totfact> 0.34919961E+05</totfact>
</mgrwt>
</event>
<event>
 8    1  0.2433467E-024  0.7966775E+02  0.7818608E-02  0.1329997E+00
         -1   -1    0    0    0  501 -0.00000000000E+00  0.00000000000E+00  0.53458183270E+02  0.53458183508E+02  0.50400000000E-02 0.  1.
          2   -1    0    0  501    0  0.00000000000E+00 -0.00000000000E+00 -0.29681846728E+02  0.29681846837E+02  0.25500000000E-02 0. -1.
         24    2    1    2    0    0  0.00000000000E+00  0.35527136788E-14  0.23776336542E+02  0.83140030345E+02  0.79667750479E+02 0.  0.
         66    2    3    3    0    0  0.77309277035E+01 -0.26502628498E+02 -0.18034977312E+02  0.33036600415E+02  0.19999999702E+01 0.  0.
        -13    1    3    3    0    0 -0.77309277035E+01  0.26502628498E+02  0.41811313854E+02  0.50103429930E+02  0.10566000000E+00 0.  1.
         13    1    4    4    0    0  0.57502640947E+01 -0.19467351514E+02 -0.13683206658E+02  0.24480290452E+02  0.10566000000E+00 0. -1.
        -13    1    4    4    0    0  0.12306851265E+01 -0.27721702748E+01 -0.19239009675E+01  0.35933372902E+01  0.10566000000E+00 0.  1.
        -14    1    4    4    0    0  0.74997848238E+00 -0.42631067088E+01 -0.24278696866E+01  0.49629726727E+01  0.00000000000E+00 0.  1.
<mgrwt>
<rscale>  0 0.79667750E+02</rscale>
<asrwt>0</asrwt>
<pdfrwt beam="1">  1        2 0.45664380E-02 0.79667750E+02</pdfrwt>
<pdfrwt beam="2">  1       -1 0.82243359E-02 0.79667750E+02</pdfrwt>
<totfact> 0.13584516E+05</totfact>
</mgrwt>
</event>
<event>
 8    1  0.2433467E-024  0.8339083E+02  0.7818608E-02  0.1319695E+00
         -1   -1    0    0    0  501 -0.00000000000E+00  0.00000000000E+00  0.33325727289E+01  0.33325765400E+01  0.50400000000E-02 0.  1.
          2   -1    0    0  501    0  0.00000000000E+00 -0.00000000000E+00 -0.52167099215E+03  0.52167099216E+03  0.25500000000E-02 0. -1.
         24    2    1    2    0    0  0.00000000000E+00  0.00000000000E+00 -0.51833841942E+03  0.52500356870E+03  0.83390827408E+02 0.  0.
         66    2    3    3    0    0  0.31798357892E+02 -0.70942247098E+01 -0.42288964968E+03  0.42414752080E+03  0.20000005418E+01 0.  0.
        -13    1    3    3    0    0 -0.31798357892E+02  0.70942247098E+01 -0.95448769739E+02  0.10085604790E+03  0.10566000000E+00 0.  1.
         13    1    4    4    0    0  0.14917711754E+02 -0.31083736731E+01 -0.20113247228E+03  0.20170890580E+03  0.10566000000E+00 0. -1.
        -13    1    4    4    0    0  0.94520331612E+01 -0.16707812920E+01 -0.12746997469E+03  0.12783089632E+03  0.10566000000E+00 0.  1.
         14    1    4    4    0    0  0.74286129766E+01 -0.23150697448E+01 -0.94287202710E+02  0.94607718679E+02  0.00000000000E+00 0. -1.
<mgrwt>
<rscale>  0 0.83390827E+02</rscale>
<asrwt>0</asrwt>
<pdfrwt beam="1">  1        2 0.80257011E-01 0.83390827E+02</pdfrwt>
<pdfrwt beam="2">  1       -1 0.51270421E-03 0.83390827E+02</pdfrwt>
<totfact> 0.27691156E+05</totfact>
</mgrwt>
</event>
<event>
 8    1  0.2433467E-024  0.7903357E+02  0.7818608E-02  0.1331817E+00
          2   -1    0    0  501    0  0.00000000000E+00  0.00000000000E+00  0.44040674030E+01  0.44040681413E+01  0.25500000000E-02 0. -1.
         -1   -1    0    0    0  501 -0.00000000000E+00 -0.00000000000E+00 -0.35457586937E+03  0.35457586941E+03  0.50400000000E-02 0.  1.
         24    2    1    2    0    0  0.00000000000E+00  0.00000000000E+00 -0.35017180197E+03  0.35897993755E+03  0.79033566720E+02 0.  0.
         66    2    3    3    0    0 -0.30208093690E+02 -0.19913207041E+02 -0.24708764261E+03  0.24973059058E+03  0.20000000718E+01 0.  0.
        -13    1    3    3    0    0  0.30208093690E+02  0.19913207041E+02 -0.10308415936E+03  0.10924934697E+03  0.10566000000E+00 0.  1.
         13    1    4    4    0    0 -0.69141390996E+01 -0.50909470124E+01 -0.57905498244E+02  0.58538713275E+02  0.10566000000E+00 0. -1.
        -13    1    4    4    0    0 -0.17410415016E+02 -0.11696012092E+02 -0.14590662572E+03  0.14740649186E+03  0.10566000000E+00 0.  1.
        -14    1    4    4    0    0 -0.58835395746E+01 -0.31262479372E+01 -0.43275518648E+02  0.43785385442E+02  0.00000000000E+00 0.  1.
<mgrwt>
<rscale>  0 0.79033567E+02</rscale>
<asrwt>0</asrwt>
<pdfrwt beam="1">  1        2 0.67754917E-03 0.79033567E+02</pdfrwt>
<pdfrwt beam="2">  1       -1 0.54550111E-01 0.79033567E+02</pdfrwt>
<totfact> 0.82943096E+04</totfact>
</mgrwt>
</event>
<event>
 8    1  0.2433467E-024  0.8133755E+02  0.7818608E-02  0.1325298E+00
         -1   -1    0    0    0  501 -0.00000000000E+00  0.00000000000E+00  0.26270080013E+02  0.26270080497E+02  0.50400000000E-02 0.  1.
          2   -1    0    0  501    0  0.00000000000E+00 -0.00000000000E+00 -0.62959431174E+02  0.62959431226E+02  0.25500000000E-02 0. -1.
         24    2    1    2    0    0  0.00000000000E+00  0.35527136788E-14 -0.36689351161E+02  0.89229511723E+02  0.81337551436E+02 0.  0.
         66    2    3    3    0    0 -0.31391577216E+02  0.22488920915E+02 -0.32265144322E+02  0.50360919592E+02  0.19999999767E+01 0.  0.
        -13    1    3    3    0    0  0.31391577216E+02 -0.22488920915E+02 -0.44242068387E+01  0.38868592131E+02  0.10566000000E+00 0.  1.
         13    1    4    4    0    0 -0.15741919882E+01  0.12131031496E+01 -0.18979947707E+01  0.27501359698E+01  0.10566000000E+00 0. -1.
        -13    1    4    4    0    0 -0.33104903926E+01  0.22796593354E+01 -0.26846897840E+01  0.48347612761E+01  0.10566000000E+00 0.  1.
        -14    1    4    4    0    0 -0.26506894835E+02  0.18996158431E+02 -0.27682459768E+02  0.42776022346E+02  0.00000000000E+00 0.  1.
<mgrwt>
<rscale>  0 0.81337551E+02</rscale>
<asrwt>0</asrwt>
<pdfrwt beam="1">  1        2 0.96860663E-02 0.81337551E+02</pdfrwt>
<pdfrwt beam="2">  1       -1 0.40415508E-02 0.81337551E+02</pdfrwt>
<totfact> 0.15047734E+05</totfact>
</mgrwt>
</event>
<event>
 8    1  0.2433467E-024  0.7883320E+02  0.7818608E-02  0.1332396E+00
         -1   -1    0    0    0  501 -0.00000000000E+00  0.00000000000E+00  0.11411118284E+02  0.11411119397E+02  0.50400000000E-02 0.  1.
          2   -1    0    0  501    0  0.00000000000E+00 -0.00000000000E+00 -0.13615389977E+03  0.13615389979E+03  0.25500000000E-02 0. -1.
         24    2    1    2    0    0  0.00000000000E+00  0.00000000000E+00 -0.12474278149E+03  0.14756501919E+03  0.78833199580E+02 0.  0.
         66    2    3    3    0    0 -0.32359394661E+02 -0.22392276147E+02 -0.59105597180E+02  0.71035315275E+02  0.19999860769E+01 0.  0.
        -13    1    3    3    0    0  0.32359394661E+02  0.22392276147E+02 -0.65637184306E+02  0.76529703916E+02  0.10566000000E+00 0.  1.
         13    1    4    4    0    0 -0.10904376851E+02 -0.71896648592E+01 -0.19878253066E+02  0.23785559154E+02  0.10566000000E+00 0. -1.
        -13    1    4    4    0    0 -0.83726147895E+01 -0.61894859629E+01 -0.16816774694E+02  0.19779420872E+02  0.10566000000E+00 0.  1.
         14    1    4    4    0    0 -0.13082403021E+02 -0.90131253250E+01 -0.22410569421E+02  0.27470335249E+02  0.00000000000E+00 0. -1.
<mgrwt>
<rscale>  0 0.78833200E+02</rscale>
<asrwt>0</asrwt>
<pdfrwt beam="1">  1        2 0.20946753E-01 0.78833200E+02</pdfrwt>
<pdfrwt beam="2">  1       -1 0.17555568E-02 0.78833200E+02</pdfrwt>
<totfact> 0.20196581E+05</totfact>
</mgrwt>
</event>
<event>
 8    1  0.2433467E-024  0.7618190E+02  0.7818608E-02  0.1340250E+00
          2   -1    0    0  501    0  0.00000000000E+00  0.00000000000E+00  0.34837262514E+03  0.34837262515E+03  0.25500000000E-02 0. -1.
         -1   -1    0    0    0  501 -0.00000000000E+00 -0.00000000000E+00 -0.41648509995E+01  0.41648540490E+01  0.50400000000E-02 0.  1.
         24    2    1    2    0    0  0.00000000000E+00  0.35527136788E-14  0.34420777414E+03  0.35253747920E+03  0.76181903762E+02 0.  0.
         66    2    3    3    0    0  0.44967240393E+01 -0.22966484630E+02  0.31114470340E+03  0.31202997676E+03  0.19999991510E+01 0.  0.
        -13    1    3    3    0    0 -0.44967240393E+01  0.22966484630E+02  0.33063070741E+02  0.40507502443E+02  0.10566000000E+00 0.  1.
         13    1    4    4    0    0  0.46971109781E+00 -0.34486258918E+01  0.47978706400E+02  0.48104896641E+02  0.10566000000E+00 0. -1.
        -13    1    4    4    0    0  0.41346548857E+01 -0.18440214961E+02  0.25141970814E+03  0.25212897038E+03  0.10566000000E+00 0.  1.
        -14    1    4    4    0    0 -0.10764194421E+00 -0.10776437775E+01  0.11746288863E+02  0.11796109738E+02  0.00000000000E+00 0.  1.
<mgrwt>
<rscale>  0 0.76181904E+02</rscale>
<asrwt>0</asrwt>
<pdfrwt beam="1">  1        2 0.53595774E-01 0.76181904E+02</pdfrwt>
<pdfrwt beam="2">  1       -1 0.64074672E-03 0.76181904E+02</pdfrwt>
<totfact> 0.30567966E+05</totfact>
</mgrwt>
</event>
<event>
 8    1  0.2433467E-024  0.7762115E+02  0.7818608E-02  0.1335941E+00
         -1   -1    0    0    0  501 -0.00000000000E+00  0.00000000000E+00  0.41083754807E+01  0.41083785722E+01  0.50400000000E-02 0.  1.
          2   -1    0    0  501    0  0.00000000000E+00 -0.00000000000E+00 -0.36663153046E+03  0.36663153047E+03  0.25500000000E-02 0. -1.
         24    2    1    2    0    0  0.88817841970E-15 -0.71054273576E-14 -0.36252315498E+03  0.37073990904E+03  0.77621145699E+02 0.  0.
         66    2    3    3    0    0 -0.42669710547E+01  0.37555743864E+02 -0.22291449621E+03  0.22610509405E+03  0.19999992541E+01 0.  0.
        -13    1    3    3    0    0  0.42669710547E+01 -0.37555743864E+02 -0.13960865877E+03  0.14463481499E+03  0.10566000000E+00 0.  1.
         13    1    4    4    0    0 -0.27838805827E+01  0.22874291105E+02 -0.13733536231E+03  0.13925514744E+03  0.10566000000E+00 0. -1.
        -13    1    4    4    0    0  0.37003422844E-01  0.42232775372E+01 -0.25910851518E+02  0.26253015690E+02  0.10566000000E+00 0.  1.
        -14    1    4    4    0    0 -0.15200938949E+01  0.10458175222E+02 -0.59668282386E+02  0.60596930924E+02  0.00000000000E+00 0.  1.
<mgrwt>
<rscale>  0 0.77621146E+02</rscale>
<asrwt>0</asrwt>
<pdfrwt beam="1">  1        2 0.56404825E-01 0.77621146E+02</pdfrwt>
<pdfrwt beam="2">  1       -1 0.63205829E-03 0.77621146E+02</pdfrwt>
<totfact> 0.29645207E+05</totfact>
</mgrwt>
</event>
<event>
 8    1  0.2433467E-024  0.7993588E+02  0.7818608E-02  0.1329233E+00
          2   -1    0    0  501    0  0.00000000000E+00  0.00000000000E+00  0.24674312075E+03  0.24674312076E+03  0.25500000000E-02 0. -1.
         -1   -1    0    0    0  501 -0.00000000000E+00 -0.00000000000E+00 -0.64740852079E+01  0.64740871697E+01  0.50400000000E-02 0.  1.
         24    2    1    2    0    0  0.17763568394E-14  0.00000000000E+00  0.24026903554E+03  0.25321720793E+03  0.79935880260E+02 0.  0.
         66    2    3    3    0    0  0.12965485229E+02  0.35421645194E+02  0.16183077782E+03  0.16618061681E+03  0.19999996275E+01 0.  0.
        -13    1    3    3    0    0 -0.12965485229E+02 -0.35421645194E+02  0.78438257718E+02  0.87036591118E+02  0.10566000000E+00 0.  1.
         13    1    4    4    0    0  0.49727559982E+01  0.14192208028E+02  0.64289378786E+02  0.66024862436E+02  0.10566000000E+00 0. -1.
        -13    1    4    4    0    0  0.22746208931E+01  0.72732707675E+01  0.30325347634E+02  0.31268390445E+02  0.10566000000E+00 0.  1.
         14    1    4    4    0    0  0.57181083378E+01  0.13956166399E+02  0.67216051403E+02  0.68887363934E+02  0.00000000000E+00 0. -1.
<mgrwt>
<rscale>  0 0.79935880E+02</rscale>
<asrwt>0</asrwt>
<pdfrwt beam="1">  1        2 0.37960480E-01 0.79935880E+02</pdfrwt>
<pdfrwt beam="2">  1       -1 0.99601326E-03 0.79935880E+02</pdfrwt>
<totfact> 0.23806725E+05</totfact>
</mgrwt>
</event>
<event>
 8    1  0.2433467E-024  0.7791808E+02  0.7818608E-02  0.1335066E+00
          2   -1    0    0  501    0  0.00000000000E+00  0.00000000000E+00  0.55411858377E+02  0.55411858436E+02  0.25500000000E-02 0. -1.
         -1   -1    0    0    0  501 -0.00000000000E+00 -0.00000000000E+00 -0.27391373434E+02  0.27391373897E+02  0.50400000000E-02 0.  1.
         24    2    1    2    0    0  0.00000000000E+00  0.00000000000E+00  0.28020484943E+02  0.82803232333E+02  0.77918083321E+02 0.  0.
         66    2    3    3    0    0 -0.14501291313E+02  0.26465456869E+02  0.40160345315E+02  0.50274856553E+02  0.20000021357E+01 0.  0.
        -13    1    3    3    0    0  0.14501291313E+02 -0.26465456869E+02 -0.12139860372E+02  0.32528375781E+02  0.10566000000E+00 0.  1.
         13    1    4    4    0    0 -0.10952001076E+02  0.20665254711E+02  0.30924455911E+02  0.38772828338E+02  0.10566000000E+00 0. -1.
        -13    1    4    4    0    0 -0.10128079391E+01  0.21036748443E+01  0.37312277013E+01  0.44027777557E+01  0.10566000000E+00 0.  1.
        -14    1    4    4    0    0 -0.25364822978E+01  0.36965273141E+01  0.55046617020E+01  0.70992504593E+01  0.00000000000E+00 0.  1.
<mgrwt>
<rscale>  0 0.77918083E+02</rscale>
<asrwt>0</asrwt>
<pdfrwt beam="1">  1        2 0.85249014E-02 0.77918083E+02</pdfrwt>
<pdfrwt beam="2">  1       -1 0.42140575E-02 0.77918083E+02</pdfrwt>
<totfact> 0.16424874E+05</totfact>
</mgrwt>
</event>
<event>
 8    1  0.2433467E-024  0.7896689E+02  0.7818608E-02  0.1332009E+00
          2   -1    0    0  501    0  0.00000000000E+00  0.00000000000E+00  0.36577422340E+02  0.36577422428E+02  0.25500000000E-02 0. -1.
         -1   -1    0    0    0  501 -0.00000000000E+00 -0.00000000000E+00 -0.42620348327E+02  0.42620348625E+02  0.50400000000E-02 0.  1.
         24    2    1    2    0    0  0.00000000000E+00  0.35527136788E-14 -0.60429259877E+01  0.79197771054E+02  0.78966891704E+02 0.  0.
         66    2    3    3    0    0  0.24554567493E+02 -0.11830132352E+02  0.25591738420E+02  0.37440831840E+02  0.19999993135E+01 0.  0.
        -13    1    3    3    0    0 -0.24554567493E+02  0.11830132352E+02 -0.31634664408E+02  0.41756939214E+02  0.10566000000E+00 0.  1.
         13    1    4    4    0    0  0.54365861372E+01 -0.22151972777E+01  0.57991029490E+01  0.82525345716E+01  0.10566000000E+00 0. -1.
        -13    1    4    4    0    0  0.78906780553E+01 -0.38450156060E+01  0.91165246631E+01  0.12655794371E+02  0.10566000000E+00 0.  1.
         14    1    4    4    0    0  0.11227303301E+02 -0.57699194686E+01  0.10676110808E+02  0.16532502898E+02  0.00000000000E+00 0. -1.
<mgrwt>
<rscale>  0 0.78966892E+02</rscale>
<asrwt>0</asrwt>
<pdfrwt beam="1">  1        2 0.56272957E-02 0.78966892E+02</pdfrwt>
<pdfrwt beam="2">  1       -1 0.65569768E-02 0.78966892E+02</pdfrwt>
<totfact> 0.14511448E+05</totfact>
</mgrwt>
</event>
<event>
 8    1  0.2433467E-024  0.7966898E+02  0.7818608E-02  0.1329993E+00
         -1   -1    0    0    0  501 -0.00000000000E+00  0.00000000000E+00  0.14512300254E+02  0.14512301129E+02  0.50400000000E-02 0.  1.
          2   -1    0    0  501    0  0.00000000000E+00 -0.00000000000E+00 -0.10934080474E+03  0.10934080477E+03  0.25500000000E-02 0. -1.
         24    2    1    2    0    0  0.00000000000E+00 -0.35527136788E-14 -0.94828504486E+02  0.12385310590E+03  0.79668981277E+02 0.  0.
         66    2    3    3    0    0  0.96280437253E+01  0.17557166062E+02 -0.10093274575E+03  0.10291925218E+03  0.19999992984E+01 0.  0.
        -13    1    3    3    0    0 -0.96280437253E+01 -0.17557166062E+02  0.61042412690E+01  0.20933853721E+02  0.10566000000E+00 0.  1.
         13    1    4    4    0    0  0.57487724987E+01  0.11542128574E+02 -0.61804203483E+02  0.63135092060E+02  0.10566000000E+00 0. -1.
        -13    1    4    4    0    0  0.24470129983E+01  0.36240909438E+01 -0.22046299673E+02  0.22476040601E+02  0.10566000000E+00 0.  1.
         14    1    4    4    0    0  0.14322582283E+01  0.23909465445E+01 -0.17082242599E+02  0.17308119518E+02  0.00000000000E+00 0. -1.
<mgrwt>
<rscale>  0 0.79668981E+02</rscale>
<asrwt>0</asrwt>
<pdfrwt beam="1">  1        2 0.16821662E-01 0.79668981E+02</pdfrwt>
<pdfrwt beam="2">  1       -1 0.22326617E-02 0.79668981E+02</pdfrwt>
<totfact> 0.18384674E+05</totfact>
</mgrwt>
</event>
<event>
 8    1  0.2433467E-024  0.7877978E+02  0.7818608E-02  0.1332550E+00
         -1   -1    0    0    0  501 -0.00000000000E+00  0.00000000000E+00  0.29011040608E+02  0.29011041045E+02  0.50400000000E-02 0.  1.
          2   -1    0    0  501    0  0.00000000000E+00 -0.00000000000E+00 -0.53481823326E+02  0.53481823387E+02  0.25500000000E-02 0. -1.
         24    2    1    2    0    0  0.00000000000E+00  0.71054273576E-14 -0.24470782718E+02  0.82492864432E+02  0.78779778340E+02 0.  0.
         66    2    3    3    0    0  0.10990416105E+01  0.39182004246E+02 -0.16036285257E+02  0.42398110902E+02  0.20000035081E+01 0.  0.
        -13    1    3    3    0    0 -0.10990416105E+01 -0.39182004246E+02 -0.84344974617E+01  0.40094753530E+02  0.10566000000E+00 0.  1.
         13    1    4    4    0    0  0.17279774566E+00  0.65892610314E+01 -0.30758445544E+01  0.72746273966E+01  0.10566000000E+00 0. -1.
        -13    1    4    4    0    0 -0.32236962409E+00  0.23826686257E+01 -0.84776879780E+00  0.25516480801E+01  0.10566000000E+00 0.  1.
         14    1    4    4    0    0  0.12486134889E+01  0.30210074589E+02 -0.12112671905E+02  0.32571835425E+02  0.00000000000E+00 0. -1.
<mgrwt>
<rscale>  0 0.78779778E+02</rscale>
<asrwt>0</asrwt>
<pdfrwt beam="1">  1        2 0.82279728E-02 0.78779778E+02</pdfrwt>
<pdfrwt beam="2">  1       -1 0.44632371E-02 0.78779778E+02</pdfrwt>
<totfact> 0.15815663E+05</totfact>
</mgrwt>
</event>
<event>
 8    1  0.2433467E-024  0.7948118E+02  0.7818608E-02  0.1330530E+00
          2   -1    0    0  501    0  0.00000000000E+00  0.00000000000E+00  0.16504146359E+03  0.16504146361E+03  0.25500000000E-02 0. -1.
         -1   -1    0    0    0  501 -0.00000000000E+00 -0.00000000000E+00 -0.95691984870E+01  0.95691998143E+01  0.50400000000E-02 0.  1.
         24    2    1    2    0    0 -0.35527136788E-14 -0.35527136788E-14  0.15547226510E+03  0.17461066342E+03  0.79481183716E+02 0.  0.
         66    2    3    3    0    0  0.28919360667E+02  0.26743242539E+02  0.88939497214E+02  0.97292161046E+02  0.19999983635E+01 0.  0.
        -13    1    3    3    0    0 -0.28919360667E+02 -0.26743242539E+02  0.66532767884E+02  0.77318502373E+02  0.10566000000E+00 0.  1.
         13    1    4    4    0    0  0.80012227037E+01  0.76189406168E+01  0.24161627751E+02  0.26568086881E+02  0.10566000000E+00 0. -1.
        -13    1    4    4    0    0  0.73051552831E+01  0.69054270512E+01  0.21207819522E+02  0.23469831473E+02  0.10566000000E+00 0.  1.
         14    1    4    4    0    0  0.13612982680E+02  0.12218874871E+02  0.43570049941E+02  0.47254242693E+02  0.00000000000E+00 0. -1.
<mgrwt>
<rscale>  0 0.79481184E+02</rscale>
<asrwt>0</asrwt>
<pdfrwt beam="1">  1        2 0.25390995E-01 0.79481184E+02</pdfrwt>
<pdfrwt beam="2">  1       -1 0.14721844E-02 0.79481184E+02</pdfrwt>
<totfact> 0.21024127E+05</totfact>
</mgrwt>
</event>
<event>
 8    1  0.2433467E-024  0.7832702E+02  0.7818608E-02  0.1333867E+00
          2   -1    0    0  501    0  0.00000000000E+00  0.00000000000E+00  0.11727392245E+02  0.11727392522E+02  0.25500000000E-02 0. -1.
         -1   -1    0    0    0  501 -0.00000000000E+00 -0.00000000000E+00 -0.13078613673E+03  0.13078613683E+03  0.50400000000E-02 0.  1.
         24    2    1    2    0    0  0.00000000000E+00 -0.35527136788E-14 -0.11905874449E+03  0.14251352935E+03  0.78327015831E+02 0.  0.
         66    2    3    3    0    0  0.23853159794E+02 -0.27464843737E+02 -0.33296782801E+02  0.49355512466E+02  0.19999980578E+01 0.  0.
        -13    1    3    3    0    0 -0.23853159794E+02  0.27464843737E+02 -0.85761961685E+02  0.93158016884E+02  0.10566000000E+00 0.  1.
         13    1    4    4    0    0  0.41153773223E+01 -0.43785815540E+01 -0.63609585237E+01  0.87510721804E+01  0.10566000000E+00 0.  1.
        -13    1    4    4    0    0  0.11528256161E+02 -0.13769525290E+02 -0.16371402479E+02  0.24300915620E+02  0.10566000000E+00 0. -1.
         14    1    4    4    0    0  0.82095263103E+01 -0.93167368925E+01 -0.10564421799E+02  0.16303524665E+02  0.00000000000E+00 0. -1.
<mgrwt>
<rscale>  0 0.78327016E+02</rscale>
<asrwt>0</asrwt>
<pdfrwt beam="1">  1        2 0.18042143E-02 0.78327016E+02</pdfrwt>
<pdfrwt beam="2">  1       -1 0.20120943E-01 0.78327016E+02</pdfrwt>
<totfact> 0.11767218E+05</totfact>
</mgrwt>
</event>
<event>
 8    1  0.2433467E-024  0.8020139E+02  0.7818608E-02  0.1328481E+00
          2   -1    0    0  501    0  0.00000000000E+00  0.00000000000E+00  0.88288541306E+02  0.88288541343E+02  0.25500000000E-02 0. -1.
         -1   -1    0    0    0  501 -0.00000000000E+00 -0.00000000000E+00 -0.18213754149E+02  0.18213754847E+02  0.50400000000E-02 0.  1.
         24    2    1    2    0    0  0.00000000000E+00  0.71054273576E-14  0.70074787157E+02  0.10650229619E+03  0.80201392124E+02 0.  0.
         66    2    3    3    0    0 -0.95972625811E+01 -0.36788375714E+02  0.51886159515E+02  0.64355773483E+02  0.19999986645E+01 0.  0.
        -13    1    3    3    0    0  0.95972625811E+01  0.36788375714E+02  0.18188627642E+02  0.42146522707E+02  0.10566000000E+00 0.  1.
         13    1    4    4    0    0 -0.20561861306E+01 -0.87025457877E+01  0.13335548664E+02  0.16056469936E+02  0.10566000000E+00 0.  1.
        -13    1    4    4    0    0 -0.25850883734E+01 -0.87748222778E+01  0.11473572410E+02  0.14674270537E+02  0.10566000000E+00 0. -1.
         14    1    4    4    0    0 -0.49559880771E+01 -0.19311007649E+02  0.27077038440E+02  0.33625033010E+02  0.00000000000E+00 0. -1.
<mgrwt>
<rscale>  0 0.80201392E+02</rscale>
<asrwt>0</asrwt>
<pdfrwt beam="1">  1        2 0.13582853E-01 0.80201392E+02</pdfrwt>
<pdfrwt beam="2">  1       -1 0.28021161E-02 0.80201392E+02</pdfrwt>
<totfact> 0.17016940E+05</totfact>
</mgrwt>
</event>
<event>
 8    1  0.2433467E-024  0.7941807E+02  0.7818608E-02  0.1330711E+00
          2   -1    0    0  501    0  0.00000000000E+00  0.00000000000E+00  0.94580509892E+03  0.94580509893E+03  0.25500000000E-02 0. -1.
         -1   -1    0    0    0  501 -0.00000000000E+00 -0.00000000000E+00 -0.16671550944E+01  0.16671627127E+01  0.50400000000E-02 0.  1.
         24    2    1    2    0    0  0.00000000000E+00  0.00000000000E+00  0.94413794383E+03  0.94747226164E+03  0.79418068465E+02 0.  0.
         66    2    3    3    0    0  0.21056745812E+02  0.22120952284E+02  0.77466988316E+03  0.77527424241E+03  0.20000004726E+01 0.  0.
        -13    1    3    3    0    0 -0.21056745812E+02 -0.22120952284E+02  0.16946806067E+03  0.17219801923E+03  0.10566000000E+00 0.  1.
         13    1    4    4    0    0  0.15679860184E+01  0.14347944794E+01  0.53045006790E+02  0.53087673943E+02  0.10566000000E+00 0. -1.
        -13    1    4    4    0    0  0.16870358775E+02  0.17413836338E+02  0.60081775994E+03  0.60130677904E+03  0.10566000000E+00 0.  1.
        -14    1    4    4    0    0  0.26184010181E+01  0.32723214667E+01  0.12080711643E+03  0.12087978943E+03  0.00000000000E+00 0.  1.
<mgrwt>
<rscale>  0 0.79418068E+02</rscale>
<asrwt>0</asrwt>
<pdfrwt beam="1">  1        2 0.14550911E+00 0.79418068E+02</pdfrwt>
<pdfrwt beam="2">  1       -1 0.25648487E-03 0.79418068E+02</pdfrwt>
<totfact> 0.35783362E+05</totfact>
</mgrwt>
</event>
<event>
 8    1  0.2433467E-024  0.7871156E+02  0.7818608E-02  0.1332748E+00
         -1   -1    0    0    0  501 -0.00000000000E+00  0.00000000000E+00  0.52381810496E+01  0.52381834743E+01  0.50400000000E-02 0.  1.
          2   -1    0    0  501    0  0.00000000000E+00 -0.00000000000E+00 -0.29568984931E+03  0.29568984933E+03  0.25500000000E-02 0. -1.
         24    2    1    2    0    0  0.00000000000E+00  0.00000000000E+00 -0.29045166826E+03  0.30092803280E+03  0.78711557772E+02 0.  0.
         66    2    3    3    0    0 -0.41090475506E+01 -0.12399252978E+02 -0.28715069706E+03  0.28745460261E+03  0.19999978315E+01 0.  0.
        -13    1    3    3    0    0  0.41090475506E+01  0.12399252978E+02 -0.33009712023E+01  0.13473430191E+02  0.10566000000E+00 0.  1.
         13    1    4    4    0    0 -0.21146496008E+01 -0.40031742410E+01 -0.96573834688E+02  0.96679955819E+02  0.10566000000E+00 0. -1.
        -13    1    4    4    0    0 -0.35596429568E+00 -0.32290987923E+01 -0.76733881524E+02  0.76802692189E+02  0.10566000000E+00 0.  1.
         14    1    4    4    0    0 -0.16384336541E+01 -0.51669799451E+01 -0.11384298085E+03  0.11397195460E+03  0.00000000000E+00 0. -1.
<mgrwt>
<rscale>  0 0.78711558E+02</rscale>
<asrwt>0</asrwt>
<pdfrwt beam="1">  1        2 0.45490733E-01 0.78711558E+02</pdfrwt>
<pdfrwt beam="2">  1       -1 0.80587443E-03 0.78711558E+02</pdfrwt>
<totfact> 0.26463459E+05</totfact>
</mgrwt>
</event>
<event>
 8    1  0.2433467E-024  0.8861492E+02  0.7818608E-02  0.1306241E+00
         -1   -1    0    0    0  501 -0.00000000000E+00  0.00000000000E+00  0.22231514588E+02  0.22231515159E+02  0.50400000000E-02 0.  1.
          2   -1    0    0  501    0  0.00000000000E+00 -0.00000000000E+00 -0.88304869461E+02  0.88304869498E+02  0.25500000000E-02 0. -1.
         24    2    1    2    0    0  0.00000000000E+00  0.00000000000E+00 -0.66073354873E+02  0.11053638466E+03  0.88614920352E+02 0.  0.
         66    2    3    3    0    0 -0.35837657555E+02  0.98404934581E+01 -0.63093620935E+02  0.73252836155E+02  0.19999979202E+01 0.  0.
        -13    1    3    3    0    0  0.35837657555E+02 -0.98404934581E+01 -0.29797339384E+01  0.37283548502E+02  0.10566000000E+00 0.  1.
         13    1    4    4    0    0 -0.13246023585E+02  0.40337798667E+01 -0.22057355968E+02  0.26043552698E+02  0.10566000000E+00 0. -1.
        -13    1    4    4    0    0 -0.22347739594E+02  0.57847175362E+01 -0.40732053438E+02  0.46818754397E+02  0.10566000000E+00 0.  1.
        -14    1    4    4    0    0 -0.24389437496E+00  0.21996055293E-01 -0.30421152838E+00  0.39052905985E+00  0.00000000000E+00 0.  1.
<mgrwt>
<rscale>  0 0.88614920E+02</rscale>
<asrwt>0</asrwt>
<pdfrwt beam="1">  1        2 0.13585364E-01 0.88614920E+02</pdfrwt>
<pdfrwt beam="2">  1       -1 0.34202331E-02 0.88614920E+02</pdfrwt>
<totfact> 0.12992162E+05</totfact>
</mgrwt>
</event>
<event>
 8    1  0.2433467E-024  0.8020958E+02  0.7818608E-02  0.1328458E+00
         -1   -1    0    0    0  501 -0.00000000000E+00  0.00000000000E+00  0.18534259822E+02  0.18534260507E+02  0.50400000000E-02 0.  1.
          2   -1    0    0  501    0  0.00000000000E+00 -0.00000000000E+00 -0.86779521790E+02  0.86779521827E+02  0.25500000000E-02 0. -1.
         24    2    1    2    0    0  0.00000000000E+00 -0.35527136788E-14 -0.68245261968E+02  0.10531378233E+03  0.80209581525E+02 0.  0.
         66    2    3    3    0    0  0.27946138323E+00 -0.23762204740E+02 -0.76520160753E+02  0.80150205746E+02  0.20000016771E+01 0.  0.
        -13    1    3    3    0    0 -0.27946138323E+00  0.23762204740E+02  0.82748987851E+01  0.25163576588E+02  0.10566000000E+00 0.  1.
         13    1    4    4    0    0  0.14140866112E+00 -0.10264505422E+02 -0.32068995779E+02  0.33672120847E+02  0.10566000000E+00 0. -1.
        -13    1    4    4    0    0 -0.54962435042E+00 -0.76983763346E+01 -0.24135917837E+02  0.25340102190E+02  0.10566000000E+00 0.  1.
        -14    1    4    4    0    0  0.68767707252E+00 -0.57993229836E+01 -0.20315247137E+02  0.21137982710E+02  0.00000000000E+00 0.  1.
<mgrwt>
<rscale>  0 0.80209582E+02</rscale>
<asrwt>0</asrwt>
<pdfrwt beam="1">  1        2 0.13350695E-01 0.80209582E+02</pdfrwt>
<pdfrwt beam="2">  1       -1 0.28514247E-02 0.80209582E+02</pdfrwt>
<totfact> 0.16934347E+05</totfact>
</mgrwt>
</event>
<event>
 8    1  0.2433467E-024  0.7118283E+02  0.7818608E-02  0.1356116E+00
          2   -1    0    0  501    0  0.00000000000E+00  0.00000000000E+00  0.54105579682E+02  0.54105579742E+02  0.25500000000E-02 0. -1.
         -1   -1    0    0    0  501 -0.00000000000E+00 -0.00000000000E+00 -0.23412535310E+02  0.23412535852E+02  0.50400000000E-02 0.  1.
         24    2    1    2    0    0  0.00000000000E+00  0.00000000000E+00  0.30693044372E+02  0.77518115594E+02  0.71182829899E+02 0.  0.
         66    2    3    3    0    0 -0.32264185288E+02 -0.86966255118E+01  0.28612906628E+02  0.44037567739E+02  0.19999997640E+01 0.  0.
        -13    1    3    3    0    0  0.32264185288E+02  0.86966255118E+01  0.20801377441E+01  0.33480547855E+02  0.10566000000E+00 0.  1.
         13    1    4    4    0    0 -0.11801515533E+02 -0.31684207130E+01  0.10023945443E+02  0.15805230304E+02  0.10566000000E+00 0. -1.
        -13    1    4    4    0    0 -0.13347335245E+01 -0.33899008285E+00  0.77448722221E+00  0.15834842439E+01  0.10566000000E+00 0.  1.
         14    1    4    4    0    0 -0.19127936230E+02 -0.51892147160E+01  0.17814473963E+02  0.26648853191E+02  0.00000000000E+00 0. -1.
<mgrwt>
<rscale>  0 0.71182830E+02</rscale>
<asrwt>0</asrwt>
<pdfrwt beam="1">  1        2 0.83239353E-02 0.71182830E+02</pdfrwt>
<pdfrwt beam="2">  1       -1 0.36019286E-02 0.71182830E+02</pdfrwt>
<totfact> 0.20855646E+05</totfact>
</mgrwt>
</event>
<event>
 8    1  0.2433467E-024  0.8045316E+02  0.7818608E-02  0.1327770E+00
         -1   -1    0    0    0  501 -0.00000000000E+00  0.00000000000E+00  0.92911245687E+01  0.92911259357E+01  0.50400000000E-02 0.  1.
          2   -1    0    0  501    0  0.00000000000E+00 -0.00000000000E+00 -0.17416379407E+03  0.17416379409E+03  0.25500000000E-02 0. -1.
         24    2    1    2    0    0  0.17763568394E-14  0.71054273576E-14 -0.16487266950E+03  0.18345492002E+03  0.80453157381E+02 0.  0.
         66    2    3    3    0    0  0.12702618083E+02  0.25690114513E+02 -0.14677434038E+03  0.14955950484E+03  0.20000004613E+01 0.  0.
        -13    1    3    3    0    0 -0.12702618083E+02 -0.25690114513E+02 -0.18098329115E+02  0.33895415186E+02  0.10566000000E+00 0.  1.
         13    1    4    4    0    0  0.24429785842E+01  0.38650696368E+01 -0.21612788732E+02  0.22091417077E+02  0.10566000000E+00 0. -1.
        -13    1    4    4    0    0  0.25923812870E+01  0.46225565818E+01 -0.28516173114E+02  0.29004685193E+02  0.10566000000E+00 0.  1.
         14    1    4    4    0    0  0.76672582117E+01  0.17202488294E+02 -0.96645378539E+02  0.98463402566E+02  0.00000000000E+00 0. -1.
<mgrwt>
<rscale>  0 0.80453157E+02</rscale>
<asrwt>0</asrwt>
<pdfrwt beam="1">  1        2 0.26794427E-01 0.80453157E+02</pdfrwt>
<pdfrwt beam="2">  1       -1 0.14294040E-02 0.80453157E+02</pdfrwt>
<totfact> 0.20726809E+05</totfact>
</mgrwt>
</event>
<event>
 8    1  0.2433467E-024  0.7716162E+02  0.7818608E-02  0.1337305E+00
          2   -1    0    0  501    0  0.00000000000E+00  0.00000000000E+00  0.23138925282E+02  0.23138925423E+02  0.25500000000E-02 0. -1.
         -1   -1    0    0    0  501 -0.00000000000E+00 -0.00000000000E+00 -0.64327916254E+02  0.64327916452E+02  0.50400000000E-02 0.  1.
         24    2    1    2    0    0  0.00000000000E+00 -0.71054273576E-14 -0.41188990972E+02  0.87466841875E+02  0.77161619023E+02 0.  0.
         66    2    3    3    0    0 -0.18521240134E+02  0.32860173739E+02 -0.11564935176E+02  0.39504114679E+02  0.19999991564E+01 0.  0.
        -13    1    3    3    0    0  0.18521240134E+02 -0.32860173739E+02 -0.29624055796E+02  0.47962727196E+02  0.10566000000E+00 0.  1.
         13    1    4    4    0    0 -0.46159163528E+01  0.75388365765E+01 -0.31273360625E+01  0.93772136366E+01  0.10566000000E+00 0. -1.
        -13    1    4    4    0    0 -0.51102395493E+01  0.10693962158E+02 -0.35541941328E+01  0.12374119559E+02  0.10566000000E+00 0.  1.
        -14    1    4    4    0    0 -0.87950842321E+01  0.14627375005E+02 -0.48834049810E+01  0.17752781483E+02  0.00000000000E+00 0.  1.
<mgrwt>
<rscale>  0 0.77161619E+02</rscale>
<asrwt>0</asrwt>
<pdfrwt beam="1">  1        2 0.35598347E-02 0.77161619E+02</pdfrwt>
<pdfrwt beam="2">  1       -1 0.98966025E-02 0.77161619E+02</pdfrwt>
<totfact> 0.14161975E+05</totfact>
</mgrwt>
</event>
<event>
 8    1  0.2433467E-024  0.7931706E+02  0.7818608E-02  0.1331001E+00
         -1   -1    0    0    0  501 -0.00000000000E+00  0.00000000000E+00  0.88817427479E+01  0.88817441779E+01  0.50400000000E-02 0.  1.
          2   -1    0    0  501    0  0.00000000000E+00 -0.00000000000E+00 -0.17708222540E+03  0.17708222542E+03  0.25500000000E-02 0. -1.
         24    2    1    2    0    0  0.00000000000E+00  0.44408920985E-15 -0.16820048265E+03  0.18596396960E+03  0.79317057583E+02 0.  0.
         66    2    3    3    0    0  0.15531772735E+02 -0.35950176199E+01 -0.16922714593E+03  0.16998819677E+03  0.20000014835E+01 0.  0.
        -13    1    3    3    0    0 -0.15531772735E+02  0.35950176199E+01  0.10266632741E+01  0.15975772829E+02  0.10566000000E+00 0.  1.
         13    1    4    4    0    0  0.12549135213E+02 -0.33081646152E+01 -0.14134254490E+03  0.14193713718E+03  0.10566000000E+00 0. -1.
        -13    1    4    4    0    0  0.17719498939E+00 -0.11794499795E+00 -0.18522235524E+01  0.18674060112E+01  0.10566000000E+00 0. -1.
         14    1    4    4    0    0  0.28054425326E+01 -0.16890800675E+00 -0.26032377477E+02  0.26183653580E+02  0.00000000000E+00 0. -1.
<mgrwt>
<rscale>  0 0.79317058E+02</rscale>
<asrwt>0</asrwt>
<pdfrwt beam="1">  1        2 0.27243417E-01 0.79317058E+02</pdfrwt>
<pdfrwt beam="2">  1       -1 0.13664222E-02 0.79317058E+02</pdfrwt>
<totfact> 0.21641878E+05</totfact>
</mgrwt>
</event>
<event>
 8    1  0.2433467E-024  0.8163147E+02  0.7818608E-02  0.1324484E+00
         -1   -1    0    0    0  501 -0.00000000000E+00  0.00000000000E+00  0.27432076866E+02  0.27432077329E+02  0.50400000000E-02 0.  1.
          2   -1    0    0  501    0  0.00000000000E+00 -0.00000000000E+00 -0.60729057137E+02  0.60729057191E+02  0.25500000000E-02 0. -1.
         24    2    1    2    0    0  0.00000000000E+00  0.00000000000E+00 -0.33296980271E+02  0.88161134520E+02  0.81631469083E+02 0.  0.
         66    2    3    3    0    0  0.14201807242E+01  0.22003777513E+02 -0.53721709699E+02  0.58105122237E+02  0.19999997797E+01 0.  0.
        -13    1    3    3    0    0 -0.14201807242E+01 -0.22003777513E+02  0.20424729428E+02  0.30056012283E+02  0.10566000000E+00 0.  1.
         13    1    4    4    0    0  0.11722802878E+01  0.11349564163E+02 -0.26302140315E+02  0.28670552784E+02  0.10566000000E+00 0. -1.
        -13    1    4    4    0    0  0.61791657331E+00  0.77071252777E+01 -0.19939195985E+02  0.21386077282E+02  0.10566000000E+00 0.  1.
        -14    1    4    4    0    0 -0.37001613690E+00  0.29470880720E+01 -0.74803733982E+01  0.80484921707E+01  0.00000000000E+00 0.  1.
<mgrwt>
<rscale>  0 0.81631469E+02</rscale>
<asrwt>0</asrwt>
<pdfrwt beam="1">  1        2 0.93429319E-02 0.81631469E+02</pdfrwt>
<pdfrwt beam="2">  1       -1 0.42203196E-02 0.81631469E+02</pdfrwt>
<totfact> 0.14774739E+05</totfact>
</mgrwt>
</event>
<event>
 8    1  0.2433467E-024  0.7991658E+02  0.7818608E-02  0.1329288E+00
         -1   -1    0    0    0  501 -0.00000000000E+00  0.00000000000E+00  0.35929233800E+01  0.35929269150E+01  0.50400000000E-02 0.  1.
          2   -1    0    0  501    0  0.00000000000E+00 -0.00000000000E+00 -0.44439137007E+03  0.44439137007E+03  0.25500000000E-02 0. -1.
         24    2    1    2    0    0 -0.35527136788E-14  0.00000000000E+00 -0.44079844669E+03  0.44798429699E+03  0.79916579928E+02 0.  0.
         66    2    3    3    0    0 -0.19701516412E+02 -0.28200713751E+01 -0.41460549868E+03  0.41508772816E+03  0.19999953194E+01 0.  0.
        -13    1    3    3    0    0  0.19701516412E+02  0.28200713751E+01 -0.26192948009E+02  0.32896568832E+02  0.10566000000E+00 0.  1.
         13    1    4    4    0    0 -0.90780597055E+01 -0.20168954888E+01 -0.18563500416E+03  0.18586781585E+03  0.10566000000E+00 0. -1.
        -13    1    4    4    0    0 -0.79053459354E+01 -0.85965806086E+00 -0.17637395848E+03  0.17655315885E+03  0.10566000000E+00 0.  1.
         14    1    4    4    0    0 -0.27181107708E+01  0.56482174574E-01 -0.52596536037E+02  0.52666753455E+02  0.00000000000E+00 0. -1.
<mgrwt>
<rscale>  0 0.79916580E+02</rscale>
<asrwt>0</asrwt>
<pdfrwt beam="1">  1        2 0.68367860E-01 0.79916580E+02</pdfrwt>
<pdfrwt beam="2">  1       -1 0.55275807E-03 0.79916580E+02</pdfrwt>
<totfact> 0.29374445E+05</totfact>
</mgrwt>
</event>
<event>
 8    1  0.2433467E-024  0.7987840E+02  0.7818608E-02  0.1329397E+00
         -1   -1    0    0    0  501 -0.00000000000E+00  0.00000000000E+00  0.40661488571E+02  0.40661488883E+02  0.50400000000E-02 0.  1.
          2   -1    0    0  501    0  0.00000000000E+00 -0.00000000000E+00 -0.39229742721E+02  0.39229742804E+02  0.25500000000E-02 0. -1.
         24    2    1    2    0    0  0.00000000000E+00  0.00000000000E+00  0.14317458491E+01  0.79891231687E+02  0.79878401363E+02 0.  0.
         66    2    3    3    0    0 -0.82578390105E+01  0.35508942067E+02 -0.15536148847E+02  0.39679324417E+02  0.19999983202E+01 0.  0.
        -13    1    3    3    0    0  0.82578390105E+01 -0.35508942067E+02  0.16967894696E+02  0.40211907271E+02  0.10566000000E+00 0.  1.
         13    1    4    4    0    0 -0.21136419984E+01  0.83888730280E+01 -0.40286607905E+01  0.95436861315E+01  0.10566000000E+00 0. -1.
        -13    1    4    4    0    0 -0.34545557008E+01  0.18567668207E+02 -0.77759248780E+01  0.20424701454E+02  0.10566000000E+00 0.  1.
        -14    1    4    4    0    0 -0.26896413113E+01  0.85524008327E+01 -0.37315631788E+01  0.97109368314E+01  0.00000000000E+00 0.  1.
<mgrwt>
<rscale>  0 0.79878401E+02</rscale>
<asrwt>0</asrwt>
<pdfrwt beam="1">  1        2 0.60353450E-02 0.79878401E+02</pdfrwt>
<pdfrwt beam="2">  1       -1 0.62556137E-02 0.79878401E+02</pdfrwt>
<totfact> 0.14258368E+05</totfact>
</mgrwt>
</event>
<event>
 8    1  0.2433467E-024  0.8028322E+02  0.7818608E-02  0.1328250E+00
          2   -1    0    0  501    0  0.00000000000E+00  0.00000000000E+00  0.46011518572E+03  0.46011518573E+03  0.25500000000E-02 0. -1.
         -1   -1    0    0    0  501 -0.00000000000E+00 -0.00000000000E+00 -0.35020535599E+01  0.35020571865E+01  0.50400000000E-02 0.  1.
         24    2    1    2    0    0  0.00000000000E+00  0.00000000000E+00  0.45661313216E+03  0.46361724291E+03  0.80283220325E+02 0.  0.
         66    2    3    3    0    0 -0.20556142008E+02 -0.17878939171E+02  0.39849820235E+03  0.39943338457E+03  0.19999996554E+01 0.  0.
        -13    1    3    3    0    0  0.20556142008E+02  0.17878939171E+02  0.58114929814E+02  0.64183858341E+02  0.10566000000E+00 0.  1.
         13    1    4    4    0    0 -0.40475279156E+01 -0.38332216681E+01  0.89875617946E+02  0.90048397741E+02  0.10566000000E+00 0. -1.
        -13    1    4    4    0    0 -0.18406161216E+01 -0.12054862622E+01  0.28668963385E+02  0.28753463973E+02  0.10566000000E+00 0.  1.
         14    1    4    4    0    0 -0.14667997970E+02 -0.12840231240E+02  0.27995362101E+03  0.28063152286E+03  0.00000000000E+00 0. -1.
<mgrwt>
<rscale>  0 0.80283220E+02</rscale>
<asrwt>0</asrwt>
<pdfrwt beam="1">  1        2 0.70786955E-01 0.80283220E+02</pdfrwt>
<pdfrwt beam="2">  1       -1 0.53877773E-03 0.80283220E+02</pdfrwt>
<totfact> 0.29365771E+05</totfact>
</mgrwt>
</event>
<event>
 8    1  0.2433467E-024  0.7775847E+02  0.7818608E-02  0.1335536E+00
         -1   -1    0    0    0  501 -0.00000000000E+00  0.00000000000E+00  0.10278550361E+03  0.10278550373E+03  0.50400000000E-02 0.  1.
          2   -1    0    0  501    0  0.00000000000E+00 -0.00000000000E+00 -0.14706303233E+02  0.14706303454E+02  0.25500000000E-02 0. -1.
         24    2    1    2    0    0  0.00000000000E+00  0.00000000000E+00  0.88079200373E+02  0.11749180718E+03  0.77758467173E+02 0.  0.
         66    2    3    3    0    0 -0.20749374165E+02 -0.19018818453E+02  0.35997182252E+01  0.28446616120E+02  0.20000034564E+01 0.  0.
        -13    1    3    3    0    0  0.20749374165E+02  0.19018818453E+02  0.84479482147E+02  0.89045191063E+02  0.10566000000E+00 0.  1.
         13    1    4    4    0    0 -0.41586462853E+01 -0.45544679750E+01  0.84515939639E+00  0.62259919613E+01  0.10566000000E+00 0. -1.
        -13    1    4    4    0    0 -0.10513163994E+02 -0.95210998833E+01  0.23378497480E+01  0.14375488361E+02  0.10566000000E+00 0.  1.
        -14    1    4    4    0    0 -0.60775638862E+01 -0.49432505943E+01  0.41670908083E+00  0.78451357978E+01  0.00000000000E+00 0.  1.
<mgrwt>
<rscale>  0 0.77758467E+02</rscale>
<asrwt>0</asrwt>
<pdfrwt beam="1">  1        2 0.22625082E-02 0.77758467E+02</pdfrwt>
<pdfrwt beam="2">  1       -1 0.15813154E-01 0.77758467E+02</pdfrwt>
<totfact> 0.12649104E+05</totfact>
</mgrwt>
</event>
<event>
 8    1  0.2433467E-024  0.8043003E+02  0.7818608E-02  0.1327835E+00
          2   -1    0    0  501    0  0.00000000000E+00  0.00000000000E+00  0.39637758308E+02  0.39637758390E+02  0.25500000000E-02 0. -1.
         -1   -1    0    0    0  501 -0.00000000000E+00 -0.00000000000E+00 -0.40800681236E+02  0.40800681547E+02  0.50400000000E-02 0.  1.
         24    2    1    2    0    0  0.17763568394E-14  0.71054273576E-14 -0.11629229280E+01  0.80438439936E+02  0.80430033132E+02 0.  0.
         66    2    3    3    0    0 -0.94433947168E+01 -0.37264620473E+02  0.11141732109E+02  0.40074528551E+02  0.20000003555E+01 0.  0.
        -13    1    3    3    0    0  0.94433947168E+01  0.37264620473E+02 -0.12304655037E+02  0.40363911386E+02  0.10566000000E+00 0.  1.
         13    1    4    4    0    0 -0.46811376972E+01 -0.18444237982E+02  0.60545032259E+01  0.19969254824E+02  0.10566000000E+00 0.  1.
        -13    1    4    4    0    0 -0.23645083426E+01 -0.71847374062E+01  0.22295915363E+01  0.78862915082E+01  0.10566000000E+00 0. -1.
        -14    1    4    4    0    0 -0.23977486770E+01 -0.11635645084E+02  0.28576373465E+01  0.12218982218E+02  0.00000000000E+00 0.  1.
<mgrwt>
<rscale>  0 0.80430033E+02</rscale>
<asrwt>0</asrwt>
<pdfrwt beam="1">  1        2 0.60981167E-02 0.80430033E+02</pdfrwt>
<pdfrwt beam="2">  1       -1 0.62770279E-02 0.80430033E+02</pdfrwt>
<totfact> 0.14019134E+05</totfact>
</mgrwt>
</event>
<event>
 8    1  0.2433467E-024  0.7684066E+02  0.7818608E-02  0.1338264E+00
          2   -1    0    0  501    0  0.00000000000E+00  0.00000000000E+00  0.69115782248E+02  0.69115782295E+02  0.25500000000E-02 0. -1.
         -1   -1    0    0    0  501 -0.00000000000E+00 -0.00000000000E+00 -0.21357228622E+02  0.21357229217E+02  0.50400000000E-02 0.  1.
         24    2    1    2    0    0  0.35527136788E-14 -0.17763568394E-14  0.47758553626E+02  0.90473011512E+02  0.76840655695E+02 0.  0.
         66    2    3    3    0    0  0.22955201853E+02 -0.92306171572E+01  0.58463415105E+02  0.63514695382E+02  0.20000096432E+01 0.  0.
        -13    1    3    3    0    0 -0.22955201853E+02  0.92306171572E+01 -0.10704861479E+02  0.26958316130E+02  0.10566000000E+00 0.  1.
         13    1    4    4    0    0  0.11221398024E+02 -0.42103450704E+01  0.26322688136E+02  0.28923033278E+02  0.10566000000E+00 0. -1.
        -13    1    4    4    0    0  0.38011885184E+01 -0.13622549974E+01  0.10934213866E+02  0.11656456140E+02  0.10566000000E+00 0.  1.
         14    1    4    4    0    0  0.79326153108E+01 -0.36580170894E+01  0.21206513102E+02  0.22935205965E+02  0.00000000000E+00 0. -1.
<mgrwt>
<rscale>  0 0.76840656E+02</rscale>
<asrwt>0</asrwt>
<pdfrwt beam="1">  1        2 0.10633197E-01 0.76840656E+02</pdfrwt>
<pdfrwt beam="2">  1       -1 0.32857275E-02 0.76840656E+02</pdfrwt>
<totfact> 0.17947195E+05</totfact>
</mgrwt>
</event>
<event>
 8    1  0.2433467E-024  0.8004544E+02  0.7818608E-02  0.1328923E+00
         -1   -1    0    0    0  501 -0.00000000000E+00  0.00000000000E+00  0.14376366202E+01  0.14376454547E+01  0.50400000000E-02 0.  1.
          2   -1    0    0  501    0  0.00000000000E+00 -0.00000000000E+00 -0.11141990519E+04  0.11141990519E+04  0.25500000000E-02 0. -1.
         24    2    1    2    0    0  0.00000000000E+00 -0.88817841970E-15 -0.11127614153E+04  0.11156366974E+04  0.80045444314E+02 0.  0.
         66    2    3    3    0    0  0.16720014513E+02  0.78552574083E+01 -0.10511758511E+04  0.10513400658E+04  0.20000004360E+01 0.  0.
        -13    1    3    3    0    0 -0.16720014513E+02 -0.78552574083E+01 -0.61585564190E+02  0.64296631599E+02  0.10566000000E+00 0.  1.
         13    1    4    4    0    0  0.59377417208E+01  0.21460733879E+01 -0.39234113386E+03  0.39239194550E+03  0.10566000000E+00 0. -1.
        -13    1    4    4    0    0  0.10810683876E+01  0.75244227732E+00 -0.79534123225E+02  0.79545099155E+02  0.10566000000E+00 0.  1.
        -14    1    4    4    0    0  0.97012044047E+01  0.49567417431E+01 -0.57930059401E+03  0.57940302111E+03  0.00000000000E+00 0.  1.
<mgrwt>
<rscale>  0 0.80045444E+02</rscale>
<asrwt>0</asrwt>
<pdfrwt beam="1">  1        2 0.17141455E+00 0.80045444E+02</pdfrwt>
<pdfrwt beam="2">  1       -1 0.22117644E-03 0.80045444E+02</pdfrwt>
<totfact> 0.35183262E+05</totfact>
</mgrwt>
</event>
<event>
 8    1  0.2433467E-024  0.7910619E+02  0.7818608E-02  0.1331607E+00
          2   -1    0    0  501    0  0.00000000000E+00  0.00000000000E+00  0.16814200492E+03  0.16814200494E+03  0.25500000000E-02 0. -1.
         -1   -1    0    0    0  501 -0.00000000000E+00 -0.00000000000E+00 -0.93043213811E+01  0.93043227461E+01  0.50400000000E-02 0.  1.
         24    2    1    2    0    0  0.00000000000E+00 -0.44408920985E-15  0.15883768354E+03  0.17744632769E+03  0.79106191270E+02 0.  0.
         66    2    3    3    0    0 -0.39130412624E+02 -0.23840219808E+01  0.90812235268E+02  0.98932981499E+02  0.20000002634E+01 0.  0.
        -13    1    3    3    0    0  0.39130412624E+02  0.23840219808E+01  0.68025448276E+02  0.78513346191E+02  0.10566000000E+00 0.  1.
         13    1    4    4    0    0 -0.24220197020E+02 -0.17220696368E+01  0.57943365625E+02  0.62825379040E+02  0.10566000000E+00 0. -1.
        -13    1    4    4    0    0 -0.52769475597E+01 -0.26104309612E-01  0.12378146737E+02  0.13456468247E+02  0.10566000000E+00 0. -1.
         14    1    4    4    0    0 -0.96332680440E+01 -0.63584803432E+00  0.20490722906E+02  0.22651134213E+02  0.00000000000E+00 0. -1.
<mgrwt>
<rscale>  0 0.79106191E+02</rscale>
<asrwt>0</asrwt>
<pdfrwt beam="1">  1        2 0.25868000E-01 0.79106191E+02</pdfrwt>
<pdfrwt beam="2">  1       -1 0.14314342E-02 0.79106191E+02</pdfrwt>
<totfact> 0.21420484E+05</totfact>
</mgrwt>
</event>
<event>
 8    1  0.2433467E-024  0.7828805E+02  0.7818608E-02  0.1333981E+00
         -1   -1    0    0    0  501 -0.00000000000E+00  0.00000000000E+00  0.24204388555E+02  0.24204389080E+02  0.50400000000E-02 0.  1.
          2   -1    0    0  501    0  0.00000000000E+00 -0.00000000000E+00 -0.63304828021E+02  0.63304828072E+02  0.25500000000E-02 0. -1.
         24    2    1    2    0    0  0.17763568394E-14 -0.35527136788E-14 -0.39100439466E+02  0.87509217152E+02  0.78288049663E+02 0.  0.
         66    2    3    3    0    0 -0.11415114927E+02  0.31234285581E+02 -0.42589433537E+02  0.54071668075E+02  0.19999987099E+01 0.  0.
        -13    1    3    3    0    0  0.11415114927E+02 -0.31234285581E+02  0.34889940713E+01  0.33437549076E+02  0.10566000000E+00 0.  1.
         13    1    4    4    0    0 -0.66081559676E+01  0.17315915852E+02 -0.22942708227E+02  0.29493858546E+02  0.10566000000E+00 0. -1.
        -13    1    4    4    0    0 -0.23185241862E+01  0.83832318133E+01 -0.11579101964E+02  0.14482434062E+02  0.10566000000E+00 0.  1.
         14    1    4    4    0    0 -0.24884347730E+01  0.55351379157E+01 -0.80676233465E+01  0.10095375467E+02  0.00000000000E+00 0. -1.
<mgrwt>
<rscale>  0 0.78288050E+02</rscale>
<asrwt>0</asrwt>
<pdfrwt beam="1">  1        2 0.97392042E-02 0.78288050E+02</pdfrwt>
<pdfrwt beam="2">  1       -1 0.37237522E-02 0.78288050E+02</pdfrwt>
<totfact> 0.16714277E+05</totfact>
</mgrwt>
</event>
<event>
 8    1  0.2433467E-024  0.7930947E+02  0.7818608E-02  0.1331023E+00
          2   -1    0    0  501    0  0.00000000000E+00  0.00000000000E+00  0.19969048850E+03  0.19969048852E+03  0.25500000000E-02 0. -1.
         -1   -1    0    0    0  501 -0.00000000000E+00 -0.00000000000E+00 -0.78746758244E+01  0.78746774373E+01  0.50400000000E-02 0.  1.
         24    2    1    2    0    0  0.88817841970E-15  0.00000000000E+00  0.19181581268E+03  0.20756516595E+03  0.79309470588E+02 0.  0.
         66    2    3    3    0    0 -0.78575661626E+01  0.26202463532E+02  0.17101231154E+03  0.17319792480E+03  0.20000037485E+01 0.  0.
        -13    1    3    3    0    0  0.78575661626E+01 -0.26202463532E+02  0.20803501137E+02  0.34367241157E+02  0.10566000000E+00 0.  1.
         13    1    4    4    0    0 -0.18888564422E+01  0.47029009777E+01  0.30882053905E+02  0.31295326707E+02  0.10566000000E+00 0. -1.
        -13    1    4    4    0    0 -0.19415964916E+01  0.57192134638E+01  0.41304536149E+02  0.41743922553E+02  0.10566000000E+00 0.  1.
         14    1    4    4    0    0 -0.40271132288E+01  0.15780349090E+02  0.98825721484E+02  0.10015867554E+03  0.00000000000E+00 0. -1.
<mgrwt>
<rscale>  0 0.79309471E+02</rscale>
<asrwt>0</asrwt>
<pdfrwt beam="1">  1        2 0.30721612E-01 0.79309471E+02</pdfrwt>
<pdfrwt beam="2">  1       -1 0.12114888E-02 0.79309471E+02</pdfrwt>
<totfact> 0.22556610E+05</totfact>
</mgrwt>
</event>
<event>
 8    1  0.2433467E-024  0.8053533E+02  0.7818608E-02  0.1327539E+00
          2   -1    0    0  501    0  0.00000000000E+00  0.00000000000E+00  0.98054933485E+03  0.98054933485E+03  0.25500000000E-02 0. -1.
         -1   -1    0    0    0  501 -0.00000000000E+00 -0.00000000000E+00 -0.16536454931E+01  0.16536531736E+01  0.50400000000E-02 0.  1.
         24    2    1    2    0    0  0.35527136788E-14  0.35527136788E-14  0.97889568935E+03  0.98220298802E+03  0.80535327947E+02 0.  0.
         66    2    3    3    0    0 -0.19165427083E+02 -0.25507146398E+02  0.78887287618E+03  0.78952032455E+03  0.19999983746E+01 0.  0.
        -13    1    3    3    0    0  0.19165427083E+02  0.25507146398E+02  0.19002281318E+03  0.19268266348E+03  0.10566000000E+00 0.  1.
         13    1    4    4    0    0 -0.11731152512E+02 -0.16489284543E+02  0.50098555018E+03  0.50139410557E+03  0.10566000000E+00 0. -1.
        -13    1    4    4    0    0 -0.60396658342E+01 -0.66956936032E+01  0.21817949743E+03  0.21836578061E+03  0.10566000000E+00 0.  1.
         14    1    4    4    0    0 -0.13946087369E+01 -0.23221682519E+01  0.69707828563E+02  0.69760438372E+02  0.00000000000E+00 0. -1.
<mgrwt>
<rscale>  0 0.80535328E+02</rscale>
<asrwt>0</asrwt>
<pdfrwt beam="1">  1        2 0.15085392E+00 0.80535328E+02</pdfrwt>
<pdfrwt beam="2">  1       -1 0.25440730E-03 0.80535328E+02</pdfrwt>
<totfact> 0.34593069E+05</totfact>
</mgrwt>
</event>
<event>
 8    1  0.2433467E-024  0.8010257E+02  0.7818608E-02  0.1328761E+00
         -1   -1    0    0    0  501 -0.00000000000E+00  0.00000000000E+00  0.10542919071E+02  0.10542920276E+02  0.50400000000E-02 0.  1.
          2   -1    0    0  501    0  0.00000000000E+00 -0.00000000000E+00 -0.15215003645E+03  0.15215003648E+03  0.25500000000E-02 0. -1.
         24    2    1    2    0    0  0.00000000000E+00  0.35527136788E-14 -0.14160711738E+03  0.16269295675E+03  0.80102574759E+02 0.  0.
         66    2    3    3    0    0  0.17395826279E+02  0.16757066110E+02 -0.13567258218E+03  0.13782040343E+03  0.20000025144E+01 0.  0.
        -13    1    3    3    0    0 -0.17395826279E+02 -0.16757066110E+02 -0.59345352031E+01  0.24872553320E+02  0.10566000000E+00 0.  1.
         13    1    4    4    0    0  0.72744161217E+01  0.63972443037E+01 -0.56995177051E+02  0.57812656363E+02  0.10566000000E+00 0. -1.
        -13    1    4    4    0    0  0.96032086621E+01  0.97207176025E+01 -0.72587350669E+02  0.73862362597E+02  0.10566000000E+00 0.  1.
         14    1    4    4    0    0  0.51820149547E+00  0.63910420352E+00 -0.60900544608E+01  0.61453844720E+01  0.00000000000E+00 0. -1.
<mgrwt>
<rscale>  0 0.80102575E+02</rscale>
<asrwt>0</asrwt>
<pdfrwt beam="1">  1        2 0.23407696E-01 0.80102575E+02</pdfrwt>
<pdfrwt beam="2">  1       -1 0.16219878E-02 0.80102575E+02</pdfrwt>
<totfact> 0.20053979E+05</totfact>
</mgrwt>
</event>
<event>
 8    1  0.2433467E-024  0.8007896E+02  0.7818608E-02  0.1328828E+00
          2   -1    0    0  501    0  0.00000000000E+00  0.00000000000E+00  0.15166326060E+03  0.15166326062E+03  0.25500000000E-02 0. -1.
         -1   -1    0    0    0  501 -0.00000000000E+00 -0.00000000000E+00 -0.10570521225E+02  0.10570522427E+02  0.50400000000E-02 0.  1.
         24    2    1    2    0    0  0.00000000000E+00 -0.71054273576E-14  0.14109273937E+03  0.16223378304E+03  0.80078956397E+02 0.  0.
         66    2    3    3    0    0  0.14983917109E+02 -0.33058036445E+02  0.36460618286E+02  0.51485223360E+02  0.19999982654E+01 0.  0.
        -13    1    3    3    0    0 -0.14983917109E+02  0.33058036445E+02  0.10463212108E+03  0.11074855968E+03  0.10566000000E+00 0.  1.
         13    1    4    4    0    0  0.86968335890E+00 -0.16454531578E+01  0.18086063733E+01  0.25973229080E+01  0.10566000000E+00 0.  1.
        -13    1    4    4    0    0  0.64470769866E+01 -0.12596958511E+02  0.13482855059E+02  0.19546015195E+02  0.10566000000E+00 0.  1.
         14    1    4    4    0    0  0.76671567636E+01 -0.18815624776E+02  0.21169156854E+02  0.29341885257E+02  0.00000000000E+00 0. -1.
<mgrwt>
<rscale>  0 0.80078956E+02</rscale>
<asrwt>0</asrwt>
<pdfrwt beam="1">  1        2 0.23332809E-01 0.80078956E+02</pdfrwt>
<pdfrwt beam="2">  1       -1 0.16262342E-02 0.80078956E+02</pdfrwt>
<totfact> 0.20048884E+05</totfact>
</mgrwt>
</event>
<event>
 8    1  0.2433467E-024  0.7388088E+02  0.7818608E-02  0.1347372E+00
         -1   -1    0    0    0  501 -0.00000000000E+00  0.00000000000E+00  0.27309542207E+01  0.27309588714E+01  0.50400000000E-02 0.  1.
          2   -1    0    0  501    0  0.00000000000E+00 -0.00000000000E+00 -0.49967700372E+03  0.49967700373E+03  0.25500000000E-02 0. -1.
         24    2    1    2    0    0 -0.88817841970E-15  0.26645352591E-14 -0.49694604950E+03  0.50240796260E+03  0.73880882296E+02 0.  0.
         66    2    3    3    0    0  0.77660432130E+01 -0.66645051722E+01 -0.48983462555E+03  0.48994559641E+03  0.19999993740E+01 0.  0.
        -13    1    3    3    0    0 -0.77660432130E+01  0.66645051722E+01 -0.71114239492E+01  0.12462366188E+02  0.10566000000E+00 0.  1.
         13    1    4    4    0    0  0.43180623377E+01 -0.33626618750E+01 -0.29940360895E+03  0.29945364478E+03  0.10566000000E+00 0. -1.
        -13    1    4    4    0    0  0.10062576214E+01 -0.75741451692E+00 -0.59720374526E+02  0.59733746984E+02  0.10566000000E+00 0.  1.
        -14    1    4    4    0    0  0.24417232538E+01 -0.25444287803E+01 -0.13071064207E+03  0.13075820464E+03  0.00000000000E+00 0.  1.
<mgrwt>
<rscale>  0 0.73880882E+02</rscale>
<asrwt>0</asrwt>
<pdfrwt beam="1">  1        2 0.76873313E-01 0.73880882E+02</pdfrwt>
<pdfrwt beam="2">  1       -1 0.42014756E-03 0.73880882E+02</pdfrwt>
<totfact> 0.37428933E+05</totfact>
</mgrwt>
</event>
<event>
 8    1  0.2433467E-024  0.7868940E+02  0.7818608E-02  0.1332812E+00
         -1   -1    0    0    0  501 -0.00000000000E+00  0.00000000000E+00  0.28817240027E+02  0.28817240467E+02  0.50400000000E-02 0.  1.
          2   -1    0    0  501    0  0.00000000000E+00 -0.00000000000E+00 -0.53718037049E+02  0.53718037110E+02  0.25500000000E-02 0. -1.
         24    2    1    2    0    0  0.00000000000E+00  0.00000000000E+00 -0.24900797023E+02  0.82535277577E+02  0.78689404321E+02 0.  0.
         66    2    3    3    0    0 -0.11247297551E+02  0.22613664724E+01 -0.51904803561E+02  0.53195151236E+02  0.20000004528E+01 0.  0.
        -13    1    3    3    0    0  0.11247297551E+02 -0.22613664724E+01  0.27004006538E+02  0.29340126341E+02  0.10566000000E+00 0.  1.
         13    1    4    4    0    0 -0.42278594448E+01  0.45520965104E-01 -0.17733732563E+02  0.18231108093E+02  0.10566000000E+00 0.  1.
        -13    1    4    4    0    0 -0.59425583481E+01  0.20329550207E+01 -0.27883264264E+02  0.28582065983E+02  0.10566000000E+00 0. -1.
        -14    1    4    4    0    0 -0.10768797586E+01  0.18289048663E+00 -0.62878067337E+01  0.63819771596E+01  0.00000000000E+00 0.  1.
<mgrwt>
<rscale>  0 0.78689404E+02</rscale>
<asrwt>0</asrwt>
<pdfrwt beam="1">  1        2 0.82643134E-02 0.78689404E+02</pdfrwt>
<pdfrwt beam="2">  1       -1 0.44334216E-02 0.78689404E+02</pdfrwt>
<totfact> 0.15880676E+05</totfact>
</mgrwt>
</event>
<event>
 8    1  0.2433467E-024  0.7739038E+02  0.7818608E-02  0.1336625E+00
         -1   -1    0    0    0  501 -0.00000000000E+00  0.00000000000E+00  0.61128244898E+01  0.61128265676E+01  0.50400000000E-02 0.  1.
          2   -1    0    0  501    0  0.00000000000E+00 -0.00000000000E+00 -0.24494692594E+03  0.24494692595E+03  0.25500000000E-02 0. -1.
         24    2    1    2    0    0  0.00000000000E+00  0.00000000000E+00 -0.23883410145E+03  0.25105975252E+03  0.77390382608E+02 0.  0.
         66    2    3    3    0    0  0.33507939521E+02  0.12873429229E+02 -0.16614870128E+03  0.16999381792E+03  0.20000005307E+01 0.  0.
        -13    1    3    3    0    0 -0.33507939521E+02 -0.12873429229E+02 -0.72685400163E+02  0.81065934596E+02  0.10566000000E+00 0.  1.
         13    1    4    4    0    0  0.11212596522E+02  0.49217270609E+01 -0.57336064101E+02  0.58629183250E+02  0.10566000000E+00 0.  1.
        -13    1    4    4    0    0  0.12731545948E+02  0.39149062876E+01 -0.62050092404E+02  0.63463721013E+02  0.10566000000E+00 0. -1.
         14    1    4    4    0    0  0.95637970512E+01  0.40367958800E+01 -0.46762544781E+02  0.47900913659E+02  0.00000000000E+00 0. -1.
<mgrwt>
<rscale>  0 0.77390383E+02</rscale>
<asrwt>0</asrwt>
<pdfrwt beam="1">  1        2 0.37684135E-01 0.77390383E+02</pdfrwt>
<pdfrwt beam="2">  1       -1 0.94043489E-03 0.77390383E+02</pdfrwt>
<totfact> 0.25850096E+05</totfact>
</mgrwt>
</event>
<event>
 8    1  0.2433467E-024  0.7936549E+02  0.7818608E-02  0.1330862E+00
          2   -1    0    0  501    0  0.00000000000E+00  0.00000000000E+00  0.52476228499E+02  0.52476228561E+02  0.25500000000E-02 0. -1.
         -1   -1    0    0    0  501 -0.00000000000E+00 -0.00000000000E+00 -0.30008255272E+02  0.30008255696E+02  0.50400000000E-02 0.  1.
         24    2    1    2    0    0  0.00000000000E+00  0.35527136788E-14  0.22467973226E+02  0.82484484256E+02  0.79365485711E+02 0.  0.
         66    2    3    3    0    0  0.23095545592E+02  0.27250923941E+02  0.29142951409E+02  0.46144649645E+02  0.19999980482E+01 0.  0.
        -13    1    3    3    0    0 -0.23095545592E+02 -0.27250923941E+02 -0.66749781824E+01  0.36339834612E+02  0.10566000000E+00 0.  1.
         13    1    4    4    0    0  0.87002916673E+01  0.10934117849E+02  0.12455793255E+02  0.18719186891E+02  0.10566000000E+00 0. -1.
        -13    1    4    4    0    0  0.39909950029E+01  0.44551545438E+01  0.43487799933E+01  0.73959106666E+01  0.10566000000E+00 0.  1.
         14    1    4    4    0    0  0.10404258922E+02  0.11861651548E+02  0.12338378161E+02  0.20029552087E+02  0.00000000000E+00 0. -1.
<mgrwt>
<rscale>  0 0.79365486E+02</rscale>
<asrwt>0</asrwt>
<pdfrwt beam="1">  1        2 0.80732659E-02 0.79365486E+02</pdfrwt>
<pdfrwt beam="2">  1       -1 0.46166547E-02 0.79365486E+02</pdfrwt>
<totfact> 0.15434473E+05</totfact>
</mgrwt>
</event>
<event>
 8    1  0.2433467E-024  0.8297374E+02  0.7818608E-02  0.1320818E+00
         -1   -1    0    0    0  501 -0.00000000000E+00  0.00000000000E+00  0.46866675082E+02  0.46866675353E+02  0.50400000000E-02 0.  1.
          2   -1    0    0  501    0  0.00000000000E+00 -0.00000000000E+00 -0.36724606839E+02  0.36724606928E+02  0.25500000000E-02 0. -1.
         24    2    1    2    0    0 -0.17763568394E-14  0.00000000000E+00  0.10142068243E+02  0.83591282281E+02  0.82973736358E+02 0.  0.
         66    2    3    3    0    0  0.13985231694E+02  0.13512191102E+02 -0.31818094234E+02  0.37343769774E+02  0.20000015832E+01 0.  0.
        -13    1    3    3    0    0 -0.13985231694E+02 -0.13512191102E+02  0.41960162477E+02  0.46247512507E+02  0.10566000000E+00 0.  1.
         13    1    4    4    0    0  0.55889253681E+01  0.46331062379E+01 -0.13181445024E+02  0.15048701510E+02  0.10566000000E+00 0. -1.
        -13    1    4    4    0    0  0.80778275816E+01  0.85937169923E+01 -0.18166326387E+02  0.21659405547E+02  0.10566000000E+00 0.  1.
         14    1    4    4    0    0  0.31847874419E+00  0.28536787218E+00 -0.47032282332E+00  0.63566271804E+00  0.00000000000E+00 0. -1.
<mgrwt>
<rscale>  0 0.82973736E+02</rscale>
<asrwt>0</asrwt>
<pdfrwt beam="1">  1        2 0.56499396E-02 0.82973736E+02</pdfrwt>
<pdfrwt beam="2">  1       -1 0.72102577E-02 0.82973736E+02</pdfrwt>
<totfact> 0.12655869E+05</totfact>
</mgrwt>
</event>
<event>
 8    1  0.2433467E-024  0.7784865E+02  0.7818608E-02  0.1335270E+00
          2   -1    0    0  501    0  0.00000000000E+00  0.00000000000E+00  0.59048880948E+03  0.59048880948E+03  0.25500000000E-02 0. -1.
         -1   -1    0    0    0  501 -0.00000000000E+00 -0.00000000000E+00 -0.25658428079E+01  0.25658477578E+01  0.50400000000E-02 0.  1.
         24    2    1    2    0    0  0.00000000000E+00  0.00000000000E+00  0.58792296667E+03  0.59305465724E+03  0.77848646343E+02 0.  0.
         66    2    3    3    0    0  0.43889615372E+01 -0.23532294172E+02  0.52772808391E+03  0.52827451424E+03  0.19999997291E+01 0.  0.
        -13    1    3    3    0    0 -0.43889615372E+01  0.23532294172E+02  0.60194882761E+02  0.64780143000E+02  0.10566000000E+00 0.  1.
         13    1    4    4    0    0  0.21078416076E+01 -0.14133179253E+02  0.31909521365E+03  0.31941502201E+03  0.10566000000E+00 0. -1.
        -13    1    4    4    0    0  0.91420176061E+00 -0.41766693762E+01  0.81672452992E+02  0.81784357146E+02  0.10566000000E+00 0.  1.
        -14    1    4    4    0    0  0.13669181689E+01 -0.52224455427E+01  0.12696041727E+03  0.12707513508E+03  0.00000000000E+00 0.  1.
<mgrwt>
<rscale>  0 0.77848646E+02</rscale>
<asrwt>0</asrwt>
<pdfrwt beam="1">  1        2 0.90844471E-01 0.77848646E+02</pdfrwt>
<pdfrwt beam="2">  1       -1 0.39474526E-03 0.77848646E+02</pdfrwt>
<totfact> 0.34370513E+05</totfact>
</mgrwt>
</event>
<event>
 8    1  0.2433467E-024  0.7807448E+02  0.7818608E-02  0.1334606E+00
         -1   -1    0    0    0  501 -0.00000000000E+00  0.00000000000E+00  0.82679537616E+01  0.82679552977E+01  0.50400000000E-02 0.  1.
          2   -1    0    0  501    0  0.00000000000E+00 -0.00000000000E+00 -0.18431477793E+03  0.18431477795E+03  0.25500000000E-02 0. -1.
         24    2    1    2    0    0  0.00000000000E+00 -0.17763568394E-14 -0.17604682417E+03  0.19258273325E+03  0.78074482672E+02 0.  0.
         66    2    3    3    0    0  0.37211155056E+02  0.11377176490E+02 -0.94966057163E+02  0.10264824516E+03  0.20000038300E+01 0.  0.
        -13    1    3    3    0    0 -0.37211155056E+02 -0.11377176490E+02 -0.81080767008E+02  0.89934488091E+02  0.10566000000E+00 0.  1.
         13    1    4    4    0    0  0.10738348674E+02  0.25104651751E+01 -0.27548812776E+02  0.29674278711E+02  0.10566000000E+00 0. -1.
        -13    1    4    4    0    0  0.62324381892E+01  0.24428105044E+01 -0.16014368380E+02  0.17357470081E+02  0.10566000000E+00 0.  1.
         14    1    4    4    0    0  0.20240368193E+02  0.64239008104E+01 -0.51402876007E+02  0.55616496366E+02  0.00000000000E+00 0. -1.
<mgrwt>
<rscale>  0 0.78074483E+02</rscale>
<asrwt>0</asrwt>
<pdfrwt beam="1">  1        2 0.28356117E-01 0.78074483E+02</pdfrwt>
<pdfrwt beam="2">  1       -1 0.12719932E-02 0.78074483E+02</pdfrwt>
<totfact> 0.22871011E+05</totfact>
</mgrwt>
</event>
<event>
 8    1  0.2433467E-024  0.7865362E+02  0.7818608E-02  0.1332916E+00
          2   -1    0    0  501    0  0.00000000000E+00  0.00000000000E+00  0.25365446510E+03  0.25365446511E+03  0.25500000000E-02 0. -1.
         -1   -1    0    0    0  501 -0.00000000000E+00 -0.00000000000E+00 -0.60972622673E+01  0.60972643504E+01  0.50400000000E-02 0.  1.
         24    2    1    2    0    0  0.00000000000E+00  0.00000000000E+00  0.24755720283E+03  0.25975172946E+03  0.78653622198E+02 0.  0.
         66    2    3    3    0    0 -0.28218708233E+02 -0.24610946151E+02  0.16329486983E+03  0.16754464681E+03  0.19999990341E+01 0.  0.
        -13    1    3    3    0    0  0.28218708233E+02  0.24610946151E+02  0.84262333001E+02  0.92207082654E+02  0.10566000000E+00 0.  1.
         13    1    4    4    0    0 -0.13060104232E+02 -0.10987169866E+02  0.73905150823E+02  0.75850291406E+02  0.10566000000E+00 0. -1.
        -13    1    4    4    0    0 -0.63107450344E+00 -0.26927277593E+00  0.28423016893E+01  0.29258512925E+01  0.10566000000E+00 0. -1.
        -14    1    4    4    0    0 -0.14527529497E+02 -0.13354503509E+02  0.86547417321E+02  0.88768504112E+02  0.00000000000E+00 0.  1.
<mgrwt>
<rscale>  0 0.78653622E+02</rscale>
<asrwt>0</asrwt>
<pdfrwt beam="1">  1        2 0.39023763E-01 0.78653622E+02</pdfrwt>
<pdfrwt beam="2">  1       -1 0.93804052E-03 0.78653622E+02</pdfrwt>
<totfact> 0.25086427E+05</totfact>
</mgrwt>
</event>
<event>
 8    1  0.2433467E-024  0.8093366E+02  0.7818608E-02  0.1326423E+00
          2   -1    0    0  501    0  0.00000000000E+00  0.00000000000E+00  0.41615929252E+03  0.41615929252E+03  0.25500000000E-02 0. -1.
         -1   -1    0    0    0  501 -0.00000000000E+00 -0.00000000000E+00 -0.39349443631E+01  0.39349475908E+01  0.50400000000E-02 0.  1.
         24    2    1    2    0    0  0.00000000000E+00  0.00000000000E+00  0.41222434815E+03  0.42009424012E+03  0.80933660287E+02 0.  0.
         66    2    3    3    0    0  0.25398539124E+02  0.14382580427E+00  0.36959344958E+03  0.37047054464E+03  0.19999994188E+01 0.  0.
        -13    1    3    3    0    0 -0.25398539124E+02 -0.14382580427E+00  0.42630898577E+02  0.49623695479E+02  0.10566000000E+00 0.  1.
         13    1    4    4    0    0  0.20503363485E+02 -0.11240532861E-01  0.30137187466E+03  0.30206854527E+03  0.10566000000E+00 0. -1.
        -13    1    4    4    0    0  0.26764754117E+01  0.30351576288E+00  0.41924741568E+02  0.42011317071E+02  0.10566000000E+00 0.  1.
        -14    1    4    4    0    0  0.22187002267E+01 -0.14844942575E+00  0.26296833344E+02  0.26390682293E+02  0.00000000000E+00 0.  1.
<mgrwt>
<rscale>  0 0.80933660E+02</rscale>
<asrwt>0</asrwt>
<pdfrwt beam="1">  1        2 0.64024493E-01 0.80933660E+02</pdfrwt>
<pdfrwt beam="2">  1       -1 0.60537643E-03 0.80933660E+02</pdfrwt>
<totfact> 0.27789861E+05</totfact>
</mgrwt>
</event>
<event>
 8    1  0.2433467E-024  0.7793585E+02  0.7818608E-02  0.1335013E+00
         -1   -1    0    0    0  501 -0.00000000000E+00  0.00000000000E+00  0.14500678829E+02  0.14500679705E+02  0.50400000000E-02 0.  1.
          2   -1    0    0  501    0  0.00000000000E+00 -0.00000000000E+00 -0.10471917818E+03  0.10471917821E+03  0.25500000000E-02 0. -1.
         24    2    1    2    0    0  0.00000000000E+00  0.88817841970E-15 -0.90218499354E+02  0.11921985792E+03  0.77935851162E+02 0.  0.
         66    2    3    3    0    0  0.14657697039E+02  0.48608620491E+01 -0.99825337143E+02  0.10103253929E+03  0.19999995493E+01 0.  0.
        -13    1    3    3    0    0 -0.14657697039E+02 -0.48608620491E+01  0.96068377898E+01  0.18187318623E+02  0.10566000000E+00 0.  1.
         13    1    4    4    0    0  0.31416798349E+01  0.12995270463E+01 -0.25586655328E+02  0.25811761227E+02  0.10566000000E+00 0. -1.
        -13    1    4    4    0    0  0.97473937144E+00  0.43120251491E+00 -0.87526815189E+01  0.88179731377E+01  0.10566000000E+00 0.  1.
        -14    1    4    4    0    0  0.10541277833E+02  0.31301324879E+01 -0.65486000296E+02  0.66402804930E+02  0.00000000000E+00 0.  1.
<mgrwt>
<rscale>  0 0.77935851E+02</rscale>
<asrwt>0</asrwt>
<pdfrwt beam="1">  1        2 0.16110642E-01 0.77935851E+02</pdfrwt>
<pdfrwt beam="2">  1       -1 0.22308738E-02 0.77935851E+02</pdfrwt>
<totfact> 0.19257111E+05</totfact>
</mgrwt>
</event>
<event>
 8    1  0.2433467E-024  0.8042703E+02  0.7818608E-02  0.1327844E+00
         -1   -1    0    0    0  501 -0.00000000000E+00  0.00000000000E+00  0.19540822529E+02  0.19540823179E+02  0.50400000000E-02 0.  1.
          2   -1    0    0  501    0  0.00000000000E+00 -0.00000000000E+00 -0.82756323529E+02  0.82756323568E+02  0.25500000000E-02 0. -1.
         24    2    1    2    0    0  0.00000000000E+00  0.00000000000E+00 -0.63215501000E+02  0.10229714675E+03  0.80427026961E+02 0.  0.
         66    2    3    3    0    0  0.32091253150E+02  0.15881120667E+02 -0.54839896522E+02  0.65524596703E+02  0.20000000319E+01 0.  0.
        -13    1    3    3    0    0 -0.32091253150E+02 -0.15881120667E+02 -0.83756044783E+01  0.36772550044E+02  0.10566000000E+00 0.  1.
         13    1    4    4    0    0  0.12793500202E+02  0.70965696594E+01 -0.23182734447E+02  0.27413232002E+02  0.10566000000E+00 0. -1.
        -13    1    4    4    0    0  0.68985117773E+01  0.31383656807E+01 -0.12042062000E+02  0.14228886996E+02  0.10566000000E+00 0.  1.
         14    1    4    4    0    0  0.12399241170E+02  0.56461853265E+01 -0.19615100075E+02  0.23882477705E+02  0.00000000000E+00 0. -1.
<mgrwt>
<rscale>  0 0.80427027E+02</rscale>
<asrwt>0</asrwt>
<pdfrwt beam="1">  1        2 0.12731742E-01 0.80427027E+02</pdfrwt>
<pdfrwt beam="2">  1       -1 0.30062805E-02 0.80427027E+02</pdfrwt>
<totfact> 0.16602677E+05</totfact>
</mgrwt>
</event>
<event>
 8    1  0.2433467E-024  0.8125959E+02  0.7818608E-02  0.1325514E+00
         -1   -1    0    0    0  501 -0.00000000000E+00  0.00000000000E+00  0.23911156750E+01  0.23911209866E+01  0.50400000000E-02 0.  1.
          2   -1    0    0  501    0  0.00000000000E+00 -0.00000000000E+00 -0.69037998537E+03  0.69037998537E+03  0.25500000000E-02 0. -1.
         24    2    1    2    0    0  0.00000000000E+00  0.00000000000E+00 -0.68798886969E+03  0.69277110636E+03  0.81259590110E+02 0.  0.
         66    2    3    3    0    0 -0.18665050184E+02 -0.33061175423E+02 -0.46696509685E+03  0.46851022091E+03  0.19999995152E+01 0.  0.
        -13    1    3    3    0    0  0.18665050184E+02  0.33061175423E+02 -0.22102377284E+03  0.22426088545E+03  0.10566000000E+00 0.  1.
         13    1    4    4    0    0 -0.66116824110E+01 -0.10979393764E+02 -0.15344565798E+03  0.15398000698E+03  0.10566000000E+00 0. -1.
        -13    1    4    4    0    0 -0.88934460434E+01 -0.15971473199E+02 -0.23505303843E+03  0.23576285411E+03  0.10566000000E+00 0.  1.
         14    1    4    4    0    0 -0.31599217301E+01 -0.61103084597E+01 -0.78466400443E+02  0.78767359822E+02  0.00000000000E+00 0. -1.
<mgrwt>
<rscale>  0 0.81259590E+02</rscale>
<asrwt>0</asrwt>
<pdfrwt beam="1">  1        2 0.10621215E+00 0.81259590E+02</pdfrwt>
<pdfrwt beam="2">  1       -1 0.36786491E-03 0.81259590E+02</pdfrwt>
<totfact> 0.32016637E+05</totfact>
</mgrwt>
</event>
<event>
 8    1  0.2433467E-024  0.7932437E+02  0.7818608E-02  0.1330980E+00
         -1   -1    0    0    0  501 -0.00000000000E+00  0.00000000000E+00  0.28110233208E+03  0.28110233212E+03  0.50400000000E-02 0.  1.
          2   -1    0    0  501    0  0.00000000000E+00 -0.00000000000E+00 -0.55961426996E+01  0.55961432806E+01  0.25500000000E-02 0. -1.
         24    2    1    2    0    0  0.00000000000E+00  0.00000000000E+00  0.27550618938E+03  0.28669847540E+03  0.79324368343E+02 0.  0.
         66    2    3    3    0    0 -0.37796320738E+02 -0.68827910297E+00  0.94764276558E+02  0.10204559619E+03  0.19999999866E+01 0.  0.
        -13    1    3    3    0    0  0.37796320738E+02  0.68827910297E+00  0.18074191282E+03  0.18465287922E+03  0.10566000000E+00 0.  1.
         13    1    4    4    0    0 -0.26184993636E+02 -0.22559413320E+00  0.65681123426E+02  0.70708740075E+02  0.10566000000E+00 0. -1.
        -13    1    4    4    0    0 -0.57076427235E+01 -0.26902508182E+00  0.12893960487E+02  0.14103720822E+02  0.10566000000E+00 0.  1.
        -14    1    4    4    0    0 -0.59036843784E+01 -0.19365988794E+00  0.16189192646E+02  0.17233135290E+02  0.00000000000E+00 0.  1.
<mgrwt>
<rscale>  0 0.79324368E+02</rscale>
<asrwt>0</asrwt>
<pdfrwt beam="1">  1        2 0.86094546E-03 0.79324368E+02</pdfrwt>
<pdfrwt beam="2">  1       -1 0.43246494E-01 0.79324368E+02</pdfrwt>
<totfact> 0.90632494E+04</totfact>
</mgrwt>
</event>
<event>
 8    1  0.2433467E-024  0.7989480E+02  0.7818608E-02  0.1329350E+00
          2   -1    0    0  501    0  0.00000000000E+00  0.00000000000E+00  0.73775889550E+03  0.73775889550E+03  0.25500000000E-02 0. -1.
         -1   -1    0    0    0  501 -0.00000000000E+00 -0.00000000000E+00 -0.21630272344E+01  0.21630331061E+01  0.50400000000E-02 0.  1.
         24    2    1    2    0    0  0.00000000000E+00  0.55511151231E-16  0.73559586827E+03  0.73992192861E+03  0.79894799764E+02 0.  0.
         66    2    3    3    0    0 -0.11309523606E+02  0.49152345230E+00  0.72258101726E+03  0.72267245238E+03  0.20000010418E+01 0.  0.
        -13    1    3    3    0    0  0.11309523606E+02 -0.49152345230E+00  0.13014851005E+02  0.17249476230E+02  0.10566000000E+00 0.  1.
         13    1    4    4    0    0 -0.14227881149E+01 -0.48124246618E-01  0.10541451917E+03  0.10542418440E+03  0.10566000000E+00 0. -1.
        -13    1    4    4    0    0 -0.74618530385E+01  0.79304907895E+00  0.50084961615E+03  0.50090583680E+03  0.10566000000E+00 0.  1.
        -14    1    4    4    0    0 -0.24248824529E+01 -0.25340138003E+00  0.11631688194E+03  0.11634243118E+03  0.00000000000E+00 0.  1.
<mgrwt>
<rscale>  0 0.79894800E+02</rscale>
<asrwt>0</asrwt>
<pdfrwt beam="1">  1        2 0.11350147E+00 0.79894800E+02</pdfrwt>
<pdfrwt beam="2">  1       -1 0.33277357E-03 0.79894800E+02</pdfrwt>
<totfact> 0.33954332E+05</totfact>
</mgrwt>
</event>
<event>
 8    1  0.2433467E-024  0.8034425E+02  0.7818608E-02  0.1328077E+00
          2   -1    0    0  501    0  0.00000000000E+00  0.00000000000E+00  0.56293323695E+03  0.56293323696E+03  0.25500000000E-02 0. -1.
         -1   -1    0    0    0  501 -0.00000000000E+00 -0.00000000000E+00 -0.28667670604E+01  0.28667714908E+01  0.50400000000E-02 0.  1.
         24    2    1    2    0    0  0.17763568394E-14  0.17763568394E-14  0.56006646989E+03  0.56580000845E+03  0.80344252212E+02 0.  0.
         66    2    3    3    0    0  0.13459334136E+02  0.12213355136E+02  0.53230068206E+03  0.53261462225E+03  0.19999990235E+01 0.  0.
        -13    1    3    3    0    0 -0.13459334136E+02 -0.12213355136E+02  0.27765787832E+02  0.33185386197E+02  0.10566000000E+00 0.  1.
         13    1    4    4    0    0  0.82882005399E+01  0.67285895881E+01  0.30070970510E+03  0.30089916267E+03  0.10566000000E+00 0. -1.
        -13    1    4    4    0    0  0.34771768719E+01  0.42803123084E+01  0.16873675326E+03  0.16882687848E+03  0.10566000000E+00 0.  1.
        -14    1    4    4    0    0  0.16939567241E+01  0.12044532398E+01  0.62854223697E+02  0.62888581106E+02  0.00000000000E+00 0.  1.
<mgrwt>
<rscale>  0 0.80344252E+02</rscale>
<asrwt>0</asrwt>
<pdfrwt beam="1">  1        2 0.86605076E-01 0.80344252E+02</pdfrwt>
<pdfrwt beam="2">  1       -1 0.44104162E-03 0.80344252E+02</pdfrwt>
<totfact> 0.31229601E+05</totfact>
</mgrwt>
</event>
<event>
 8    1  0.2433467E-024  0.7810056E+02  0.7818608E-02  0.1334530E+00
          2   -1    0    0  501    0  0.00000000000E+00  0.00000000000E+00  0.30648883435E+03  0.30648883436E+03  0.25500000000E-02 0. -1.
         -1   -1    0    0    0  501 -0.00000000000E+00 -0.00000000000E+00 -0.49754629985E+01  0.49754655512E+01  0.50400000000E-02 0.  1.
         24    2    1    2    0    0  0.00000000000E+00  0.35527136788E-14  0.30151337135E+03  0.31146429991E+03  0.78100557078E+02 0.  0.
         66    2    3    3    0    0 -0.29412183312E+01  0.19254418871E+02  0.28571399590E+03  0.28638413165E+03  0.19999989638E+01 0.  0.
        -13    1    3    3    0    0  0.29412183312E+01 -0.19254418871E+02  0.15799375448E+02  0.25080168260E+02  0.10566000000E+00 0.  1.
         13    1    4    4    0    0  0.95580586439E-01  0.16892370968E+00  0.30682008831E+01  0.30761488200E+01  0.10566000000E+00 0.  1.
        -13    1    4    4    0    0 -0.29966862478E+01  0.17970484231E+02  0.26934288445E+03  0.26995836530E+03  0.10566000000E+00 0. -1.
        -14    1    4    4    0    0 -0.40112669789E-01  0.11150109308E+01  0.13302910575E+02  0.13349617529E+02  0.00000000000E+00 0.  1.
<mgrwt>
<rscale>  0 0.78100557E+02</rscale>
<asrwt>0</asrwt>
<pdfrwt beam="1">  1        2 0.47152147E-01 0.78100557E+02</pdfrwt>
<pdfrwt beam="2">  1       -1 0.76545574E-03 0.78100557E+02</pdfrwt>
<totfact> 0.27360853E+05</totfact>
</mgrwt>
</event>
<event>
 8    1  0.2433467E-024  0.7965854E+02  0.7818608E-02  0.1330023E+00
          2   -1    0    0  501    0  0.00000000000E+00  0.00000000000E+00  0.10607537777E+02  0.10607538083E+02  0.25500000000E-02 0. -1.
         -1   -1    0    0    0  501 -0.00000000000E+00 -0.00000000000E+00 -0.14955128138E+03  0.14955128147E+03  0.50400000000E-02 0.  1.
         24    2    1    2    0    0  0.00000000000E+00  0.00000000000E+00 -0.13894374360E+03  0.16015881955E+03  0.79658543752E+02 0.  0.
         66    2    3    3    0    0 -0.26513311045E+02 -0.38756600502E+01 -0.10335523946E+02  0.28788877283E+02  0.19999991371E+01 0.  0.
        -13    1    3    3    0    0  0.26513311045E+02  0.38756600502E+01 -0.12860821966E+03  0.13136994227E+03  0.10566000000E+00 0.  1.
         13    1    4    4    0    0 -0.15709415031E+02 -0.22157594059E+01 -0.70774864744E+01  0.17372313870E+02  0.10566000000E+00 0. -1.
        -13    1    4    4    0    0 -0.17712219628E+01 -0.40237733923E+00 -0.44982794968E+00  0.18742048940E+01  0.10566000000E+00 0.  1.
         14    1    4    4    0    0 -0.90326740512E+01 -0.12575233051E+01 -0.28082095215E+01  0.95423585185E+01  0.00000000000E+00 0. -1.
<mgrwt>
<rscale>  0 0.79658544E+02</rscale>
<asrwt>0</asrwt>
<pdfrwt beam="1">  1        2 0.16319290E-02 0.79658544E+02</pdfrwt>
<pdfrwt beam="2">  1       -1 0.23007888E-01 0.79658544E+02</pdfrwt>
<totfact> 0.10912820E+05</totfact>
</mgrwt>
</event>
<event>
 8    1  0.2433467E-024  0.7685724E+02  0.7818608E-02  0.1338214E+00
          2   -1    0    0  501    0  0.00000000000E+00  0.00000000000E+00  0.54821131315E+03  0.54821131315E+03  0.25500000000E-02 0. -1.
         -1   -1    0    0    0  501 -0.00000000000E+00 -0.00000000000E+00 -0.26937743159E+01  0.26937790308E+01  0.50400000000E-02 0.  1.
         24    2    1    2    0    0  0.00000000000E+00  0.71054273576E-14  0.54551753883E+03  0.55090509218E+03  0.76857240528E+02 0.  0.
         66    2    3    3    0    0 -0.96810628050E+01  0.32886553350E+02  0.39699229451E+03  0.39847475487E+03  0.20000004427E+01 0.  0.
        -13    1    3    3    0    0  0.96810628050E+01 -0.32886553350E+02  0.14852524432E+03  0.15243033731E+03  0.10566000000E+00 0.  1.
         13    1    4    4    0    0 -0.44988255062E+01  0.14589559333E+02  0.18269847769E+03  0.18333532007E+03  0.10566000000E+00 0. -1.
        -13    1    4    4    0    0 -0.63173692449E+00  0.20879598181E+01  0.20669128243E+02  0.20784193372E+02  0.10566000000E+00 0.  1.
         14    1    4    4    0    0 -0.45505003744E+01  0.16209034199E+02  0.19362468858E+03  0.19435524143E+03  0.00000000000E+00 0. -1.
<mgrwt>
<rscale>  0 0.76857241E+02</rscale>
<asrwt>0</asrwt>
<pdfrwt beam="1">  1        2 0.84340308E-01 0.76857241E+02</pdfrwt>
<pdfrwt beam="2">  1       -1 0.41442666E-03 0.76857241E+02</pdfrwt>
<totfact> 0.34771758E+05</totfact>
</mgrwt>
</event>
<event>
 8    1  0.2433467E-024  0.7920486E+02  0.7818608E-02  0.1331323E+00
         -1   -1    0    0    0  501 -0.00000000000E+00  0.00000000000E+00  0.11231523544E+02  0.11231524675E+02  0.50400000000E-02 0.  1.
          2   -1    0    0  501    0  0.00000000000E+00 -0.00000000000E+00 -0.13963844730E+03  0.13963844733E+03  0.25500000000E-02 0. -1.
         24    2    1    2    0    0 -0.17763568394E-14  0.00000000000E+00 -0.12840692376E+03  0.15086997200E+03  0.79204863375E+02 0.  0.
         66    2    3    3    0    0  0.15221226048E+02  0.36232443934E+02 -0.73152578250E+02  0.83064886812E+02  0.20000001562E+01 0.  0.
        -13    1    3    3    0    0 -0.15221226048E+02 -0.36232443934E+02 -0.55254345508E+02  0.67805085188E+02  0.10566000000E+00 0.  1.
         13    1    4    4    0    0  0.53456922427E+01  0.13888264740E+02 -0.27415962668E+02  0.31194654928E+02  0.10566000000E+00 0. -1.
        -13    1    4    4    0    0  0.42878608183E+01  0.96322383900E+01 -0.18315790117E+02  0.21133979712E+02  0.10566000000E+00 0.  1.
         14    1    4    4    0    0  0.55876729871E+01  0.12711940803E+02 -0.27420825465E+02  0.30736252172E+02  0.00000000000E+00 0. -1.
<mgrwt>
<rscale>  0 0.79204863E+02</rscale>
<asrwt>0</asrwt>
<pdfrwt beam="1">  1        2 0.21482837E-01 0.79204863E+02</pdfrwt>
<pdfrwt beam="2">  1       -1 0.17279269E-02 0.79204863E+02</pdfrwt>
<totfact> 0.20104533E+05</totfact>
</mgrwt>
</event>
<event>
 8    1  0.2433467E-024  0.8039508E+02  0.7818608E-02  0.1327934E+00
         -1   -1    0    0    0  501 -0.00000000000E+00  0.00000000000E+00  0.20786706685E+02  0.20786707296E+02  0.50400000000E-02 0.  1.
          2   -1    0    0  501    0  0.00000000000E+00 -0.00000000000E+00 -0.77734404413E+02  0.77734404455E+02  0.25500000000E-02 0. -1.
         24    2    1    2    0    0  0.00000000000E+00  0.17763568394E-14 -0.56947697728E+02  0.98521111751E+02  0.80395081841E+02 0.  0.
         66    2    3    3    0    0 -0.37406474153E+02  0.13303216558E+02 -0.36007555635E+02  0.53635472686E+02  0.19999970428E+01 0.  0.
        -13    1    3    3    0    0  0.37406474153E+02 -0.13303216558E+02 -0.20940142093E+02  0.44885639065E+02  0.10566000000E+00 0.  1.
         13    1    4    4    0    0 -0.92553827994E+00  0.56016326306E+00 -0.87441421939E+00  0.13950513437E+01  0.10566000000E+00 0. -1.
        -13    1    4    4    0    0 -0.32363945365E+01  0.14765950261E+01 -0.31253666138E+01  0.47364187920E+01  0.10566000000E+00 0.  1.
         14    1    4    4    0    0 -0.33244541336E+02  0.11266458269E+02 -0.32007774802E+02  0.47504002551E+02  0.00000000000E+00 0. -1.
<mgrwt>
<rscale>  0 0.80395082E+02</rscale>
<asrwt>0</asrwt>
<pdfrwt beam="1">  1        2 0.11959139E-01 0.80395082E+02</pdfrwt>
<pdfrwt beam="2">  1       -1 0.31979550E-02 0.80395082E+02</pdfrwt>
<totfact> 0.16354655E+05</totfact>
</mgrwt>
</event>
<event>
 8    1  0.2433467E-024  0.8003177E+02  0.7818608E-02  0.1328961E+00
          2   -1    0    0  501    0  0.00000000000E+00  0.00000000000E+00  0.67042113710E+03  0.67042113710E+03  0.25500000000E-02 0. -1.
         -1   -1    0    0    0  501 -0.00000000000E+00 -0.00000000000E+00 -0.23884527357E+01  0.23884580533E+01  0.50400000000E-02 0.  1.
         24    2    1    2    0    0  0.35527136788E-14  0.35527136788E-14  0.66803268436E+03  0.67280959515E+03  0.80031768429E+02 0.  0.
         66    2    3    3    0    0 -0.24984296875E+02 -0.23065277778E+02  0.51117540451E+03  0.51230900470E+03  0.19999984449E+01 0.  0.
        -13    1    3    3    0    0  0.24984296875E+02  0.23065277778E+02  0.15685727985E+03  0.16050059045E+03  0.10566000000E+00 0.  1.
         13    1    4    4    0    0 -0.99687922286E+01 -0.90790736480E+01  0.19499566922E+03  0.19546132245E+03  0.10566000000E+00 0. -1.
        -13    1    4    4    0    0 -0.57748955092E+01 -0.46804610252E+01  0.10877904484E+03  0.10903278358E+03  0.10566000000E+00 0.  1.
         14    1    4    4    0    0 -0.92406091374E+01 -0.93057431044E+01  0.20740069045E+03  0.20781489868E+03  0.00000000000E+00 0. -1.
<mgrwt>
<rscale>  0 0.80031768E+02</rscale>
<asrwt>0</asrwt>
<pdfrwt beam="1">  1        2 0.10314174E+00 0.80031768E+02</pdfrwt>
<pdfrwt beam="2">  1       -1 0.36745458E-03 0.80031768E+02</pdfrwt>
<totfact> 0.33077568E+05</totfact>
</mgrwt>
</event>
<event>
 8    1  0.2433467E-024  0.7980287E+02  0.7818608E-02  0.1329612E+00
         -1   -1    0    0    0  501 -0.00000000000E+00  0.00000000000E+00  0.19149511290E+02  0.19149511953E+02  0.50400000000E-02 0.  1.
          2   -1    0    0  501    0  0.00000000000E+00 -0.00000000000E+00 -0.83141777598E+02  0.83141777637E+02  0.25500000000E-02 0. -1.
         24    2    1    2    0    0  0.35527136788E-14  0.17763568394E-14 -0.63992266308E+02  0.10229128959E+03  0.79802868236E+02 0.  0.
         66    2    3    3    0    0  0.28634469989E+02  0.74660709672E+01 -0.66277515678E+02  0.72611184874E+02  0.19999992853E+01 0.  0.
        -13    1    3    3    0    0 -0.28634469989E+02 -0.74660709672E+01  0.22852493694E+01  0.29680104716E+02  0.10566000000E+00 0.  1.
         13    1    4    4    0    0  0.11932656627E+02  0.34534586955E+01 -0.29413735374E+02  0.31929510861E+02  0.10566000000E+00 0. -1.
        -13    1    4    4    0    0  0.12550520947E+02  0.26069227596E+01 -0.27881865049E+02  0.30687476028E+02  0.10566000000E+00 0.  1.
        -14    1    4    4    0    0  0.41512924149E+01  0.14056895121E+01 -0.89819152545E+01  0.99941979847E+01  0.00000000000E+00 0.  1.
<mgrwt>
<rscale>  0 0.79802868E+02</rscale>
<asrwt>0</asrwt>
<pdfrwt beam="1">  1        2 0.12791043E-01 0.79802868E+02</pdfrwt>
<pdfrwt beam="2">  1       -1 0.29460788E-02 0.79802868E+02</pdfrwt>
<totfact> 0.16975302E+05</totfact>
</mgrwt>
</event>
<event>
 8    1  0.2433467E-024  0.7976721E+02  0.7818608E-02  0.1329713E+00
          2   -1    0    0  501    0  0.00000000000E+00  0.00000000000E+00  0.34060174689E+02  0.34060174784E+02  0.25500000000E-02 0. -1.
         -1   -1    0    0    0  501 -0.00000000000E+00 -0.00000000000E+00 -0.46702699210E+02  0.46702699482E+02  0.50400000000E-02 0.  1.
         24    2    1    2    0    0  0.17763568394E-14 -0.88817841970E-15 -0.12642524521E+02  0.80762874267E+02  0.79767214027E+02 0.  0.
         66    2    3    3    0    0  0.99675926527E+01 -0.47664327414E+01  0.32449340324E+02  0.34337027762E+02  0.20000009254E+01 0.  0.
        -13    1    3    3    0    0 -0.99675926527E+01  0.47664327414E+01 -0.45091864846E+02  0.46425846504E+02  0.10566000000E+00 0.  1.
         13    1    4    4    0    0  0.43217324000E+01 -0.23116679362E+01  0.16903700537E+02  0.17600211234E+02  0.10566000000E+00 0. -1.
        -13    1    4    4    0    0  0.18381410351E+01 -0.46617066750E+00  0.44285464073E+01  0.48186372424E+01  0.10566000000E+00 0.  1.
         14    1    4    4    0    0  0.38077192177E+01 -0.19885941377E+01  0.11117093379E+02  0.11918179286E+02  0.00000000000E+00 0. -1.
<mgrwt>
<rscale>  0 0.79767214E+02</rscale>
<asrwt>0</asrwt>
<pdfrwt beam="1">  1        2 0.52400269E-02 0.79767214E+02</pdfrwt>
<pdfrwt beam="2">  1       -1 0.71850307E-02 0.79767214E+02</pdfrwt>
<totfact> 0.13910985E+05</totfact>
</mgrwt>
</event>
<event>
 8    1  0.2433467E-024  0.7978705E+02  0.7818608E-02  0.1329657E+00
         -1   -1    0    0    0  501 -0.00000000000E+00  0.00000000000E+00  0.96236552485E+02  0.96236552617E+02  0.50400000000E-02 0.  1.
          2   -1    0    0  501    0  0.00000000000E+00 -0.00000000000E+00 -0.16537306791E+02  0.16537306988E+02  0.25500000000E-02 0. -1.
         24    2    1    2    0    0 -0.71054273576E-14  0.00000000000E+00  0.79699245695E+02  0.11277385960E+03  0.79787051869E+02 0.  0.
         66    2    3    3    0    0 -0.33383900618E+02 -0.10542417662E+02  0.12913106446E+02  0.37368110816E+02  0.19999993043E+01 0.  0.
        -13    1    3    3    0    0  0.33383900618E+02  0.10542417662E+02  0.66786139248E+02  0.75405748789E+02  0.10566000000E+00 0.  1.
         13    1    4    4    0    0 -0.76993426358E+01 -0.29015561844E+01  0.31511781797E+01  0.88113559269E+01  0.10566000000E+00 0. -1.
        -13    1    4    4    0    0 -0.13188312464E+02 -0.34464770869E+01  0.55589212574E+01  0.14721499908E+02  0.10566000000E+00 0.  1.
         14    1    4    4    0    0 -0.12496245519E+02 -0.41943843909E+01  0.42030070090E+01  0.13835254981E+02  0.00000000000E+00 0. -1.
<mgrwt>
<rscale>  0 0.79787052E+02</rscale>
<asrwt>0</asrwt>
<pdfrwt beam="1">  1        2 0.25442011E-02 0.79787052E+02</pdfrwt>
<pdfrwt beam="2">  1       -1 0.14805624E-01 0.79787052E+02</pdfrwt>
<totfact> 0.12029791E+05</totfact>
</mgrwt>
</event>
<event>
 8    1  0.2460578E-024  0.8311680E+02  0.7818608E-02  0.1320432E+00
          2   -1    0    0  501    0  0.00000000000E+00  0.00000000000E+00  0.14775553935E+02  0.14775554155E+02  0.25500000000E-02 0. -1.
         -1   -1    0    0    0  501 -0.00000000000E+00 -0.00000000000E+00 -0.11688905133E+03  0.11688905144E+03  0.50400000000E-02 0.  1.
         24    2    1    2    0    0 -0.17763568394E-14 -0.17763568394E-14 -0.10211349739E+03  0.13166460559E+03  0.83116797436E+02 0.  0.
         66    2    3    3    0    0 -0.11383409956E+02 -0.14855071023E+02  0.76500431704E+01  0.20316946621E+02  0.20000005458E+01 0.  0.
        -13    1    3    3    0    0  0.11383409956E+02  0.14855071023E+02 -0.10976354056E+03  0.11134765897E+03  0.10566000000E+00 0.  1.
         13    1    4    4    0    0 -0.48502547439E+01 -0.61040652847E+01  0.34472834401E+01  0.85252279285E+01  0.10566000000E+00 0. -1.
        -13    1    4    4    0    0 -0.53634489877E+01 -0.79717427060E+01  0.37596380368E+01  0.10318008966E+02  0.10566000000E+00 0.  1.
        -14    1    4    4    0    0 -0.11697062239E+01 -0.77926303223E+00  0.44312169352E+00  0.14737097268E+01  0.00000000000E+00 0.  1.
<mgrwt>
<rscale>  0 0.83116797E+02</rscale>
<asrwt>0</asrwt>
<pdfrwt beam="1">  1        2 0.22731622E-02 0.83116797E+02</pdfrwt>
<pdfrwt beam="2">  1       -1 0.17982930E-01 0.83116797E+02</pdfrwt>
<totfact> 0.10405994E+05</totfact>
</mgrwt>
</event>
<event>
 8    1  0.2433467E-024  0.8519132E+02  0.7818608E-02  0.1314933E+00
          2   -1    0    0  501    0  0.00000000000E+00  0.00000000000E+00  0.80063946426E+01  0.80063950486E+01  0.25500000000E-02 0. -1.
         -1   -1    0    0    0  501 -0.00000000000E+00 -0.00000000000E+00 -0.22661763254E+03  0.22661763259E+03  0.50400000000E-02 0.  1.
         24    2    1    2    0    0  0.00000000000E+00  0.00000000000E+00 -0.21861123789E+03  0.23462402764E+03  0.85191320057E+02 0.  0.
         66    2    3    3    0    0 -0.22975256900E+02 -0.21592576039E+02 -0.30583328848E+02  0.43970919841E+02  0.20000046540E+01 0.  0.
        -13    1    3    3    0    0  0.22975256900E+02  0.21592576039E+02 -0.18802790905E+03  0.19065310780E+03  0.10566000000E+00 0.  1.
         13    1    4    4    0    0 -0.82736513596E+01 -0.79321564074E+01 -0.10720877477E+02  0.15694610222E+02  0.10566000000E+00 0. -1.
        -13    1    4    4    0    0 -0.87856037246E+01 -0.75433419340E+01 -0.10615159832E+02  0.15709284600E+02  0.10566000000E+00 0.  1.
        -14    1    4    4    0    0 -0.59160018158E+01 -0.61170776975E+01 -0.92472915380E+01  0.12567025019E+02  0.00000000000E+00 0.  1.
<mgrwt>
<rscale>  0 0.85191320E+02</rscale>
<asrwt>0</asrwt>
<pdfrwt beam="1">  1        2 0.12317532E-02 0.85191320E+02</pdfrwt>
<pdfrwt beam="2">  1       -1 0.34864246E-01 0.85191320E+02</pdfrwt>
<totfact> 0.81544463E+04</totfact>
</mgrwt>
</event>
<event>
 8    1  0.2433467E-024  0.8400200E+02  0.7818608E-02  0.1318063E+00
         -1   -1    0    0    0  501 -0.00000000000E+00  0.00000000000E+00  0.11672064565E+02  0.11672065653E+02  0.50400000000E-02 0.  1.
          2   -1    0    0  501    0  0.00000000000E+00 -0.00000000000E+00 -0.15113725657E+03  0.15113725659E+03  0.25500000000E-02 0. -1.
         24    2    1    2    0    0  0.00000000000E+00  0.00000000000E+00 -0.13946519201E+03  0.16280932225E+03  0.84001997768E+02 0.  0.
         66    2    3    3    0    0  0.22012119883E+02  0.34409442715E+02 -0.51027319112E+02  0.65393657716E+02  0.20000010327E+01 0.  0.
        -13    1    3    3    0    0 -0.22012119883E+02 -0.34409442715E+02 -0.88437872895E+02  0.97415664530E+02  0.10566000000E+00 0.  1.
         13    1    4    4    0    0  0.81078773060E+01  0.12500965611E+02 -0.18162461539E+02  0.23492509207E+02  0.10566000000E+00 0. -1.
        -13    1    4    4    0    0  0.44844667984E+01  0.64405006460E+01 -0.10926786184E+02  0.13453486960E+02  0.10566000000E+00 0.  1.
        -14    1    4    4    0    0  0.94197757786E+01  0.15467976458E+02 -0.21938071388E+02  0.28447661550E+02  0.00000000000E+00 0.  1.
<mgrwt>
<rscale>  0 0.84001998E+02</rscale>
<asrwt>0</asrwt>
<pdfrwt beam="1">  1        2 0.23251884E-01 0.84001998E+02</pdfrwt>
<pdfrwt beam="2">  1       -1 0.17957024E-02 0.84001998E+02</pdfrwt>
<totfact> 0.17633810E+05</totfact>
</mgrwt>
</event>
<event>
 8    1  0.2433467E-024  0.7996007E+02  0.7818608E-02  0.1329165E+00
          2   -1    0    0  501    0  0.00000000000E+00  0.00000000000E+00  0.35823010429E+02  0.35823010520E+02  0.25500000000E-02 0. -1.
         -1   -1    0    0    0  501 -0.00000000000E+00 -0.00000000000E+00 -0.44619453663E+02  0.44619453947E+02  0.50400000000E-02 0.  1.
         24    2    1    2    0    0  0.00000000000E+00  0.35527136788E-14 -0.87964432332E+01  0.80442464467E+02  0.79960069260E+02 0.  0.
         66    2    3    3    0    0  0.20185557044E+02 -0.30622982154E+02  0.11543132075E+02  0.38502826452E+02  0.19999993774E+01 0.  0.
        -13    1    3    3    0    0 -0.20185557044E+02  0.30622982154E+02 -0.20339575308E+02  0.41939638016E+02  0.10566000000E+00 0.  1.
         13    1    4    4    0    0  0.70744384636E+00 -0.15756894967E+01  0.30311652087E+00  0.17567919190E+01  0.10566000000E+00 0.  1.
        -13    1    4    4    0    0  0.89388806060E+01 -0.14109943198E+02  0.53090293035E+01  0.17526866226E+02  0.10566000000E+00 0. -1.
        -14    1    4    4    0    0  0.10539232591E+02 -0.14937349459E+02  0.59309862506E+01  0.19219168306E+02  0.00000000000E+00 0.  1.
<mgrwt>
<rscale>  0 0.79960069E+02</rscale>
<asrwt>0</asrwt>
<pdfrwt beam="1">  1        2 0.55112324E-02 0.79960069E+02</pdfrwt>
<pdfrwt beam="2">  1       -1 0.68645313E-02 0.79960069E+02</pdfrwt>
<totfact> 0.13958341E+05</totfact>
</mgrwt>
</event>
<event>
 8    1  0.2433467E-024  0.8222364E+02  0.7818608E-02  0.1322857E+00
          2   -1    0    0  501    0  0.00000000000E+00  0.00000000000E+00  0.14488398463E+02  0.14488398688E+02  0.25500000000E-02 0. -1.
         -1   -1    0    0    0  501 -0.00000000000E+00 -0.00000000000E+00 -0.11665758632E+03  0.11665758643E+03  0.50400000000E-02 0.  1.
         24    2    1    2    0    0  0.17763568394E-14 -0.71054273576E-14 -0.10216918785E+03  0.13114598512E+03  0.82223636899E+02 0.  0.
         66    2    3    3    0    0  0.11590382955E+02  0.38313912632E+02 -0.36333394817E+02  0.54096288897E+02  0.20000038274E+01 0.  0.
        -13    1    3    3    0    0 -0.11590382955E+02 -0.38313912632E+02 -0.65835793038E+02  0.77049696218E+02  0.10566000000E+00 0.  1.
         13    1    4    4    0    0  0.50007171768E+01  0.18642588346E+02 -0.17807478791E+02  0.26261582920E+02  0.10566000000E+00 0.  1.
        -13    1    4    4    0    0  0.59530049896E+01  0.18543131086E+02 -0.17252450451E+02  0.26018151154E+02  0.10566000000E+00 0. -1.
        -14    1    4    4    0    0  0.63666078818E+00  0.11281932006E+01 -0.12734655741E+01  0.18165548232E+01  0.00000000000E+00 0.  1.
<mgrwt>
<rscale>  0 0.82223637E+02</rscale>
<asrwt>0</asrwt>
<pdfrwt beam="1">  1        2 0.22289845E-02 0.82223637E+02</pdfrwt>
<pdfrwt beam="2">  1       -1 0.17947320E-01 0.82223637E+02</pdfrwt>
<totfact> 0.10696660E+05</totfact>
</mgrwt>
</event>
<event>
 8    1  0.2433467E-024  0.8154925E+02  0.7818608E-02  0.1324712E+00
         -1   -1    0    0    0  501 -0.00000000000E+00  0.00000000000E+00  0.96453043105E+01  0.96453056272E+01  0.50400000000E-02 0.  1.
          2   -1    0    0  501    0  0.00000000000E+00 -0.00000000000E+00 -0.17237091214E+03  0.17237091216E+03  0.25500000000E-02 0. -1.
         24    2    1    2    0    0  0.71054273576E-14  0.35527136788E-14 -0.16272560783E+03  0.18201621779E+03  0.81549249498E+02 0.  0.
         66    2    3    3    0    0 -0.32700033197E+02 -0.22171868577E+02 -0.10369578003E+03  0.11098512839E+03  0.19999998826E+01 0.  0.
        -13    1    3    3    0    0  0.32700033197E+02  0.22171868577E+02 -0.59029827794E+02  0.71031089396E+02  0.10566000000E+00 0.  1.
         13    1    4    4    0    0 -0.15132917352E+02 -0.10922932166E+02 -0.46864476554E+02  0.50444087477E+02  0.10566000000E+00 0. -1.
        -13    1    4    4    0    0 -0.67539023534E+01 -0.44863490859E+01 -0.22677879018E+02  0.24084017229E+02  0.10566000000E+00 0.  1.
         14    1    4    4    0    0 -0.10813213492E+02 -0.67625873252E+01 -0.34153424462E+02  0.36457023683E+02  0.00000000000E+00 0. -1.
<mgrwt>
<rscale>  0 0.81549249E+02</rscale>
<asrwt>0</asrwt>
<pdfrwt beam="1">  1        2 0.26518600E-01 0.81549249E+02</pdfrwt>
<pdfrwt beam="2">  1       -1 0.14838932E-02 0.81549249E+02</pdfrwt>
<totfact> 0.19927526E+05</totfact>
</mgrwt>
</event>
<event>
 8    1  0.2433467E-024  0.7766001E+02  0.7818608E-02  0.1335826E+00
         -1   -1    0    0    0  501 -0.00000000000E+00  0.00000000000E+00  0.37444861884E+02  0.37444862223E+02  0.50400000000E-02 0.  1.
          2   -1    0    0  501    0  0.00000000000E+00 -0.00000000000E+00 -0.40266390386E+02  0.40266390467E+02  0.25500000000E-02 0. -1.
         24    2    1    2    0    0  0.00000000000E+00  0.00000000000E+00 -0.28215285029E+01  0.77711252690E+02  0.77660013981E+02 0.  0.
         66    2    3    3    0    0 -0.35596013161E+02  0.80915174282E+01 -0.14581524872E+02  0.39359492810E+02  0.19999998683E+01 0.  0.
        -13    1    3    3    0    0  0.35596013161E+02 -0.80915174282E+01  0.11759996369E+02  0.38351759880E+02  0.10566000000E+00 0.  1.
         13    1    4    4    0    0 -0.82579331419E+01  0.16975225238E+01 -0.36369600591E+01  0.91822483631E+01  0.10566000000E+00 0. -1.
        -13    1    4    4    0    0 -0.58920567216E+01  0.10028483413E+01 -0.29221669554E+01  0.66537403735E+01  0.10566000000E+00 0.  1.
        -14    1    4    4    0    0 -0.21446023297E+02  0.53911465631E+01 -0.80223978571E+01  0.23523504074E+02  0.00000000000E+00 0.  1.
<mgrwt>
<rscale>  0 0.77660014E+02</rscale>
<asrwt>0</asrwt>
<pdfrwt beam="1">  1        2 0.61948293E-02 0.77660014E+02</pdfrwt>
<pdfrwt beam="2">  1       -1 0.57607480E-02 0.77660014E+02</pdfrwt>
<totfact> 0.15492296E+05</totfact>
</mgrwt>
</event>
<event>
 8    1  0.2433467E-024  0.7957119E+02  0.7818608E-02  0.1330273E+00
          2   -1    0    0  501    0  0.00000000000E+00  0.00000000000E+00  0.34169965360E+03  0.34169965361E+03  0.25500000000E-02 0. -1.
         -1   -1    0    0    0  501 -0.00000000000E+00 -0.00000000000E+00 -0.46324106871E+01  0.46324134289E+01  0.50400000000E-02 0.  1.
         24    2    1    2    0    0  0.00000000000E+00  0.00000000000E+00  0.33706724291E+03  0.34633206704E+03  0.79571190855E+02 0.  0.
         66    2    3    3    0    0 -0.38379512532E+02  0.10167094896E+02  0.17790542510E+03  0.18229288814E+03  0.19999961953E+01 0.  0.
        -13    1    3    3    0    0  0.38379512532E+02 -0.10167094896E+02  0.15916181781E+03  0.16403917890E+03  0.10566000000E+00 0.  1.
         13    1    4    4    0    0 -0.11119310501E+02  0.31698463679E+01  0.49523573640E+02  0.50855506114E+02  0.10566000000E+00 0. -1.
        -13    1    4    4    0    0 -0.97890922673E+01  0.26097044824E+01  0.49204120684E+02  0.50236376673E+02  0.10566000000E+00 0.  1.
        -14    1    4    4    0    0 -0.17471109763E+02  0.43875440460E+01  0.79177730780E+02  0.81201005354E+02  0.00000000000E+00 0.  1.
<mgrwt>
<rscale>  0 0.79571191E+02</rscale>
<asrwt>0</asrwt>
<pdfrwt beam="1">  1        2 0.52569178E-01 0.79571191E+02</pdfrwt>
<pdfrwt beam="2">  1       -1 0.71267878E-03 0.79571191E+02</pdfrwt>
<totfact> 0.27097639E+05</totfact>
</mgrwt>
</event>
<event>
 8    1  0.2433467E-024  0.8415518E+02  0.7818608E-02  0.1317657E+00
          2   -1    0    0  501    0  0.00000000000E+00  0.00000000000E+00  0.10556058927E+02  0.10556059235E+02  0.25500000000E-02 0. -1.
         -1   -1    0    0    0  501 -0.00000000000E+00 -0.00000000000E+00 -0.16772579377E+03  0.16772579385E+03  0.50400000000E-02 0.  1.
         24    2    1    2    0    0  0.00000000000E+00  0.00000000000E+00 -0.15716973484E+03  0.17828185308E+03  0.84155175644E+02 0.  0.
         66    2    3    3    0    0  0.23966314923E+02  0.33305168171E+02 -0.59109125050E+02  0.71982686411E+02  0.20000002261E+01 0.  0.
        -13    1    3    3    0    0 -0.23966314923E+02 -0.33305168171E+02 -0.98060609795E+02  0.10629916667E+03  0.10566000000E+00 0.  1.
         13    1    4    4    0    0  0.11395293766E+00  0.24235726493E+00 -0.31294653469E+00  0.42523156637E+00  0.10566000000E+00 0.  1.
        -13    1    4    4    0    0  0.31844723955E+01  0.38010996145E+01 -0.73298584514E+01  0.88502661921E+01  0.10566000000E+00 0.  1.
         14    1    4    4    0    0  0.20667889590E+02  0.29261711291E+02 -0.51466320064E+02  0.62707188653E+02  0.00000000000E+00 0. -1.
<mgrwt>
<rscale>  0 0.84155176E+02</rscale>
<asrwt>0</asrwt>
<pdfrwt beam="1">  1        2 0.16240092E-02 0.84155176E+02</pdfrwt>
<pdfrwt beam="2">  1       -1 0.25803966E-01 0.84155176E+02</pdfrwt>
<totfact> 0.92125380E+04</totfact>
</mgrwt>
</event>
<event>
 8    1  0.2433467E-024  0.7923310E+02  0.7818608E-02  0.1331242E+00
          2   -1    0    0  501    0  0.00000000000E+00  0.00000000000E+00  0.67445772866E+03  0.67445772866E+03  0.25500000000E-02 0. -1.
         -1   -1    0    0    0  501 -0.00000000000E+00 -0.00000000000E+00 -0.23270092523E+01  0.23270147103E+01  0.50400000000E-02 0.  1.
         24    2    1    2    0    0  0.00000000000E+00  0.00000000000E+00  0.67213071941E+03  0.67678474337E+03  0.79233104784E+02 0.  0.
         66    2    3    3    0    0 -0.41031141646E+01 -0.17949742471E+02  0.63565725468E+03  0.63592701957E+03  0.20000003205E+01 0.  0.
        -13    1    3    3    0    0  0.41031141646E+01  0.17949742471E+02  0.36473464730E+02  0.40857723800E+02  0.10566000000E+00 0.  1.
         13    1    4    4    0    0 -0.16770947132E+01 -0.44771293928E+01  0.17078047377E+03  0.17084741355E+03  0.10566000000E+00 0. -1.
        -13    1    4    4    0    0 -0.97447031923E+00 -0.42970250211E+01  0.16591907003E+03  0.16597759782E+03  0.10566000000E+00 0.  1.
         14    1    4    4    0    0 -0.14515491321E+01 -0.91755880574E+01  0.29895771088E+03  0.29910200820E+03  0.00000000000E+00 0. -1.
<mgrwt>
<rscale>  0 0.79233105E+02</rscale>
<asrwt>0</asrwt>
<pdfrwt beam="1">  1        2 0.10376264E+00 0.79233105E+02</pdfrwt>
<pdfrwt beam="2">  1       -1 0.35800215E-03 0.79233105E+02</pdfrwt>
<totfact> 0.34000666E+05</totfact>
</mgrwt>
</event>
<event>
 8    1  0.2433467E-024  0.8171641E+02  0.7818608E-02  0.1324250E+00
         -1   -1    0    0    0  501 -0.00000000000E+00  0.00000000000E+00  0.54276812606E+01  0.54276836006E+01  0.50400000000E-02 0.  1.
          2   -1    0    0  501    0  0.00000000000E+00 -0.00000000000E+00 -0.30757011467E+03  0.30757011468E+03  0.25500000000E-02 0. -1.
         24    2    1    2    0    0  0.00000000000E+00  0.00000000000E+00 -0.30214243341E+03  0.31299779828E+03  0.81716409994E+02 0.  0.
         66    2    3    3    0    0 -0.32726432260E+02  0.16418258768E+02 -0.81917922860E+02  0.89750346336E+02  0.19999980646E+01 0.  0.
        -13    1    3    3    0    0  0.32726432260E+02 -0.16418258768E+02 -0.22022451055E+03  0.22324745195E+03  0.10566000000E+00 0.  1.
         13    1    4    4    0    0 -0.41146634238E+01  0.26031034605E+01 -0.11847255415E+02  0.12809185283E+02  0.10566000000E+00 0.  1.
        -13    1    4    4    0    0 -0.50103878617E+01  0.24323865873E+01 -0.12938681909E+02  0.14086913949E+02  0.10566000000E+00 0. -1.
        -14    1    4    4    0    0 -0.23601380974E+02  0.11382768720E+02 -0.57131985537E+02  0.62854247104E+02  0.00000000000E+00 0.  1.
<mgrwt>
<rscale>  0 0.81716410E+02</rscale>
<asrwt>0</asrwt>
<pdfrwt beam="1">  1        2 0.47318466E-01 0.81716410E+02</pdfrwt>
<pdfrwt beam="2">  1       -1 0.83502831E-03 0.81716410E+02</pdfrwt>
<totfact> 0.24331811E+05</totfact>
</mgrwt>
</event>
<event>
 8    1  0.2433467E-024  0.8060186E+02  0.7818608E-02  0.1327352E+00
          2   -1    0    0  501    0  0.00000000000E+00  0.00000000000E+00  0.22083869067E+03  0.22083869068E+03  0.25500000000E-02 0. -1.
         -1   -1    0    0    0  501 -0.00000000000E+00 -0.00000000000E+00 -0.73545295872E+01  0.73545313141E+01  0.50400000000E-02 0.  1.
         24    2    1    2    0    0  0.35527136788E-14 -0.35527136788E-14  0.21348416108E+03  0.22819322200E+03  0.80601858124E+02 0.  0.
         66    2    3    3    0    0  0.31237180287E+02  0.24842511902E+02  0.12211871839E+03  0.12849082929E+03  0.19999999571E+01 0.  0.
        -13    1    3    3    0    0 -0.31237180287E+02 -0.24842511902E+02  0.91365442692E+02  0.99702392711E+02  0.10566000000E+00 0.  1.
         13    1    4    4    0    0  0.18684930862E+02  0.14445896348E+02  0.70701953496E+02  0.74542524473E+02  0.10566000000E+00 0. -1.
        -13    1    4    4    0    0  0.70210639087E+01  0.55262570616E+01  0.29699800333E+02  0.31014902215E+02  0.10566000000E+00 0.  1.
        -14    1    4    4    0    0  0.55311855164E+01  0.48703584920E+01  0.21716964561E+02  0.22933402600E+02  0.00000000000E+00 0.  1.
<mgrwt>
<rscale>  0 0.80601858E+02</rscale>
<asrwt>0</asrwt>
<pdfrwt beam="1">  1        2 0.33975187E-01 0.80601858E+02</pdfrwt>
<pdfrwt beam="2">  1       -1 0.11314661E-02 0.80601858E+02</pdfrwt>
<totfact> 0.22391222E+05</totfact>
</mgrwt>
</event>
<event>
 8    1  0.2433467E-024  0.7960625E+02  0.7818608E-02  0.1330173E+00
         -1   -1    0    0    0  501 -0.00000000000E+00  0.00000000000E+00  0.19082019498E+02  0.19082020164E+02  0.50400000000E-02 0.  1.
          2   -1    0    0  501    0  0.00000000000E+00 -0.00000000000E+00 -0.83025205649E+02  0.83025205688E+02  0.25500000000E-02 0. -1.
         24    2    1    2    0    0 -0.88817841970E-15 -0.17763568394E-14 -0.63943186151E+02  0.10210722585E+03  0.79606246715E+02 0.  0.
         66    2    3    3    0    0 -0.22403139861E+01 -0.12346939934E+02 -0.80407726073E+02  0.81405579266E+02  0.19999977491E+01 0.  0.
        -13    1    3    3    0    0  0.22403139861E+01  0.12346939934E+02  0.16464539922E+02  0.20701646586E+02  0.10566000000E+00 0.  1.
         13    1    4    4    0    0 -0.85843366993E+00 -0.84471863138E+01 -0.52551181790E+02  0.53232788172E+02  0.10566000000E+00 0. -1.
        -13    1    4    4    0    0 -0.48983838581E+00 -0.18542620673E+01 -0.15219662533E+02  0.15340388558E+02  0.10566000000E+00 0.  1.
         14    1    4    4    0    0 -0.89204193032E+00 -0.20454915525E+01 -0.12636881750E+02  0.12832402536E+02  0.00000000000E+00 0. -1.
<mgrwt>
<rscale>  0 0.79606247E+02</rscale>
<asrwt>0</asrwt>
<pdfrwt beam="1">  1        2 0.12773108E-01 0.79606247E+02</pdfrwt>
<pdfrwt beam="2">  1       -1 0.29356954E-02 0.79606247E+02</pdfrwt>
<totfact> 0.17082152E+05</totfact>
</mgrwt>
</event>
<event>
 8    1  0.2433467E-024  0.7817536E+02  0.7818608E-02  0.1334311E+00
          2   -1    0    0  501    0  0.00000000000E+00  0.00000000000E+00  0.57741627492E+01  0.57741633122E+01  0.25500000000E-02 0. -1.
         -1   -1    0    0    0  501 -0.00000000000E+00 -0.00000000000E+00 -0.26460055846E+03  0.26460055851E+03  0.50400000000E-02 0.  1.
         24    2    1    2    0    0 -0.35527136788E-14  0.00000000000E+00 -0.25882639571E+03  0.27037472182E+03  0.78175361098E+02 0.  0.
         66    2    3    3    0    0  0.27064926284E+02 -0.24786168879E+02 -0.83228110326E+02  0.90982321210E+02  0.20000054778E+01 0.  0.
        -13    1    3    3    0    0 -0.27064926284E+02  0.24786168879E+02 -0.17559828539E+03  0.17939240061E+03  0.10566000000E+00 0.  1.
         13    1    4    4    0    0  0.98921825145E+01 -0.96553891766E+01 -0.29724608604E+02  0.32781783597E+02  0.10566000000E+00 0. -1.
        -13    1    4    4    0    0  0.55285090585E+00 -0.67318575308E+00 -0.20876145947E+01  0.22645356950E+01  0.10566000000E+00 0. -1.
         14    1    4    4    0    0  0.16619892864E+02 -0.14457593950E+02 -0.51415887127E+02  0.55936001919E+02  0.00000000000E+00 0. -1.
<mgrwt>
<rscale>  0 0.78175361E+02</rscale>
<asrwt>0</asrwt>
<pdfrwt beam="1">  1        2 0.88833298E-03 0.78175361E+02</pdfrwt>
<pdfrwt beam="2">  1       -1 0.40707769E-01 0.78175361E+02</pdfrwt>
<totfact> 0.96246308E+04</totfact>
</mgrwt>
</event>
<event>
 8    1  0.2433467E-024  0.7909838E+02  0.7818608E-02  0.1331630E+00
          2   -1    0    0  501    0  0.00000000000E+00  0.00000000000E+00  0.87149022174E+03  0.87149022174E+03  0.25500000000E-02 0. -1.
         -1   -1    0    0    0  501 -0.00000000000E+00 -0.00000000000E+00 -0.17947825995E+01  0.17947896760E+01  0.50400000000E-02 0.  1.
         24    2    1    2    0    0 -0.35527136788E-14 -0.17763568394E-14  0.86969543914E+03  0.87328501142E+03  0.79098383729E+02 0.  0.
         66    2    3    3    0    0  0.25775098808E+02  0.10363158253E+02  0.74551455006E+03  0.74603464740E+03  0.19999987916E+01 0.  0.
        -13    1    3    3    0    0 -0.25775098808E+02 -0.10363158253E+02  0.12418088908E+03  0.12725036402E+03  0.10566000000E+00 0.  1.
         13    1    4    4    0    0  0.12714109573E+02  0.52663631238E+01  0.38663412329E+03  0.38687897284E+03  0.10566000000E+00 0. -1.
        -13    1    4    4    0    0  0.49374624728E+01  0.22652317323E+01  0.12922455587E+03  0.12933872898E+03  0.10566000000E+00 0.  1.
         14    1    4    4    0    0  0.81235267621E+01  0.28315633966E+01  0.22965587090E+03  0.22981694558E+03  0.00000000000E+00 0. -1.
<mgrwt>
<rscale>  0 0.79098384E+02</rscale>
<asrwt>0</asrwt>
<pdfrwt beam="1">  1        2 0.13407549E+00 0.79098384E+02</pdfrwt>
<pdfrwt beam="2">  1       -1 0.27612080E-03 0.79098384E+02</pdfrwt>
<totfact> 0.35851908E+05</totfact>
</mgrwt>
</event>
<event>
 8    1  0.2433467E-024  0.7722063E+02  0.7818608E-02  0.1337129E+00
         -1   -1    0    0    0  501 -0.00000000000E+00  0.00000000000E+00  0.10446571771E+02  0.10446572986E+02  0.50400000000E-02 0.  1.
          2   -1    0    0  501    0  0.00000000000E+00 -0.00000000000E+00 -0.14270291460E+03  0.14270291463E+03  0.25500000000E-02 0. -1.
         24    2    1    2    0    0  0.71054273576E-14  0.00000000000E+00 -0.13225634283E+03  0.15314948761E+03  0.77220627662E+02 0.  0.
         66    2    3    3    0    0  0.33552011974E+02  0.68308683098E+01 -0.10144751041E+03  0.10708872787E+03  0.19999993471E+01 0.  0.
        -13    1    3    3    0    0 -0.33552011974E+02 -0.68308683098E+01 -0.30808832419E+02  0.46060759747E+02  0.10566000000E+00 0.  1.
         13    1    4    4    0    0  0.30933347848E+01  0.10223786861E+01 -0.91427535535E+01  0.97064455309E+01  0.10566000000E+00 0. -1.
        -13    1    4    4    0    0  0.46627129529E+00 -0.13725607623E-01 -0.16252566853E+01  0.16941725537E+01  0.10566000000E+00 0.  1.
         14    1    4    4    0    0  0.29992405894E+02  0.58222152313E+01 -0.90679500175E+02  0.95688109781E+02  0.00000000000E+00 0. -1.
<mgrwt>
<rscale>  0 0.77220628E+02</rscale>
<asrwt>0</asrwt>
<pdfrwt beam="1">  1        2 0.21954293E-01 0.77220628E+02</pdfrwt>
<pdfrwt beam="2">  1       -1 0.16071651E-02 0.77220628E+02</pdfrwt>
<totfact> 0.21650429E+05</totfact>
</mgrwt>
</event>
<event>
 8    1  0.2433467E-024  0.8150758E+02  0.7818608E-02  0.1324827E+00
          2   -1    0    0  501    0  0.00000000000E+00  0.00000000000E+00  0.82553489870E+02  0.82553489909E+02  0.25500000000E-02 0. -1.
         -1   -1    0    0    0  501 -0.00000000000E+00 -0.00000000000E+00 -0.20118728612E+02  0.20118729243E+02  0.50400000000E-02 0.  1.
         24    2    1    2    0    0  0.00000000000E+00 -0.17763568394E-14  0.62434761258E+02  0.10267221915E+03  0.81507577391E+02 0.  0.
         66    2    3    3    0    0  0.20014799525E+01 -0.10088970144E+02  0.80878311219E+02  0.81554242455E+02  0.19999990691E+01 0.  0.
        -13    1    3    3    0    0 -0.20014799525E+01  0.10088970144E+02 -0.18443549961E+02  0.21117976697E+02  0.10566000000E+00 0.  1.
         13    1    4    4    0    0  0.11878129011E+01 -0.61154038413E+01  0.45649439251E+02  0.46072676627E+02  0.10566000000E+00 0. -1.
        -13    1    4    4    0    0  0.54009850581E+00 -0.50521448369E+00  0.59569272524E+01  0.60035901256E+01  0.10566000000E+00 0.  1.
        -14    1    4    4    0    0  0.27356854555E+00 -0.34683518192E+01  0.29271944716E+02  0.29477975703E+02  0.00000000000E+00 0.  1.
<mgrwt>
<rscale>  0 0.81507577E+02</rscale>
<asrwt>0</asrwt>
<pdfrwt beam="1">  1        2 0.12700537E-01 0.81507577E+02</pdfrwt>
<pdfrwt beam="2">  1       -1 0.30951891E-02 0.81507577E+02</pdfrwt>
<totfact> 0.16005388E+05</totfact>
</mgrwt>
</event>
<event>
 8    1  0.2433467E-024  0.7485344E+02  0.7818608E-02  0.1344325E+00
          2   -1    0    0  501    0  0.00000000000E+00  0.00000000000E+00  0.49372205342E+02  0.49372205407E+02  0.25500000000E-02 0. -1.
         -1   -1    0    0    0  501 -0.00000000000E+00 -0.00000000000E+00 -0.28371418215E+02  0.28371418663E+02  0.50400000000E-02 0.  1.
         24    2    1    2    0    0 -0.88817841970E-15  0.00000000000E+00  0.21000787126E+02  0.77743624070E+02  0.74853443633E+02 0.  0.
         66    2    3    3    0    0  0.46613999775E+01 -0.12610736643E+02  0.46755180883E+02  0.48690925569E+02  0.19999912353E+01 0.  0.
        -13    1    3    3    0    0 -0.46613999775E+01  0.12610736643E+02 -0.25754393756E+02  0.29052698502E+02  0.10566000000E+00 0.  1.
         13    1    4    4    0    0  0.68783103515E+00 -0.91558188983E+00  0.57668074718E+01  0.58803600385E+01  0.10566000000E+00 0. -1.
        -13    1    4    4    0    0  0.26385053665E+01 -0.73338549399E+01  0.25561025873E+02  0.26723105107E+02  0.10566000000E+00 0.  1.
         14    1    4    4    0    0  0.13350635758E+01 -0.43612998135E+01  0.15427347538E+02  0.16087460423E+02  0.00000000000E+00 0. -1.
<mgrwt>
<rscale>  0 0.74853444E+02</rscale>
<asrwt>0</asrwt>
<pdfrwt beam="1">  1        2 0.75957238E-02 0.74853444E+02</pdfrwt>
<pdfrwt beam="2">  1       -1 0.43648337E-02 0.74853444E+02</pdfrwt>
<totfact> 0.17864683E+05</totfact>
</mgrwt>
</event>
<event>
 8    1  0.2433467E-024  0.8107989E+02  0.7818608E-02  0.1326015E+00
          2   -1    0    0  501    0  0.00000000000E+00  0.00000000000E+00  0.18245217863E+03  0.18245217864E+03  0.25500000000E-02 0. -1.
         -1   -1    0    0    0  501 -0.00000000000E+00 -0.00000000000E+00 -0.90077675450E+01  0.90077689550E+01  0.50400000000E-02 0.  1.
         24    2    1    2    0    0  0.00000000000E+00  0.00000000000E+00  0.17344441108E+03  0.19145994760E+03  0.81079885294E+02 0.  0.
         66    2    3    3    0    0  0.20869951220E+02  0.33288356153E+02  0.63420793707E+02  0.74631538967E+02  0.20000037163E+01 0.  0.
        -13    1    3    3    0    0 -0.20869951220E+02 -0.33288356153E+02  0.11002361737E+03  0.11682840863E+03  0.10566000000E+00 0.  1.
         13    1    4    4    0    0  0.94864683522E+01  0.15864303746E+02  0.29774108858E+02  0.35045369701E+02  0.10566000000E+00 0.  1.
        -13    1    4    4    0    0  0.34844628850E+00  0.10295268559E+01  0.18662594891E+01  0.21622740065E+01  0.10566000000E+00 0. -1.
         14    1    4    4    0    0  0.11035036580E+02  0.16394525551E+02  0.31780425360E+02  0.37423895260E+02  0.00000000000E+00 0. -1.
<mgrwt>
<rscale>  0 0.81079885E+02</rscale>
<asrwt>0</asrwt>
<pdfrwt beam="1">  1        2 0.28069568E-01 0.81079885E+02</pdfrwt>
<pdfrwt beam="2">  1       -1 0.13858104E-02 0.81079885E+02</pdfrwt>
<totfact> 0.20627891E+05</totfact>
</mgrwt>
</event>
<event>
 8    1  0.2433467E-024  0.8154536E+02  0.7818608E-02  0.1324722E+00
         -1   -1    0    0    0  501 -0.00000000000E+00  0.00000000000E+00  0.58404038608E+01  0.58404060354E+01  0.50400000000E-02 0.  1.
          2   -1    0    0  501    0  0.00000000000E+00 -0.00000000000E+00 -0.28463974458E+03  0.28463974459E+03  0.25500000000E-02 0. -1.
         24    2    1    2    0    0  0.00000000000E+00  0.00000000000E+00 -0.27879934072E+03  0.29048015063E+03  0.81545358683E+02 0.  0.
         66    2    3    3    0    0  0.31439169831E+02  0.10208228798E+02 -0.22436343941E+03  0.22679414078E+03  0.20000034763E+01 0.  0.
        -13    1    3    3    0    0 -0.31439169831E+02 -0.10208228798E+02 -0.54435901316E+02  0.63686009853E+02  0.10566000000E+00 0.  1.
         13    1    4    4    0    0  0.78606920873E+01  0.25603447159E+01 -0.51676306520E+02  0.52333523336E+02  0.10566000000E+00 0. -1.
        -13    1    4    4    0    0  0.89968383497E+01  0.33008006769E+01 -0.64018541127E+02  0.64731933058E+02  0.10566000000E+00 0.  1.
        -14    1    4    4    0    0  0.14581639394E+02  0.43470834047E+01 -0.10866859176E+03  0.10972868438E+03  0.00000000000E+00 0.  1.
<mgrwt>
<rscale>  0 0.81545359E+02</rscale>
<asrwt>0</asrwt>
<pdfrwt beam="1">  1        2 0.43790719E-01 0.81545359E+02</pdfrwt>
<pdfrwt beam="2">  1       -1 0.89852407E-03 0.81545359E+02</pdfrwt>
<totfact> 0.23787875E+05</totfact>
</mgrwt>
</event>
<event>
 8    1  0.2433467E-024  0.7959175E+02  0.7818608E-02  0.1330214E+00
         -1   -1    0    0    0  501 -0.00000000000E+00  0.00000000000E+00  0.23464276449E+02  0.23464276990E+02  0.50400000000E-02 0.  1.
          2   -1    0    0  501    0  0.00000000000E+00 -0.00000000000E+00 -0.67494586672E+02  0.67494586720E+02  0.25500000000E-02 0. -1.
         24    2    1    2    0    0  0.00000000000E+00 -0.35527136788E-14 -0.44030310223E+02  0.90958863710E+02  0.79591750007E+02 0.  0.
         66    2    3    3    0    0 -0.73859157661E+01 -0.21753788056E+02 -0.59129740510E+02  0.63467355830E+02  0.19999992139E+01 0.  0.
        -13    1    3    3    0    0  0.73859157661E+01  0.21753788056E+02  0.15099430286E+02  0.27491507880E+02  0.10566000000E+00 0.  1.
         13    1    4    4    0    0 -0.57801383482E+01 -0.16048667745E+02 -0.43182965797E+02  0.46430048835E+02  0.10566000000E+00 0. -1.
        -13    1    4    4    0    0 -0.80428706109E+00 -0.41861469195E+01 -0.10786213578E+02  0.11598459858E+02  0.10566000000E+00 0.  1.
        -14    1    4    4    0    0 -0.80149035682E+00 -0.15189733923E+01 -0.51605611347E+01  0.54388471373E+01  0.00000000000E+00 0.  1.
<mgrwt>
<rscale>  0 0.79591750E+02</rscale>
<asrwt>0</asrwt>
<pdfrwt beam="1">  1        2 0.10383782E-01 0.79591750E+02</pdfrwt>
<pdfrwt beam="2">  1       -1 0.36098888E-02 0.79591750E+02</pdfrwt>
<totfact> 0.16227755E+05</totfact>
</mgrwt>
</event>
<event>
 8    1  0.2433467E-024  0.8566365E+02  0.7818608E-02  0.1313706E+00
         -1   -1    0    0    0  501 -0.00000000000E+00  0.00000000000E+00  0.13131898632E+02  0.13131899599E+02  0.50400000000E-02 0.  1.
          2   -1    0    0  501    0  0.00000000000E+00 -0.00000000000E+00 -0.13970295361E+03  0.13970295363E+03  0.25500000000E-02 0. -1.
         24    2    1    2    0    0  0.00000000000E+00  0.00000000000E+00 -0.12657105498E+03  0.15283485323E+03  0.85663646923E+02 0.  0.
         66    2    3    3    0    0 -0.27910553258E+01  0.33596707180E+02 -0.11038949852E+03  0.11543989827E+03  0.20000016122E+01 0.  0.
        -13    1    3    3    0    0  0.27910553258E+01 -0.33596707180E+02 -0.16181556462E+02  0.37394954964E+02  0.10566000000E+00 0.  1.
         13    1    4    4    0    0 -0.13538618514E+01  0.21281254012E+02 -0.70401898660E+02  0.73560609114E+02  0.10566000000E+00 0. -1.
        -13    1    4    4    0    0 -0.15824270139E+01  0.10409396455E+02 -0.34191224391E+02  0.35775838204E+02  0.10566000000E+00 0.  1.
        -14    1    4    4    0    0  0.14523353952E+00  0.19060567130E+01 -0.57963754641E+01  0.61034509497E+01  0.00000000000E+00 0.  1.
<mgrwt>
<rscale>  0 0.85663647E+02</rscale>
<asrwt>0</asrwt>
<pdfrwt beam="1">  1        2 0.21492761E-01 0.85663647E+02</pdfrwt>
<pdfrwt beam="2">  1       -1 0.20202923E-02 0.85663647E+02</pdfrwt>
<totfact> 0.16315210E+05</totfact>
</mgrwt>
</event>
<event>
 8    1  0.2433467E-024  0.8103557E+02  0.7818608E-02  0.1326138E+00
         -1   -1    0    0    0  501 -0.00000000000E+00  0.00000000000E+00  0.23611026243E+01  0.23611080035E+01  0.50400000000E-02 0.  1.
          2   -1    0    0  501    0  0.00000000000E+00 -0.00000000000E+00 -0.69530602863E+03  0.69530602864E+03  0.25500000000E-02 0. -1.
         24    2    1    2    0    0  0.17763568394E-14  0.71054273576E-14 -0.69294492601E+03  0.69766713664E+03  0.81035566684E+02 0.  0.
         66    2    3    3    0    0 -0.12035645033E+02 -0.32076282487E+02 -0.53252246019E+03  0.53362713130E+03  0.20000002815E+01 0.  0.
        -13    1    3    3    0    0  0.12035645033E+02  0.32076282487E+02 -0.16042246582E+03  0.16404000534E+03  0.10566000000E+00 0.  1.
         13    1    4    4    0    0 -0.78741496320E+01 -0.21742656348E+02 -0.37043315281E+03  0.37115424987E+03  0.10566000000E+00 0. -1.
        -13    1    4    4    0    0 -0.24863512762E+01 -0.63354256541E+01 -0.10322155061E+03  0.10344573087E+03  0.10566000000E+00 0.  1.
        -14    1    4    4    0    0 -0.16751441251E+01 -0.39982004846E+01 -0.58867756778E+02  0.59027150559E+02  0.00000000000E+00 0.  1.
<mgrwt>
<rscale>  0 0.81035567E+02</rscale>
<asrwt>0</asrwt>
<pdfrwt beam="1">  1        2 0.10696999E+00 0.81035567E+02</pdfrwt>
<pdfrwt beam="2">  1       -1 0.36324753E-03 0.81035567E+02</pdfrwt>
<totfact> 0.32300994E+05</totfact>
</mgrwt>
</event>
<event>
 8    1  0.2433467E-024  0.7981655E+02  0.7818608E-02  0.1329573E+00
          2   -1    0    0  501    0  0.00000000000E+00  0.00000000000E+00  0.37519188783E+02  0.37519188869E+02  0.25500000000E-02 0. -1.
         -1   -1    0    0    0  501 -0.00000000000E+00 -0.00000000000E+00 -0.42449489352E+02  0.42449489651E+02  0.50400000000E-02 0.  1.
         24    2    1    2    0    0  0.00000000000E+00  0.00000000000E+00 -0.49303005694E+01  0.79968678521E+02  0.79816550168E+02 0.  0.
         66    2    3    3    0    0  0.38930126489E+02  0.86023031226E+01 -0.14105986078E+01  0.39944263055E+02  0.19999987850E+01 0.  0.
        -13    1    3    3    0    0 -0.38930126489E+02 -0.86023031226E+01 -0.35197019616E+01  0.40024415466E+02  0.10566000000E+00 0.  1.
         13    1    4    4    0    0  0.29390914449E+02  0.65923044200E+01 -0.13942890127E+01  0.30153599049E+02  0.10566000000E+00 0. -1.
        -13    1    4    4    0    0  0.83276864609E+01  0.19449648770E+01 -0.24532704674E+00  0.85559686511E+01  0.10566000000E+00 0.  1.
        -14    1    4    4    0    0  0.12115255785E+01  0.65033825562E-01  0.22901745167E+00  0.12346953548E+01  0.00000000000E+00 0.  1.
<mgrwt>
<rscale>  0 0.79816550E+02</rscale>
<asrwt>0</asrwt>
<pdfrwt beam="1">  1        2 0.57721829E-02 0.79816550E+02</pdfrwt>
<pdfrwt beam="2">  1       -1 0.65306907E-02 0.79816550E+02</pdfrwt>
<totfact> 0.14159829E+05</totfact>
</mgrwt>
</event>
<event>
 8    1  0.2433467E-024  0.7700603E+02  0.7818608E-02  0.1337769E+00
          2   -1    0    0  501    0  0.00000000000E+00  0.00000000000E+00  0.29458347327E+03  0.29458347328E+03  0.25500000000E-02 0. -1.
         -1   -1    0    0    0  501 -0.00000000000E+00 -0.00000000000E+00 -0.50324673638E+01  0.50324698876E+01  0.50400000000E-02 0.  1.
         24    2    1    2    0    0  0.35527136788E-14  0.00000000000E+00  0.28955100591E+03  0.29961594317E+03  0.77006028202E+02 0.  0.
         66    2    3    3    0    0 -0.28449641716E+02 -0.34624999222E+01  0.24476193761E+03  0.24644223893E+03  0.20000018238E+01 0.  0.
        -13    1    3    3    0    0  0.28449641716E+02  0.34624999222E+01  0.44789068297E+02  0.53173704238E+02  0.10566000000E+00 0.  1.
         13    1    4    4    0    0 -0.16584562519E+02 -0.13623335166E+01  0.14048506295E+03  0.14146719670E+03  0.10566000000E+00 0. -1.
        -13    1    4    4    0    0 -0.63170158371E+01 -0.15492469884E+01  0.54435529320E+02  0.54822831664E+02  0.10566000000E+00 0.  1.
         14    1    4    4    0    0 -0.55480633595E+01 -0.55091941722E+00  0.49841345339E+02  0.50152210564E+02  0.00000000000E+00 0. -1.
<mgrwt>
<rscale>  0 0.77006028E+02</rscale>
<asrwt>0</asrwt>
<pdfrwt beam="1">  1        2 0.45320534E-01 0.77006028E+02</pdfrwt>
<pdfrwt beam="2">  1       -1 0.77422595E-03 0.77006028E+02</pdfrwt>
<totfact> 0.27985930E+05</totfact>
</mgrwt>
</event>
<event>
 8    1  0.2433467E-024  0.7922079E+02  0.7818608E-02  0.1331277E+00
          2   -1    0    0  501    0  0.00000000000E+00  0.00000000000E+00  0.13881270858E+03  0.13881270860E+03  0.25500000000E-02 0. -1.
         -1   -1    0    0    0  501 -0.00000000000E+00 -0.00000000000E+00 -0.11302879748E+02  0.11302880872E+02  0.50400000000E-02 0.  1.
         24    2    1    2    0    0 -0.17763568394E-14  0.00000000000E+00  0.12750982883E+03  0.15011558948E+03  0.79220791177E+02 0.  0.
         66    2    3    3    0    0 -0.81731965618E+01 -0.90609866157E+01  0.13515239795E+03  0.13571688651E+03  0.19999976986E+01 0.  0.
        -13    1    3    3    0    0  0.81731965618E+01  0.90609866157E+01 -0.76425691168E+01  0.14398702970E+02  0.10566000000E+00 0.  1.
         13    1    4    4    0    0 -0.45189261746E+01 -0.61132449125E+01  0.77766182921E+02  0.78136949181E+02  0.10566000000E+00 0. -1.
        -13    1    4    4    0    0 -0.11000722300E+01 -0.11546442242E+01  0.19702350432E+02  0.19767072084E+02  0.10566000000E+00 0. -1.
        -14    1    4    4    0    0 -0.25541981572E+01 -0.17930974791E+01  0.37683864596E+02  0.37812865240E+02  0.00000000000E+00 0.  1.
<mgrwt>
<rscale>  0 0.79220791E+02</rscale>
<asrwt>0</asrwt>
<pdfrwt beam="1">  1        2 0.21355802E-01 0.79220791E+02</pdfrwt>
<pdfrwt beam="2">  1       -1 0.17389046E-02 0.79220791E+02</pdfrwt>
<totfact> 0.20056368E+05</totfact>
</mgrwt>
</event>
<event>
 8    1  0.2433467E-024  0.7468899E+02  0.7818608E-02  0.1344837E+00
         -1   -1    0    0    0  501 -0.00000000000E+00  0.00000000000E+00  0.39466763199E+02  0.39466763521E+02  0.50400000000E-02 0.  1.
          2   -1    0    0  501    0  0.00000000000E+00 -0.00000000000E+00 -0.35336352206E+02  0.35336352298E+02  0.25500000000E-02 0. -1.
         24    2    1    2    0    0 -0.17763568394E-14  0.44408920985E-15  0.41304109931E+01  0.74803115820E+02  0.74688994111E+02 0.  0.
         66    2    3    3    0    0  0.95433199471E+01  0.32660242948E+01 -0.33916821078E+02  0.35441397074E+02  0.20000010387E+01 0.  0.
        -13    1    3    3    0    0 -0.95433199471E+01 -0.32660242948E+01  0.38047232071E+02  0.39361718746E+02  0.10566000000E+00 0.  1.
         13    1    4    4    0    0  0.26553419587E+01  0.11112187345E+01 -0.12238963169E+02  0.12573346073E+02  0.10566000000E+00 0. -1.
        -13    1    4    4    0    0  0.69038250507E+01  0.20926366487E+01 -0.21424072646E+02  0.22606281898E+02  0.10566000000E+00 0.  1.
         14    1    4    4    0    0 -0.15847062321E-01  0.62168911500E-01 -0.25378526343E+00  0.26176910222E+00  0.00000000000E+00 0. -1.
<mgrwt>
<rscale>  0 0.74688994E+02</rscale>
<asrwt>0</asrwt>
<pdfrwt beam="1">  1        2 0.54363619E-02 0.74688994E+02</pdfrwt>
<pdfrwt beam="2">  1       -1 0.60718098E-02 0.74688994E+02</pdfrwt>
<totfact> 0.16807480E+05</totfact>
</mgrwt>
</event>
<event>
 8    1  0.2433467E-024  0.8010645E+02  0.7818608E-02  0.1328750E+00
          2   -1    0    0  501    0  0.00000000000E+00  0.00000000000E+00  0.42084205417E+03  0.42084205418E+03  0.25500000000E-02 0. -1.
         -1   -1    0    0    0  501 -0.00000000000E+00 -0.00000000000E+00 -0.38120244727E+01  0.38120278045E+01  0.50400000000E-02 0.  1.
         24    2    1    2    0    0  0.00000000000E+00  0.88817841970E-15  0.41703002970E+03  0.42465408199E+03  0.80106452142E+02 0.  0.
         66    2    3    3    0    0  0.93390923483E+01  0.75088598532E+01  0.41110684988E+03  0.41128632805E+03  0.19999989713E+01 0.  0.
        -13    1    3    3    0    0 -0.93390923483E+01 -0.75088598532E+01  0.59231798193E+01  0.13367753940E+02  0.10566000000E+00 0.  1.
         13    1    4    4    0    0  0.64304024347E+01  0.49100160086E+01  0.26694234019E+03  0.26706494058E+03  0.10566000000E+00 0. -1.
        -13    1    4    4    0    0  0.21032897210E+01  0.24400966609E+01  0.11163595203E+03  0.11168247333E+03  0.10566000000E+00 0.  1.
        -14    1    4    4    0    0  0.80540019259E+00  0.15874718367E+00  0.32528557657E+02  0.32538914139E+02  0.00000000000E+00 0.  1.
<mgrwt>
<rscale>  0 0.80106452E+02</rscale>
<asrwt>0</asrwt>
<pdfrwt beam="1">  1        2 0.64744920E-01 0.80106452E+02</pdfrwt>
<pdfrwt beam="2">  1       -1 0.58646567E-03 0.80106452E+02</pdfrwt>
<totfact> 0.28656249E+05</totfact>
</mgrwt>
</event>
<event>
 8    1  0.2433467E-024  0.8255801E+02  0.7818608E-02  0.1321945E+00
          2   -1    0    0  501    0  0.00000000000E+00  0.00000000000E+00  0.42439655524E+03  0.42439655525E+03  0.25500000000E-02 0. -1.
         -1   -1    0    0    0  501 -0.00000000000E+00 -0.00000000000E+00 -0.40150083623E+01  0.40150115256E+01  0.50400000000E-02 0.  1.
         24    2    1    2    0    0  0.71054273576E-14  0.00000000000E+00  0.42038154688E+03  0.42841156677E+03  0.82558013480E+02 0.  0.
         66    2    3    3    0    0 -0.24574260510E+02  0.45697534320E+01  0.38062567826E+03  0.38145076206E+03  0.19999991060E+01 0.  0.
        -13    1    3    3    0    0  0.24574260510E+02 -0.45697534320E+01  0.39755868616E+02  0.46960804715E+02  0.10566000000E+00 0.  1.
         13    1    4    4    0    0 -0.18314405441E+02  0.35150104665E+01  0.28196819868E+03  0.28258423342E+03  0.10566000000E+00 0. -1.
        -13    1    4    4    0    0 -0.62438025091E+00  0.17794021264E+00  0.66497194255E+01  0.66821737399E+01  0.10566000000E+00 0. -1.
         14    1    4    4    0    0 -0.56354748184E+01  0.87680275292E+00  0.92007760151E+02  0.92184354895E+02  0.00000000000E+00 0. -1.
<mgrwt>
<rscale>  0 0.82558013E+02</rscale>
<asrwt>0</asrwt>
<pdfrwt beam="1">  1        2 0.65291747E-01 0.82558013E+02</pdfrwt>
<pdfrwt beam="2">  1       -1 0.61769414E-03 0.82558013E+02</pdfrwt>
<totfact> 0.26560965E+05</totfact>
</mgrwt>
</event>
<event>
 8    1  0.2433467E-024  0.8177187E+02  0.7818608E-02  0.1324097E+00
          2   -1    0    0  501    0  0.00000000000E+00  0.00000000000E+00  0.25257778827E+03  0.25257778828E+03  0.25500000000E-02 0. -1.
         -1   -1    0    0    0  501 -0.00000000000E+00 -0.00000000000E+00 -0.66183941168E+01  0.66183960358E+01  0.50400000000E-02 0.  1.
         24    2    1    2    0    0  0.00000000000E+00  0.00000000000E+00  0.24595939415E+03  0.25919618431E+03  0.81771867981E+02 0.  0.
         66    2    3    3    0    0  0.94077375064E+01  0.33606476998E+02  0.19042446168E+03  0.19360624065E+03  0.19999981274E+01 0.  0.
        -13    1    3    3    0    0 -0.94077375064E+01 -0.33606476998E+02  0.55534932471E+02  0.65589943664E+02  0.10566000000E+00 0.  1.
         13    1    4    4    0    0  0.71944396198E+01  0.23259619822E+02  0.13496916395E+03  0.13714757110E+03  0.10566000000E+00 0. -1.
        -13    1    4    4    0    0  0.74144576467E-01  0.65488054057E+00  0.31336478371E+01  0.32039473689E+01  0.10566000000E+00 0.  1.
         14    1    4    4    0    0  0.21391533101E+01  0.96919766353E+01  0.52321649888E+02  0.53254722185E+02  0.00000000000E+00 0. -1.
<mgrwt>
<rscale>  0 0.81771868E+02</rscale>
<asrwt>0</asrwt>
<pdfrwt beam="1">  1        2 0.38858118E-01 0.81771868E+02</pdfrwt>
<pdfrwt beam="2">  1       -1 0.10182147E-02 0.81771868E+02</pdfrwt>
<totfact> 0.22614319E+05</totfact>
</mgrwt>
</event>
<event>
 8    1  0.2433467E-024  0.7977602E+02  0.7818608E-02  0.1329688E+00
          2   -1    0    0  501    0  0.00000000000E+00  0.00000000000E+00  0.40033522731E+02  0.40033522812E+02  0.25500000000E-02 0. -1.
         -1   -1    0    0    0  501 -0.00000000000E+00 -0.00000000000E+00 -0.39743027905E+02  0.39743028224E+02  0.50400000000E-02 0.  1.
         24    2    1    2    0    0 -0.88817841970E-15  0.00000000000E+00  0.29049482586E+00  0.79776551036E+02  0.79776022137E+02 0.  0.
         66    2    3    3    0    0  0.77833548147E+01 -0.37729011276E+02  0.10391848076E+02  0.39950587073E+02  0.19999992547E+01 0.  0.
        -13    1    3    3    0    0 -0.77833548147E+01  0.37729011276E+02 -0.10101353250E+02  0.39825963963E+02  0.10566000000E+00 0.  1.
         13    1    4    4    0    0  0.22995017088E+01 -0.14276197146E+02  0.36680140972E+01  0.14918545657E+02  0.10566000000E+00 0. -1.
        -13    1    4    4    0    0  0.11807504150E+01 -0.35347279223E+01  0.83471713452E+00  0.38205221838E+01  0.10566000000E+00 0.  1.
        -14    1    4    4    0    0  0.43031026909E+01 -0.19918086208E+02  0.58891168439E+01  0.21211519233E+02  0.00000000000E+00 0.  1.
<mgrwt>
<rscale>  0 0.79776022E+02</rscale>
<asrwt>0</asrwt>
<pdfrwt beam="1">  1        2 0.61590035E-02 0.79776022E+02</pdfrwt>
<pdfrwt beam="2">  1       -1 0.61143120E-02 0.79776022E+02</pdfrwt>
<totfact> 0.14368614E+05</totfact>
</mgrwt>
</event>
<event>
 8    1  0.2433467E-024  0.7904816E+02  0.7818608E-02  0.1331775E+00
          2   -1    0    0  501    0  0.00000000000E+00  0.00000000000E+00  0.60295781671E+02  0.60295781725E+02  0.25500000000E-02 0. -1.
         -1   -1    0    0    0  501 -0.00000000000E+00 -0.00000000000E+00 -0.25908163430E+02  0.25908163921E+02  0.50400000000E-02 0.  1.
         24    2    1    2    0    0  0.00000000000E+00  0.00000000000E+00  0.34387618241E+02  0.86203945646E+02  0.79048162259E+02 0.  0.
         66    2    3    3    0    0  0.34609097932E+02 -0.62862036903E+01  0.36799114158E+02  0.50945861564E+02  0.19999978027E+01 0.  0.
        -13    1    3    3    0    0 -0.34609097932E+02  0.62862036903E+01 -0.24114959173E+01  0.35258084081E+02  0.10566000000E+00 0.  1.
         13    1    4    4    0    0  0.27515992242E+02 -0.46322108288E+01  0.29976842727E+02  0.40953747937E+02  0.10566000000E+00 0. -1.
        -13    1    4    4    0    0  0.21627957394E+01 -0.30880510735E+00  0.21726329991E+01  0.30829440781E+01  0.10566000000E+00 0.  1.
         14    1    4    4    0    0  0.49303099503E+01 -0.13451877541E+01  0.46496384324E+01  0.69091695486E+01  0.00000000000E+00 0. -1.
<mgrwt>
<rscale>  0 0.79048162E+02</rscale>
<asrwt>0</asrwt>
<pdfrwt beam="1">  1        2 0.92762741E-02 0.79048162E+02</pdfrwt>
<pdfrwt beam="2">  1       -1 0.39858713E-02 0.79048162E+02</pdfrwt>
<totfact> 0.16099223E+05</totfact>
</mgrwt>
</event>
<event>
 8    1  0.2433467E-024  0.7906761E+02  0.7818608E-02  0.1331718E+00
         -1   -1    0    0    0  501 -0.00000000000E+00  0.00000000000E+00  0.46423966894E+01  0.46423994252E+01  0.50400000000E-02 0.  1.
          2   -1    0    0  501    0  0.00000000000E+00 -0.00000000000E+00 -0.33666259237E+03  0.33666259238E+03  0.25500000000E-02 0. -1.
         24    2    1    2    0    0  0.00000000000E+00  0.35527136788E-14 -0.33202019568E+03  0.34130499180E+03  0.79067610885E+02 0.  0.
         66    2    3    3    0    0  0.25285771396E+02  0.20645258699E+02 -0.26218582408E+03  0.26421771943E+03  0.19999921185E+01 0.  0.
        -13    1    3    3    0    0 -0.25285771396E+02 -0.20645258699E+02 -0.69834371597E+02  0.77087272375E+02  0.10566000000E+00 0.  1.
         13    1    4    4    0    0  0.19777556581E+01  0.20710400726E+01 -0.24791263790E+02  0.24956334843E+02  0.10566000000E+00 0. -1.
        -13    1    4    4    0    0  0.16203558832E+02  0.13262083041E+02 -0.17069472552E+03  0.17197423834E+03  0.10566000000E+00 0.  1.
        -14    1    4    4    0    0  0.71044569056E+01  0.53121355861E+01 -0.66699834766E+02  0.67287146249E+02  0.00000000000E+00 0.  1.
<mgrwt>
<rscale>  0 0.79067611E+02</rscale>
<asrwt>0</asrwt>
<pdfrwt beam="1">  1        2 0.51794226E-01 0.79067611E+02</pdfrwt>
<pdfrwt beam="2">  1       -1 0.71421535E-03 0.79067611E+02</pdfrwt>
<totfact> 0.27405112E+05</totfact>
</mgrwt>
</event>
<event>
 8    1  0.2433467E-024  0.8025367E+02  0.7818608E-02  0.1328333E+00
         -1   -1    0    0    0  501 -0.00000000000E+00  0.00000000000E+00  0.21044111009E+01  0.21044171363E+01  0.50400000000E-02 0.  1.
          2   -1    0    0  501    0  0.00000000000E+00 -0.00000000000E+00 -0.76513602264E+03  0.76513602265E+03  0.25500000000E-02 0. -1.
         24    2    1    2    0    0 -0.35527136788E-14  0.00000000000E+00 -0.76303161154E+03  0.76724043978E+03  0.80253674226E+02 0.  0.
         66    2    3    3    0    0 -0.16185425971E+02 -0.64083860521E+01 -0.72712814382E+03  0.72733924201E+03  0.19999998384E+01 0.  0.
        -13    1    3    3    0    0  0.16185425971E+02  0.64083860521E+01 -0.35903467719E+02  0.39901197776E+02  0.10566000000E+00 0.  1.
         13    1    4    4    0    0 -0.11025904312E+02 -0.39426355551E+01 -0.48010623231E+03  0.48024901916E+03  0.10566000000E+00 0. -1.
        -13    1    4    4    0    0 -0.35857357250E+01 -0.18776515181E+01 -0.15443350721E+03  0.15448657673E+03  0.10566000000E+00 0.  1.
         14    1    4    4    0    0 -0.15737859341E+01 -0.58809897889E+00 -0.92588404302E+02  0.92603646115E+02  0.00000000000E+00 0. -1.
<mgrwt>
<rscale>  0 0.80253674E+02</rscale>
<asrwt>0</asrwt>
<pdfrwt beam="1">  1        2 0.11771301E+00 0.80253674E+02</pdfrwt>
<pdfrwt beam="2">  1       -1 0.32375663E-03 0.80253674E+02</pdfrwt>
<totfact> 0.33807566E+05</totfact>
</mgrwt>
</event>
<event>
 8    1  0.2433467E-024  0.7902882E+02  0.7818608E-02  0.1331830E+00
          2   -1    0    0  501    0  0.00000000000E+00  0.00000000000E+00  0.28251979766E+03  0.28251979767E+03  0.25500000000E-02 0. -1.
         -1   -1    0    0    0  501 -0.00000000000E+00 -0.00000000000E+00 -0.55266502875E+01  0.55266525856E+01  0.50400000000E-02 0.  1.
         24    2    1    2    0    0  0.35527136788E-14 -0.35527136788E-14  0.27699314737E+03  0.28804645025E+03  0.79028816355E+02 0.  0.
         66    2    3    3    0    0  0.30491201627E+02 -0.22171111413E+02  0.18141942630E+03  0.18530590869E+03  0.19999995367E+01 0.  0.
        -13    1    3    3    0    0 -0.30491201627E+02  0.22171111413E+02  0.95573721067E+02  0.10274054156E+03  0.10566000000E+00 0.  1.
         13    1    4    4    0    0  0.13768513731E+02 -0.10470460877E+02  0.79678769320E+02  0.81534777646E+02  0.10566000000E+00 0. -1.
        -13    1    4    4    0    0  0.55911781072E+01 -0.34507736997E+01  0.32238072064E+02  0.32900966037E+02  0.10566000000E+00 0.  1.
        -14    1    4    4    0    0  0.11131509789E+02 -0.82498768361E+01  0.69502584920E+02  0.70870165010E+02  0.00000000000E+00 0.  1.
<mgrwt>
<rscale>  0 0.79028816E+02</rscale>
<asrwt>0</asrwt>
<pdfrwt beam="1">  1        2 0.43464580E-01 0.79028816E+02</pdfrwt>
<pdfrwt beam="2">  1       -1 0.85025415E-03 0.79028816E+02</pdfrwt>
<totfact> 0.25757980E+05</totfact>
</mgrwt>
</event>
<event>
 8    1  0.2433467E-024  0.7881466E+02  0.7818608E-02  0.1332449E+00
         -1   -1    0    0    0  501 -0.00000000000E+00  0.00000000000E+00  0.68292462452E+01  0.68292481050E+01  0.50400000000E-02 0.  1.
          2   -1    0    0  501    0  0.00000000000E+00 -0.00000000000E+00 -0.22739516428E+03  0.22739516429E+03  0.25500000000E-02 0. -1.
         24    2    1    2    0    0  0.00000000000E+00 -0.35527136788E-14 -0.22056591804E+03  0.23422441240E+03  0.78814663390E+02 0.  0.
         66    2    3    3    0    0 -0.28371705571E+02  0.21268236141E+02 -0.16127908937E+03  0.16514307800E+03  0.19999991805E+01 0.  0.
        -13    1    3    3    0    0  0.28371705571E+02 -0.21268236141E+02 -0.59286828660E+02  0.69081334398E+02  0.10566000000E+00 0.  1.
         13    1    4    4    0    0 -0.18916611126E+02  0.14282065476E+02 -0.10999613250E+03  0.11252100204E+03  0.10566000000E+00 0. -1.
        -13    1    4    4    0    0 -0.86653343586E+01  0.63931080492E+01 -0.45635652809E+02  0.46889058654E+02  0.10566000000E+00 0.  1.
        -14    1    4    4    0    0 -0.78976008633E+00  0.59306261569E+00 -0.56473040654E+01  0.57330173092E+01  0.00000000000E+00 0.  1.
<mgrwt>
<rscale>  0 0.78814663E+02</rscale>
<asrwt>0</asrwt>
<pdfrwt beam="1">  1        2 0.34983866E-01 0.78814663E+02</pdfrwt>
<pdfrwt beam="2">  1       -1 0.10506536E-02 0.78814663E+02</pdfrwt>
<totfact> 0.23999785E+05</totfact>
</mgrwt>
</event>
<event>
 8    1  0.2433467E-024  0.7951313E+02  0.7818608E-02  0.1330439E+00
         -1   -1    0    0    0  501 -0.00000000000E+00  0.00000000000E+00  0.16332404727E+02  0.16332405504E+02  0.50400000000E-02 0.  1.
          2   -1    0    0  501    0  0.00000000000E+00 -0.00000000000E+00 -0.96775978626E+02  0.96775978660E+02  0.25500000000E-02 0. -1.
         24    2    1    2    0    0  0.35527136788E-14  0.00000000000E+00 -0.80443573899E+02  0.11310838416E+03  0.79513130906E+02 0.  0.
         66    2    3    3    0    0 -0.25146350327E+02  0.22321663975E+02 -0.70355527058E+02  0.78003178418E+02  0.20000095744E+01 0.  0.
        -13    1    3    3    0    0  0.25146350327E+02 -0.22321663975E+02 -0.10088046842E+02  0.35105205746E+02  0.10566000000E+00 0.  1.
         13    1    4    4    0    0 -0.34288759654E+00  0.16007526008E+00 -0.65458392740E+00  0.76343968089E+00  0.10566000000E+00 0. -1.
        -13    1    4    4    0    0 -0.82375582661E+01  0.67121349738E+01 -0.21669076107E+02  0.24134418275E+02  0.10566000000E+00 0.  1.
         14    1    4    4    0    0 -0.16565904464E+02  0.15449453742E+02 -0.48031867023E+02  0.53105320462E+02  0.00000000000E+00 0. -1.
<mgrwt>
<rscale>  0 0.79513131E+02</rscale>
<asrwt>0</asrwt>
<pdfrwt beam="1">  1        2 0.14888612E-01 0.79513131E+02</pdfrwt>
<pdfrwt beam="2">  1       -1 0.25126778E-02 0.79513131E+02</pdfrwt>
<totfact> 0.17854735E+05</totfact>
</mgrwt>
</event>
<event>
 8    1  0.2433467E-024  0.7965265E+02  0.7818608E-02  0.1330040E+00
         -1   -1    0    0    0  501 -0.00000000000E+00  0.00000000000E+00  0.33127984352E+01  0.33128022691E+01  0.50400000000E-02 0.  1.
          2   -1    0    0  501    0  0.00000000000E+00 -0.00000000000E+00 -0.47879009279E+03  0.47879009279E+03  0.25500000000E-02 0. -1.
         24    2    1    2    0    0  0.00000000000E+00  0.00000000000E+00 -0.47547729435E+03  0.48210289506E+03  0.79652645806E+02 0.  0.
         66    2    3    3    0    0  0.11634620096E+02  0.10790602487E+02 -0.45881336881E+03  0.45909204837E+03  0.19999989647E+01 0.  0.
        -13    1    3    3    0    0 -0.11634620096E+02 -0.10790602487E+02 -0.16663925544E+02  0.23010846690E+02  0.10566000000E+00 0.  1.
         13    1    4    4    0    0  0.94926680998E+00  0.87940722046E+00 -0.36627985454E+02  0.36650988349E+02  0.10566000000E+00 0. -1.
        -13    1    4    4    0    0  0.51052400837E+01  0.48389680727E+01 -0.17702312155E+03  0.17716285111E+03  0.10566000000E+00 0.  1.
        -14    1    4    4    0    0  0.55801132020E+01  0.50722271943E+01 -0.24516226180E+03  0.24527820891E+03  0.00000000000E+00 0.  1.
<mgrwt>
<rscale>  0 0.79652646E+02</rscale>
<asrwt>0</asrwt>
<pdfrwt beam="1">  1        2 0.73659960E-01 0.79652646E+02</pdfrwt>
<pdfrwt beam="2">  1       -1 0.50966197E-03 0.79652646E+02</pdfrwt>
<totfact> 0.30371204E+05</totfact>
</mgrwt>
</event>
<event>
 8    1  0.2433467E-024  0.7964964E+02  0.7818608E-02  0.1330049E+00
          2   -1    0    0  501    0  0.00000000000E+00  0.00000000000E+00  0.31278717560E+03  0.31278717561E+03  0.25500000000E-02 0. -1.
         -1   -1    0    0    0  501 -0.00000000000E+00 -0.00000000000E+00 -0.50705907160E+01  0.50705932208E+01  0.50400000000E-02 0.  1.
         24    2    1    2    0    0  0.00000000000E+00 -0.35527136788E-14  0.30771658488E+03  0.31785776883E+03  0.79649636494E+02 0.  0.
         66    2    3    3    0    0 -0.11134618715E+02  0.17756924457E+02  0.28897538879E+03  0.28974137335E+03  0.20000002119E+01 0.  0.
        -13    1    3    3    0    0  0.11134618715E+02 -0.17756924457E+02  0.18741196092E+02  0.28116395485E+02  0.10566000000E+00 0.  1.
         13    1    4    4    0    0 -0.29265141620E+01  0.54892355774E+01  0.87057280650E+02  0.87279307230E+02  0.10566000000E+00 0. -1.
        -13    1    4    4    0    0 -0.54433874593E+01  0.88828245430E+01  0.13504217336E+03  0.13544347452E+03  0.10566000000E+00 0.  1.
         14    1    4    4    0    0 -0.27647170937E+01  0.33848643363E+01  0.66875934781E+02  0.67018591600E+02  0.00000000000E+00 0. -1.
<mgrwt>
<rscale>  0 0.79649636E+02</rscale>
<asrwt>0</asrwt>
<pdfrwt beam="1">  1        2 0.48121090E-01 0.79649636E+02</pdfrwt>
<pdfrwt beam="2">  1       -1 0.78009130E-03 0.79649636E+02</pdfrwt>
<totfact> 0.26181655E+05</totfact>
</mgrwt>
</event>
<event>
 8    1  0.2433467E-024  0.8002226E+02  0.7818608E-02  0.1328988E+00
         -1   -1    0    0    0  501 -0.00000000000E+00  0.00000000000E+00  0.35481881431E+01  0.35481917226E+01  0.50400000000E-02 0.  1.
          2   -1    0    0  501    0  0.00000000000E+00 -0.00000000000E+00 -0.45118514103E+03  0.45118514103E+03  0.25500000000E-02 0. -1.
         24    2    1    2    0    0  0.00000000000E+00  0.22204460493E-15 -0.44763695288E+03  0.45473333276E+03  0.80022261483E+02 0.  0.
         66    2    3    3    0    0  0.23938193942E+02  0.14642902043E+01 -0.40577437403E+03  0.40648742156E+03  0.19999977431E+01 0.  0.
        -13    1    3    3    0    0 -0.23938193942E+02 -0.14642902043E+01 -0.41862578856E+02  0.48245911200E+02  0.10566000000E+00 0.  1.
         13    1    4    4    0    0  0.18442433478E+02  0.84218049685E+00 -0.30938798467E+03  0.30993833071E+03  0.10566000000E+00 0. -1.
        -13    1    4    4    0    0  0.82951181355E+00 -0.61237107174E-01 -0.10562144949E+02  0.10595372093E+02  0.10566000000E+00 0. -1.
        -14    1    4    4    0    0  0.46662486507E+01  0.68334681460E+00 -0.85824244406E+02  0.85953718751E+02  0.00000000000E+00 0.  1.
<mgrwt>
<rscale>  0 0.80022261E+02</rscale>
<asrwt>0</asrwt>
<pdfrwt beam="1">  1        2 0.69413053E-01 0.80022261E+02</pdfrwt>
<pdfrwt beam="2">  1       -1 0.54587573E-03 0.80022261E+02</pdfrwt>
<totfact> 0.29423094E+05</totfact>
</mgrwt>
</event>
<event>
 8    1  0.2433467E-024  0.8125356E+02  0.7818608E-02  0.1325531E+00
          2   -1    0    0  501    0  0.00000000000E+00  0.00000000000E+00  0.14225503412E+03  0.14225503415E+03  0.25500000000E-02 0. -1.
         -1   -1    0    0    0  501 -0.00000000000E+00 -0.00000000000E+00 -0.11602648963E+02  0.11602650057E+02  0.50400000000E-02 0.  1.
         24    2    1    2    0    0 -0.35527136788E-14  0.00000000000E+00  0.13065238516E+03  0.15385768420E+03  0.81253561400E+02 0.  0.
         66    2    3    3    0    0  0.25161872447E+02 -0.72176682358E+01  0.12413639548E+03  0.12688206845E+03  0.20000129677E+01 0.  0.
        -13    1    3    3    0    0 -0.25161872447E+02  0.72176682358E+01  0.65159896849E+01  0.26975615756E+02  0.10566000000E+00 0.  1.
         13    1    4    4    0    0  0.14877911475E+02 -0.39060142970E+01  0.74066909364E+02  0.75647388747E+02  0.10566000000E+00 0. -1.
        -13    1    4    4    0    0  0.12998881961E+01 -0.62901003394E+00  0.53219015958E+01  0.55153570669E+01  0.10566000000E+00 0.  1.
        -14    1    4    4    0    0  0.89840727762E+01 -0.26826439048E+01  0.44747584516E+02  0.45719322633E+02  0.00000000000E+00 0.  1.
<mgrwt>
<rscale>  0 0.81253561E+02</rscale>
<asrwt>0</asrwt>
<pdfrwt beam="1">  1        2 0.21885388E-01 0.81253561E+02</pdfrwt>
<pdfrwt beam="2">  1       -1 0.17850231E-02 0.81253561E+02</pdfrwt>
<totfact> 0.18895950E+05</totfact>
</mgrwt>
</event>
<event>
 8    1  0.2433467E-024  0.8025270E+02  0.7818608E-02  0.1328336E+00
          2   -1    0    0  501    0  0.00000000000E+00  0.00000000000E+00  0.28059224529E+02  0.28059224645E+02  0.25500000000E-02 0. -1.
         -1   -1    0    0    0  501 -0.00000000000E+00 -0.00000000000E+00 -0.57383048002E+02  0.57383048223E+02  0.50400000000E-02 0.  1.
         24    2    1    2    0    0 -0.35527136788E-14  0.00000000000E+00 -0.29323823473E+02  0.85442272868E+02  0.80252696963E+02 0.  0.
         66    2    3    3    0    0 -0.23011104483E+02 -0.15845056086E+02  0.15956272657E+02  0.32236305144E+02  0.20000000954E+01 0.  0.
        -13    1    3    3    0    0  0.23011104483E+02  0.15845056086E+02 -0.45280096129E+02  0.53205967723E+02  0.10566000000E+00 0.  1.
         13    1    4    4    0    0 -0.12706614362E+02 -0.83464113286E+01  0.87212222889E+01  0.17526879724E+02  0.10566000000E+00 0. -1.
        -13    1    4    4    0    0 -0.12163410283E+01 -0.14152684532E+01  0.97248023662E+00  0.21069770141E+01  0.10566000000E+00 0.  1.
        -14    1    4    4    0    0 -0.90881490929E+01 -0.60833763038E+01  0.62625701311E+01  0.12602448406E+02  0.00000000000E+00 0.  1.
<mgrwt>
<rscale>  0 0.80252697E+02</rscale>
<asrwt>0</asrwt>
<pdfrwt beam="1">  1        2 0.43168038E-02 0.80252697E+02</pdfrwt>
<pdfrwt beam="2">  1       -1 0.88281613E-02 0.80252697E+02</pdfrwt>
<totfact> 0.13161748E+05</totfact>
</mgrwt>
</event>
<event>
 8    1  0.2433467E-024  0.7738898E+02  0.7818608E-02  0.1336629E+00
          2   -1    0    0  501    0  0.00000000000E+00  0.00000000000E+00  0.68902255658E+03  0.68902255659E+03  0.25500000000E-02 0. -1.
         -1   -1    0    0    0  501 -0.00000000000E+00 -0.00000000000E+00 -0.21730222979E+01  0.21730281426E+01  0.50400000000E-02 0.  1.
         24    2    1    2    0    0  0.00000000000E+00 -0.17763568394E-14  0.68684953429E+03  0.69119558473E+03  0.77388975978E+02 0.  0.
         66    2    3    3    0    0 -0.22127681629E+01  0.15164000347E+02  0.66074067023E+03  0.66092138456E+03  0.20000068938E+01 0.  0.
        -13    1    3    3    0    0  0.22127681629E+01 -0.15164000347E+02  0.26108864055E+02  0.30274200166E+02  0.10566000000E+00 0.  1.
         13    1    4    4    0    0 -0.20903807724E+00  0.17505050774E+01  0.10112320085E+03  0.10113862209E+03  0.10566000000E+00 0. -1.
        -13    1    4    4    0    0 -0.50045597634E+00  0.67958377409E+01  0.27663841687E+03  0.27672234952E+03  0.10566000000E+00 0.  1.
         14    1    4    4    0    0 -0.15032741093E+01  0.66176575286E+01  0.28297905251E+03  0.28306041296E+03  0.00000000000E+00 0. -1.
<mgrwt>
<rscale>  0 0.77388976E+02</rscale>
<asrwt>0</asrwt>
<pdfrwt beam="1">  1        2 0.10600364E+00 0.77388976E+02</pdfrwt>
<pdfrwt beam="2">  1       -1 0.33431102E-03 0.77388976E+02</pdfrwt>
<totfact> 0.36327053E+05</totfact>
</mgrwt>
</event>
<event>
 8    1  0.2433467E-024  0.7996599E+02  0.7818608E-02  0.1329148E+00
          2   -1    0    0  501    0  0.00000000000E+00  0.00000000000E+00  0.71556058950E+03  0.71556058950E+03  0.25500000000E-02 0. -1.
         -1   -1    0    0    0  501 -0.00000000000E+00 -0.00000000000E+00 -0.22341056725E+01  0.22341113574E+01  0.50400000000E-02 0.  1.
         24    2    1    2    0    0  0.00000000000E+00  0.17763568394E-14  0.71332648383E+03  0.71779470086E+03  0.79965993121E+02 0.  0.
         66    2    3    3    0    0  0.16249574322E+02 -0.12537341151E+02  0.66462861258E+03  0.66494843877E+03  0.19999942808E+01 0.  0.
        -13    1    3    3    0    0 -0.16249574322E+02  0.12537341151E+02  0.48697871249E+02  0.52846262091E+02  0.10566000000E+00 0.  1.
         13    1    4    4    0    0  0.54553089818E+01 -0.42043812973E+01  0.19940213294E+03  0.19952107408E+03  0.10566000000E+00 0. -1.
        -13    1    4    4    0    0  0.58302945621E+01 -0.47859036881E+01  0.27199612508E+03  0.27210071744E+03  0.10566000000E+00 0.  1.
        -14    1    4    4    0    0  0.49639707779E+01 -0.35470561655E+01  0.19323035456E+03  0.19332664725E+03  0.00000000000E+00 0.  1.
<mgrwt>
<rscale>  0 0.79965993E+02</rscale>
<asrwt>0</asrwt>
<pdfrwt beam="1">  1        2 0.11008636E+00 0.79965993E+02</pdfrwt>
<pdfrwt beam="2">  1       -1 0.34370864E-03 0.79965993E+02</pdfrwt>
<totfact> 0.33654558E+05</totfact>
</mgrwt>
</event>
<event>
 8    1  0.2433467E-024  0.8105613E+02  0.7818608E-02  0.1326081E+00
          2   -1    0    0  501    0  0.00000000000E+00  0.00000000000E+00  0.42509778170E+03  0.42509778171E+03  0.25500000000E-02 0. -1.
         -1   -1    0    0    0  501 -0.00000000000E+00 -0.00000000000E+00 -0.38638720609E+01  0.38638753479E+01  0.50400000000E-02 0.  1.
         24    2    1    2    0    0  0.00000000000E+00  0.00000000000E+00  0.42123390964E+03  0.42896165706E+03  0.81056132366E+02 0.  0.
         66    2    3    3    0    0  0.20630282946E+02 -0.15934126153E+02  0.37480285906E+03  0.37571357190E+03  0.20000002571E+01 0.  0.
        -13    1    3    3    0    0 -0.20630282946E+02  0.15934126153E+02  0.46431050585E+02  0.53248085159E+02  0.10566000000E+00 0.  1.
         13    1    4    4    0    0  0.67841134667E+01 -0.56533811682E+01  0.12376484362E+03  0.12407954140E+03  0.10566000000E+00 0. -1.
        -13    1    4    4    0    0  0.72020378134E+01 -0.50887568521E+01  0.13858090265E+03  0.13886123483E+03  0.10566000000E+00 0.  1.
        -14    1    4    4    0    0  0.66441316660E+01 -0.51919881327E+01  0.11245711279E+03  0.11277279567E+03  0.00000000000E+00 0.  1.
<mgrwt>
<rscale>  0 0.81056132E+02</rscale>
<asrwt>0</asrwt>
<pdfrwt beam="1">  1        2 0.65399695E-01 0.81056132E+02</pdfrwt>
<pdfrwt beam="2">  1       -1 0.59444178E-03 0.81056132E+02</pdfrwt>
<totfact> 0.27883690E+05</totfact>
</mgrwt>
</event>
<event>
 8    1  0.2433467E-024  0.8111519E+02  0.7818608E-02  0.1325916E+00
         -1   -1    0    0    0  501 -0.00000000000E+00  0.00000000000E+00  0.60373934462E+01  0.60373955499E+01  0.50400000000E-02 0.  1.
          2   -1    0    0  501    0  0.00000000000E+00 -0.00000000000E+00 -0.27245500409E+03  0.27245500410E+03  0.25500000000E-02 0. -1.
         24    2    1    2    0    0 -0.11102230246E-15  0.00000000000E+00 -0.26641761065E+03  0.27849239965E+03  0.81115186018E+02 0.  0.
         66    2    3    3    0    0 -0.73473235295E+00  0.34250485617E+02 -0.20766442331E+03  0.21048075519E+03  0.19999998397E+01 0.  0.
        -13    1    3    3    0    0  0.73473235295E+00 -0.34250485617E+02 -0.58753187332E+02  0.68011644461E+02  0.10566000000E+00 0.  1.
         13    1    4    4    0    0  0.16631276182E+00  0.19850394554E+02 -0.12227005264E+03  0.12387107313E+03  0.10566000000E+00 0. -1.
        -13    1    4    4    0    0 -0.20991506485E+00  0.52185140873E+01 -0.33488223045E+02  0.33893202864E+02  0.10566000000E+00 0.  1.
        -14    1    4    4    0    0 -0.69113004992E+00  0.91815769760E+01 -0.51906147634E+02  0.52716479195E+02  0.00000000000E+00 0.  1.
<mgrwt>
<rscale>  0 0.81115186E+02</rscale>
<asrwt>0</asrwt>
<pdfrwt beam="1">  1        2 0.41916145E-01 0.81115186E+02</pdfrwt>
<pdfrwt beam="2">  1       -1 0.92883014E-03 0.81115186E+02</pdfrwt>
<totfact> 0.23741045E+05</totfact>
</mgrwt>
</event>
<event>
 8    1  0.2433467E-024  0.8073923E+02  0.7818608E-02  0.1326967E+00
          2   -1    0    0  501    0  0.00000000000E+00  0.00000000000E+00  0.41537674297E+03  0.41537674297E+03  0.25500000000E-02 0. -1.
         -1   -1    0    0    0  501 -0.00000000000E+00 -0.00000000000E+00 -0.39234386795E+01  0.39234419167E+01  0.50400000000E-02 0.  1.
         24    2    1    2    0    0  0.00000000000E+00 -0.17763568394E-14  0.41145330429E+03  0.41930018489E+03  0.80739231115E+02 0.  0.
         66    2    3    3    0    0  0.34193942266E+02  0.15528211761E+02  0.28241574097E+03  0.28490876047E+03  0.19999985945E+01 0.  0.
        -13    1    3    3    0    0 -0.34193942266E+02 -0.15528211761E+02  0.12903756331E+03  0.13439142442E+03  0.10566000000E+00 0.  1.
         13    1    4    4    0    0  0.12061769171E+02  0.46388342773E+01  0.96917274803E+02  0.97775121469E+02  0.10566000000E+00 0. -1.
        -13    1    4    4    0    0  0.68544511669E+01  0.29151723678E+01  0.56908347514E+02  0.57393840362E+02  0.10566000000E+00 0.  1.
        -14    1    4    4    0    0  0.15277721928E+02  0.79742051160E+01  0.12859011866E+03  0.12973979864E+03  0.00000000000E+00 0.  1.
<mgrwt>
<rscale>  0 0.80739231E+02</rscale>
<asrwt>0</asrwt>
<pdfrwt beam="1">  1        2 0.63904126E-01 0.80739231E+02</pdfrwt>
<pdfrwt beam="2">  1       -1 0.60360609E-03 0.80739231E+02</pdfrwt>
<totfact> 0.27946922E+05</totfact>
</mgrwt>
</event>
<event>
 8    1  0.2433467E-024  0.7738532E+02  0.7818608E-02  0.1336640E+00
          2   -1    0    0  501    0  0.00000000000E+00  0.00000000000E+00  0.11948765225E+04  0.11948765225E+04  0.25500000000E-02 0. -1.
         -1   -1    0    0    0  501 -0.00000000000E+00 -0.00000000000E+00 -0.12529460973E+01  0.12529562340E+01  0.50400000000E-02 0.  1.
         24    2    1    2    0    0  0.00000000000E+00  0.17763568394E-14  0.11936235764E+04  0.11961294788E+04  0.77385320047E+02 0.  0.
         66    2    3    3    0    0 -0.16760762995E+02  0.12251259982E+02  0.11014187050E+04  0.11016161674E+04  0.19999966470E+01 0.  0.
        -13    1    3    3    0    0  0.16760762995E+02 -0.12251259982E+02  0.92204871457E+02  0.94513311400E+02  0.10566000000E+00 0.  1.
         13    1    4    4    0    0 -0.10400505103E+02  0.85244572094E+01  0.71740702409E+03  0.71753305586E+03  0.10566000000E+00 0. -1.
        -13    1    4    4    0    0 -0.19701181860E+01  0.83053590493E+00  0.10363948060E+03  0.10366158526E+03  0.10566000000E+00 0.  1.
         14    1    4    4    0    0 -0.43901397060E+01  0.28962668678E+01  0.28037220030E+03  0.28042152626E+03  0.00000000000E+00 0. -1.
<mgrwt>
<rscale>  0 0.77385320E+02</rscale>
<asrwt>0</asrwt>
<pdfrwt beam="1">  1        2 0.18382732E+00 0.77385320E+02</pdfrwt>
<pdfrwt beam="2">  1       -1 0.19276154E-03 0.77385320E+02</pdfrwt>
<totfact> 0.38207059E+05</totfact>
</mgrwt>
</event>
<event>
 8    1  0.2433467E-024  0.8088049E+02  0.7818608E-02  0.1326571E+00
         -1   -1    0    0    0  501 -0.00000000000E+00  0.00000000000E+00  0.95837021019E+01  0.95837034271E+01  0.50400000000E-02 0.  1.
          2   -1    0    0  501    0  0.00000000000E+00 -0.00000000000E+00 -0.17064526801E+03  0.17064526803E+03  0.25500000000E-02 0. -1.
         24    2    1    2    0    0  0.00000000000E+00  0.17763568394E-14 -0.16106156590E+03  0.18022897145E+03  0.80880492946E+02 0.  0.
         66    2    3    3    0    0  0.72241391175E+01  0.86164355149E+01 -0.16708348828E+03  0.16747335073E+03  0.20000008472E+01 0.  0.
        -13    1    3    3    0    0 -0.72241391175E+01 -0.86164355149E+01  0.60219223703E+01  0.12755620723E+02  0.10566000000E+00 0.  1.
         13    1    4    4    0    0  0.49711330878E+01  0.69912906898E+01 -0.12078916883E+03  0.12109345474E+03  0.10566000000E+00 0. -1.
        -13    1    4    4    0    0  0.59183961010E+00  0.40187052370E+00 -0.15223044021E+02  0.15240210214E+02  0.10566000000E+00 0.  1.
         14    1    4    4    0    0  0.16611664195E+01  0.12232743015E+01 -0.31071275422E+02  0.31139685776E+02  0.00000000000E+00 0. -1.
<mgrwt>
<rscale>  0 0.80880493E+02</rscale>
<asrwt>0</asrwt>
<pdfrwt beam="1">  1        2 0.26253116E-01 0.80880493E+02</pdfrwt>
<pdfrwt beam="2">  1       -1 0.14744159E-02 0.80880493E+02</pdfrwt>
<totfact> 0.20298711E+05</totfact>
</mgrwt>
</event>
<event>
 8    1  0.2433467E-024  0.7995895E+02  0.7818608E-02  0.1329168E+00
         -1   -1    0    0    0  501 -0.00000000000E+00  0.00000000000E+00  0.23479169707E+01  0.23479223801E+01  0.50400000000E-02 0.  1.
          2   -1    0    0  501    0  0.00000000000E+00 -0.00000000000E+00 -0.68075521042E+03  0.68075521043E+03  0.25500000000E-02 0. -1.
         24    2    1    2    0    0  0.88817841970E-15 -0.71054273576E-14 -0.67840729345E+03  0.68310313281E+03  0.79958953486E+02 0.  0.
         66    2    3    3    0    0 -0.57617901857E+01  0.34023200340E+02 -0.51146577835E+03  0.51263244027E+03  0.20000001761E+01 0.  0.
        -13    1    3    3    0    0  0.57617901857E+01 -0.34023200340E+02 -0.16694151510E+03  0.17047069254E+03  0.10566000000E+00 0.  1.
         13    1    4    4    0    0 -0.37113616153E+00  0.12694307050E+01 -0.24206117948E+02  0.24242452568E+02  0.10566000000E+00 0.  1.
        -13    1    4    4    0    0 -0.50415442641E+01  0.28703320783E+02 -0.42718992468E+03  0.42818283560E+03  0.10566000000E+00 0. -1.
        -14    1    4    4    0    0 -0.34910975999E+00  0.40504488520E+01 -0.60069735721E+02  0.60207152092E+02  0.00000000000E+00 0.  1.
<mgrwt>
<rscale>  0 0.79958953E+02</rscale>
<asrwt>0</asrwt>
<pdfrwt beam="1">  1        2 0.10473141E+00 0.79958953E+02</pdfrwt>
<pdfrwt beam="2">  1       -1 0.36121896E-03 0.79958953E+02</pdfrwt>
<totfact> 0.33278655E+05</totfact>
</mgrwt>
</event>
<event>
 8    1  0.2433467E-024  0.7903771E+02  0.7818608E-02  0.1331805E+00
         -1   -1    0    0    0  501 -0.00000000000E+00  0.00000000000E+00  0.10715365994E+03  0.10715366006E+03  0.50400000000E-02 0.  1.
          2   -1    0    0  501    0  0.00000000000E+00 -0.00000000000E+00 -0.14574767952E+02  0.14574768175E+02  0.25500000000E-02 0. -1.
         24    2    1    2    0    0  0.00000000000E+00  0.00000000000E+00  0.92578891988E+02  0.12172842823E+03  0.79037706181E+02 0.  0.
         66    2    3    3    0    0 -0.85758500770E+01  0.21444314978E+02 -0.30212532871E+01  0.23378020048E+02  0.20000001370E+01 0.  0.
        -13    1    3    3    0    0  0.85758500770E+01 -0.21444314978E+02  0.95600145275E+02  0.98350408185E+02  0.10566000000E+00 0.  1.
         13    1    4    4    0    0 -0.32339891195E+01  0.92079789245E+01 -0.76045631761E+00  0.97895362171E+01  0.10566000000E+00 0. -1.
        -13    1    4    4    0    0 -0.21641347061E+01  0.45955636937E+01 -0.13907910865E+01  0.52676511436E+01  0.10566000000E+00 0.  1.
        -14    1    4    4    0    0 -0.31777262514E+01  0.76407723593E+01 -0.87000588302E+00  0.83208326874E+01  0.00000000000E+00 0.  1.
<mgrwt>
<rscale>  0 0.79037706E+02</rscale>
<asrwt>0</asrwt>
<pdfrwt beam="1">  1        2 0.22422720E-02 0.79037706E+02</pdfrwt>
<pdfrwt beam="2">  1       -1 0.16485179E-01 0.79037706E+02</pdfrwt>
<totfact> 0.12035440E+05</totfact>
</mgrwt>
</event>
<event>
 8    1  0.2433467E-024  0.8115101E+02  0.7818608E-02  0.1325816E+00
         -1   -1    0    0    0  501 -0.00000000000E+00  0.00000000000E+00  0.32923300363E+02  0.32923300749E+02  0.50400000000E-02 0.  1.
          2   -1    0    0  501    0  0.00000000000E+00 -0.00000000000E+00 -0.50006271555E+02  0.50006271620E+02  0.25500000000E-02 0. -1.
         24    2    1    2    0    0  0.00000000000E+00  0.00000000000E+00 -0.17082971192E+02  0.82929572369E+02  0.81151007809E+02 0.  0.
         66    2    3    3    0    0 -0.11220167676E+01 -0.36296847303E+02 -0.26987839729E+02  0.45288668680E+02  0.19999929613E+01 0.  0.
        -13    1    3    3    0    0  0.11220167676E+01  0.36296847303E+02  0.99048685369E+01  0.37640903689E+02  0.10566000000E+00 0.  1.
         13    1    4    4    0    0 -0.10231872096E+01 -0.35803042561E+02 -0.26389121193E+02  0.44489343107E+02  0.10566000000E+00 0. -1.
        -13    1    4    4    0    0 -0.47253004454E-01 -0.40135297226E+00 -0.42511894692E+00  0.59599262530E+00  0.10566000000E+00 0. -1.
         14    1    4    4    0    0 -0.51576553480E-01 -0.92451769426E-01 -0.17359958870E+00  0.20333294798E+00  0.00000000000E+00 0. -1.
<mgrwt>
<rscale>  0 0.81151008E+02</rscale>
<asrwt>0</asrwt>
<pdfrwt beam="1">  1        2 0.76932725E-02 0.81151008E+02</pdfrwt>
<pdfrwt beam="2">  1       -1 0.50651232E-02 0.81151008E+02</pdfrwt>
<totfact> 0.14369380E+05</totfact>
</mgrwt>
</event>
<event>
 8    1  0.2433467E-024  0.8051778E+02  0.7818608E-02  0.1327588E+00
         -1   -1    0    0    0  501 -0.00000000000E+00  0.00000000000E+00  0.19192269521E+01  0.19192335698E+01  0.50400000000E-02 0.  1.
          2   -1    0    0  501    0  0.00000000000E+00 -0.00000000000E+00 -0.84449396760E+03  0.84449396760E+03  0.25500000000E-02 0. -1.
         24    2    1    2    0    0  0.00000000000E+00  0.00000000000E+00 -0.84257474065E+03  0.84641320117E+03  0.80517784018E+02 0.  0.
         66    2    3    3    0    0 -0.81460889344E+01  0.24496708126E+02 -0.74594849898E+03  0.74639775628E+03  0.19999945659E+01 0.  0.
        -13    1    3    3    0    0  0.81460889344E+01 -0.24496708126E+02 -0.96626241663E+02  0.10001544489E+03  0.10566000000E+00 0.  1.
         13    1    4    4    0    0 -0.36558146069E+01  0.85956018104E+01 -0.27990062538E+03  0.28005645967E+03  0.10566000000E+00 0. -1.
        -13    1    4    4    0    0 -0.38884013954E+01  0.13872652832E+02 -0.39897773743E+03  0.39923779416E+03  0.10566000000E+00 0.  1.
         14    1    4    4    0    0 -0.60187293206E+00  0.20284534845E+01 -0.67070136179E+02  0.67103502454E+02  0.00000000000E+00 0. -1.
<mgrwt>
<rscale>  0 0.80517784E+02</rscale>
<asrwt>0</asrwt>
<pdfrwt beam="1">  1        2 0.12992185E+00 0.80517784E+02</pdfrwt>
<pdfrwt beam="2">  1       -1 0.29526687E-03 0.80517784E+02</pdfrwt>
<totfact> 0.34086775E+05</totfact>
</mgrwt>
</event>
<event>
 8    1  0.2433467E-024  0.8105033E+02  0.7818608E-02  0.1326097E+00
         -1   -1    0    0    0  501 -0.00000000000E+00  0.00000000000E+00  0.16660985585E+02  0.16660986347E+02  0.50400000000E-02 0.  1.
          2   -1    0    0  501    0  0.00000000000E+00 -0.00000000000E+00 -0.98570933342E+02  0.98570933375E+02  0.25500000000E-02 0. -1.
         24    2    1    2    0    0  0.00000000000E+00 -0.71054273576E-14 -0.81909947757E+02  0.11523191972E+03  0.81050328693E+02 0.  0.
         66    2    3    3    0    0  0.19210092645E+02  0.34714955689E+02 -0.52541263767E+02  0.65869114177E+02  0.19999990964E+01 0.  0.
        -13    1    3    3    0    0 -0.19210092645E+02 -0.34714955689E+02 -0.29368683991E+02  0.49362805545E+02  0.10566000000E+00 0.  1.
         13    1    4    4    0    0  0.94138763807E+01  0.17468390414E+02 -0.25849692591E+02  0.32588088364E+02  0.10566000000E+00 0. -1.
        -13    1    4    4    0    0  0.44598980933E+01  0.66245290664E+01 -0.11113179819E+02  0.13685357360E+02  0.10566000000E+00 0.  1.
        -14    1    4    4    0    0  0.53363181709E+01  0.10622036209E+02 -0.15578391356E+02  0.19595668452E+02  0.00000000000E+00 0.  1.
<mgrwt>
<rscale>  0 0.81050329E+02</rscale>
<asrwt>0</asrwt>
<pdfrwt beam="1">  1        2 0.15164759E-01 0.81050329E+02</pdfrwt>
<pdfrwt beam="2">  1       -1 0.25632287E-02 0.81050329E+02</pdfrwt>
<totfact> 0.17047845E+05</totfact>
</mgrwt>
</event>
<event>
 8    1  0.2433467E-024  0.8094629E+02  0.7818608E-02  0.1326387E+00
          2   -1    0    0  501    0  0.00000000000E+00  0.00000000000E+00  0.41000241111E+03  0.41000241112E+03  0.25500000000E-02 0. -1.
         -1   -1    0    0    0  501 -0.00000000000E+00 -0.00000000000E+00 -0.39952806827E+01  0.39952838616E+01  0.50400000000E-02 0.  1.
         24    2    1    2    0    0  0.35527136788E-14  0.00000000000E+00  0.40600713043E+03  0.41399769498E+03  0.80946287688E+02 0.  0.
         66    2    3    3    0    0  0.25867123686E+02 -0.18647593788E+02  0.33039737637E+03  0.33193864969E+03  0.20000002449E+01 0.  0.
        -13    1    3    3    0    0 -0.25867123686E+02  0.18647593788E+02  0.75609754052E+02  0.82059045289E+02  0.10566000000E+00 0.  1.
         13    1    4    4    0    0  0.47341879286E+01 -0.41781470934E+01  0.68720018391E+02  0.69009575713E+02  0.10566000000E+00 0. -1.
        -13    1    4    4    0    0  0.97840551117E+01 -0.68974233929E+01  0.11847311614E+03  0.11907641494E+03  0.10566000000E+00 0.  1.
         14    1    4    4    0    0  0.11348880645E+02 -0.75720233020E+01  0.14320424185E+03  0.14385265904E+03  0.00000000000E+00 0. -1.
<mgrwt>
<rscale>  0 0.80946288E+02</rscale>
<asrwt>0</asrwt>
<pdfrwt beam="1">  1        2 0.63077286E-01 0.80946288E+02</pdfrwt>
<pdfrwt beam="2">  1       -1 0.61465890E-03 0.80946288E+02</pdfrwt>
<totfact> 0.27635397E+05</totfact>
</mgrwt>
</event>
<event>
 8    1  0.2433467E-024  0.8134830E+02  0.7818608E-02  0.1325268E+00
         -1   -1    0    0    0  501 -0.00000000000E+00  0.00000000000E+00  0.38704124394E+01  0.38704157209E+01  0.50400000000E-02 0.  1.
          2   -1    0    0  501    0  0.00000000000E+00 -0.00000000000E+00 -0.42744429809E+03  0.42744429810E+03  0.25500000000E-02 0. -1.
         24    2    1    2    0    0  0.00000000000E+00  0.00000000000E+00 -0.42357388565E+03  0.43131471382E+03  0.81348299006E+02 0.  0.
         66    2    3    3    0    0  0.38950977233E+02 -0.11455631256E+02 -0.20134850497E+03  0.20541088229E+03  0.19999990516E+01 0.  0.
        -13    1    3    3    0    0 -0.38950977233E+02  0.11455631256E+02 -0.22222538069E+03  0.22590383153E+03  0.10566000000E+00 0.  1.
         13    1    4    4    0    0  0.15158910951E+02 -0.39421105422E+01 -0.77362609044E+02  0.78932358756E+02  0.10566000000E+00 0. -1.
        -13    1    4    4    0    0  0.58712480724E+01 -0.24373867505E+01 -0.30783995674E+02  0.31433707414E+02  0.10566000000E+00 0.  1.
         14    1    4    4    0    0  0.17920818209E+02 -0.50761339632E+01 -0.93201900248E+02  0.95044816120E+02  0.00000000000E+00 0. -1.
<mgrwt>
<rscale>  0 0.81348299E+02</rscale>
<asrwt>0</asrwt>
<pdfrwt beam="1">  1        2 0.65760624E-01 0.81348299E+02</pdfrwt>
<pdfrwt beam="2">  1       -1 0.59544866E-03 0.81348299E+02</pdfrwt>
<totfact> 0.27674856E+05</totfact>
</mgrwt>
</event>
<event>
 8    1  0.2433467E-024  0.7971416E+02  0.7818608E-02  0.1329865E+00
          2   -1    0    0  501    0  0.00000000000E+00  0.00000000000E+00  0.29495624986E+03  0.29495624987E+03  0.25500000000E-02 0. -1.
         -1   -1    0    0    0  501 -0.00000000000E+00 -0.00000000000E+00 -0.53858373313E+01  0.53858396895E+01  0.50400000000E-02 0.  1.
         24    2    1    2    0    0 -0.35527136788E-14  0.00000000000E+00  0.28957041253E+03  0.30034208956E+03  0.79714157774E+02 0.  0.
         66    2    3    3    0    0 -0.28247030885E+02 -0.23608340009E+02  0.20218205658E+03  0.20551601514E+03  0.20000004069E+01 0.  0.
        -13    1    3    3    0    0  0.28247030885E+02  0.23608340009E+02  0.87388355950E+02  0.94826074428E+02  0.10566000000E+00 0.  1.
         13    1    4    4    0    0 -0.99937331312E+01 -0.88756024983E+01  0.72869043986E+02  0.74084814619E+02  0.10566000000E+00 0. -1.
        -13    1    4    4    0    0 -0.16688625176E+02 -0.13824243763E+02  0.12073269595E+03  0.12266219859E+03  0.10566000000E+00 0.  1.
        -14    1    4    4    0    0 -0.15646725779E+01 -0.90849374827E+00  0.85803166426E+01  0.87690019303E+01  0.00000000000E+00 0.  1.
<mgrwt>
<rscale>  0 0.79714158E+02</rscale>
<asrwt>0</asrwt>
<pdfrwt beam="1">  1        2 0.45377886E-01 0.79714158E+02</pdfrwt>
<pdfrwt beam="2">  1       -1 0.82859052E-03 0.79714158E+02</pdfrwt>
<totfact> 0.25577348E+05</totfact>
</mgrwt>
</event>
<event>
 8    1  0.2433467E-024  0.7769018E+02  0.7818608E-02  0.1335737E+00
          2   -1    0    0  501    0  0.00000000000E+00  0.00000000000E+00  0.17015737105E+03  0.17015737107E+03  0.25500000000E-02 0. -1.
         -1   -1    0    0    0  501 -0.00000000000E+00 -0.00000000000E+00 -0.88679128201E+01  0.88679142523E+01  0.50400000000E-02 0.  1.
         24    2    1    2    0    0  0.17763568394E-14  0.00000000000E+00  0.16128945823E+03  0.17902528532E+03  0.77690176009E+02 0.  0.
         66    2    3    3    0    0  0.12935829353E+02  0.21218598582E+02  0.14941908199E+03  0.15148474061E+03  0.19999919805E+01 0.  0.
        -13    1    3    3    0    0 -0.12935829353E+02 -0.21218598582E+02  0.11870376237E+02  0.27540544709E+02  0.10566000000E+00 0.  1.
         13    1    4    4    0    0  0.11412221381E+01  0.21103471471E+01  0.16561428533E+02  0.16734635704E+02  0.10566000000E+00 0. -1.
        -13    1    4    4    0    0  0.64548007516E+01  0.99352243765E+01  0.74157737586E+02  0.75098297877E+02  0.10566000000E+00 0.  1.
         14    1    4    4    0    0  0.53398064636E+01  0.91730270582E+01  0.58699915873E+02  0.59651807030E+02  0.00000000000E+00 0. -1.
<mgrwt>
<rscale>  0 0.77690176E+02</rscale>
<asrwt>0</asrwt>
<pdfrwt beam="1">  1        2 0.26178055E-01 0.77690176E+02</pdfrwt>
<pdfrwt beam="2">  1       -1 0.13642945E-02 0.77690176E+02</pdfrwt>
<totfact> 0.22556248E+05</totfact>
</mgrwt>
</event>
<event>
 8    1  0.2433467E-024  0.7859758E+02  0.7818608E-02  0.1333079E+00
          2   -1    0    0  501    0  0.00000000000E+00  0.00000000000E+00  0.16055965789E+03  0.16055965791E+03  0.25500000000E-02 0. -1.
         -1   -1    0    0    0  501 -0.00000000000E+00 -0.00000000000E+00 -0.96188227869E+01  0.96188241073E+01  0.50400000000E-02 0.  1.
         24    2    1    2    0    0  0.00000000000E+00  0.00000000000E+00  0.15094083510E+03  0.17017848202E+03  0.78597582915E+02 0.  0.
         66    2    3    3    0    0 -0.23550026485E+01 -0.36239864720E+02  0.10788969130E+03  0.11385543186E+03  0.20000106648E+01 0.  0.
        -13    1    3    3    0    0  0.23550026485E+01  0.36239864720E+02  0.43051143806E+02  0.56323050161E+02  0.10566000000E+00 0.  1.
         13    1    4    4    0    0  0.10263307675E+00 -0.61622410101E+01  0.17339675427E+02  0.18402696970E+02  0.10566000000E+00 0.  1.
        -13    1    4    4    0    0 -0.12212499324E+01 -0.16307987539E+02  0.50749917677E+02  0.53319857626E+02  0.10566000000E+00 0. -1.
         14    1    4    4    0    0 -0.12363857929E+01 -0.13769636171E+02  0.39800098193E+02  0.42132877260E+02  0.00000000000E+00 0. -1.
<mgrwt>
<rscale>  0 0.78597583E+02</rscale>
<asrwt>0</asrwt>
<pdfrwt beam="1">  1        2 0.24701485E-01 0.78597583E+02</pdfrwt>
<pdfrwt beam="2">  1       -1 0.14798190E-02 0.78597583E+02</pdfrwt>
<totfact> 0.21459921E+05</totfact>
</mgrwt>
</event>
<event>
 8    1  0.2433467E-024  0.7443978E+02  0.7818608E-02  0.1345615E+00
         -1   -1    0    0    0  501 -0.00000000000E+00  0.00000000000E+00  0.84913467360E+01  0.84913482317E+01  0.50400000000E-02 0.  1.
          2   -1    0    0  501    0  0.00000000000E+00 -0.00000000000E+00 -0.16314491208E+03  0.16314491210E+03  0.25500000000E-02 0. -1.
         24    2    1    2    0    0  0.00000000000E+00  0.00000000000E+00 -0.15465356534E+03  0.17163626033E+03  0.74439778257E+02 0.  0.
         66    2    3    3    0    0  0.26383573063E+01 -0.36488047773E+02 -0.92845593450E+02  0.99813039064E+02  0.19999961237E+01 0.  0.
        -13    1    3    3    0    0 -0.26383573063E+01  0.36488047773E+02 -0.61807971893E+02  0.71823221267E+02  0.10566000000E+00 0.  1.
         13    1    4    4    0    0  0.19364949500E+01 -0.31987011470E+02 -0.80699653504E+02  0.86829512006E+02  0.10566000000E+00 0. -1.
        -13    1    4    4    0    0  0.35330413136E+00 -0.29457673618E+01 -0.72345230175E+01  0.78199652484E+01  0.10566000000E+00 0. -1.
         14    1    4    4    0    0  0.34855822491E+00 -0.15552689419E+01 -0.49114169289E+01  0.51635618102E+01  0.00000000000E+00 0. -1.
<mgrwt>
<rscale>  0 0.74439778E+02</rscale>
<asrwt>0</asrwt>
<pdfrwt beam="1">  1        2 0.25099215E-01 0.74439778E+02</pdfrwt>
<pdfrwt beam="2">  1       -1 0.13063613E-02 0.74439778E+02</pdfrwt>
<totfact> 0.24894460E+05</totfact>
</mgrwt>
</event>
<event>
 8    1  0.2433467E-024  0.7949649E+02  0.7818608E-02  0.1330486E+00
         -1   -1    0    0    0  501 -0.00000000000E+00  0.00000000000E+00  0.16898136697E+01  0.16898211858E+01  0.50400000000E-02 0.  1.
          2   -1    0    0  501    0  0.00000000000E+00 -0.00000000000E+00 -0.93496663883E+03  0.93496663884E+03  0.25500000000E-02 0. -1.
         24    2    1    2    0    0  0.88817841970E-15  0.00000000000E+00 -0.93327682516E+03  0.93665646002E+03  0.79496488693E+02 0.  0.
         66    2    3    3    0    0  0.29333980368E+01  0.23781946210E+02 -0.84021860778E+03  0.84056260602E+03  0.19999992985E+01 0.  0.
        -13    1    3    3    0    0 -0.29333980368E+01 -0.23781946210E+02 -0.93058217384E+02  0.96093853999E+02  0.10566000000E+00 0.  1.
         13    1    4    4    0    0  0.19619877293E+01  0.15116219630E+02 -0.55233188698E+03  0.55254219208E+03  0.10566000000E+00 0. -1.
        -13    1    4    4    0    0  0.79678403907E+00  0.84300841854E+01 -0.27499640288E+03  0.27512675977E+03  0.10566000000E+00 0.  1.
        -14    1    4    4    0    0  0.17462626842E+00  0.23564239388E+00 -0.12890317924E+02  0.12893654170E+02  0.00000000000E+00 0.  1.
<mgrwt>
<rscale>  0 0.79496489E+02</rscale>
<asrwt>0</asrwt>
<pdfrwt beam="1">  1        2 0.14384061E+00 0.79496489E+02</pdfrwt>
<pdfrwt beam="2">  1       -1 0.25997266E-03 0.79496489E+02</pdfrwt>
<totfact> 0.35657650E+05</totfact>
</mgrwt>
</event>
<event>
 8    1  0.2433467E-024  0.7845405E+02  0.7818608E-02  0.1333497E+00
          2   -1    0    0  501    0  0.00000000000E+00  0.00000000000E+00  0.15680126446E+03  0.15680126448E+03  0.25500000000E-02 0. -1.
         -1   -1    0    0    0  501 -0.00000000000E+00 -0.00000000000E+00 -0.98134375001E+01  0.98134387943E+01  0.50400000000E-02 0.  1.
         24    2    1    2    0    0  0.00000000000E+00 -0.17763568394E-14  0.14698782696E+03  0.16661470328E+03  0.78454050712E+02 0.  0.
         66    2    3    3    0    0  0.36213738744E+02 -0.13394029457E+02  0.87932754924E+02  0.96057296887E+02  0.19999994847E+01 0.  0.
        -13    1    3    3    0    0 -0.36213738744E+02  0.13394029457E+02  0.59055072037E+02  0.70557406388E+02  0.10566000000E+00 0.  1.
         13    1    4    4    0    0  0.22540895182E+02 -0.77214385418E+01  0.52950106194E+02  0.58064080796E+02  0.10566000000E+00 0. -1.
        -13    1    4    4    0    0  0.10348857790E+02 -0.42932918496E+01  0.27277767918E+02  0.29489303130E+02  0.10566000000E+00 0.  1.
         14    1    4    4    0    0  0.33239857724E+01 -0.13792990659E+01  0.77048808122E+01  0.85039129616E+01  0.00000000000E+00 0. -1.
<mgrwt>
<rscale>  0 0.78454051E+02</rscale>
<asrwt>0</asrwt>
<pdfrwt beam="1">  1        2 0.24123270E-01 0.78454051E+02</pdfrwt>
<pdfrwt beam="2">  1       -1 0.15097598E-02 0.78454051E+02</pdfrwt>
<totfact> 0.21397831E+05</totfact>
</mgrwt>
</event>
<event>
 8    1  0.2433467E-024  0.7930521E+02  0.7818608E-02  0.1331035E+00
          2   -1    0    0  501    0  0.00000000000E+00  0.00000000000E+00  0.14340511716E+03  0.14340511719E+03  0.25500000000E-02 0. -1.
         -1   -1    0    0    0  501 -0.00000000000E+00 -0.00000000000E+00 -0.10964245801E+02  0.10964246959E+02  0.50400000000E-02 0.  1.
         24    2    1    2    0    0  0.00000000000E+00  0.00000000000E+00  0.13244087136E+03  0.15436936415E+03  0.79305209030E+02 0.  0.
         66    2    3    3    0    0  0.35590787903E+02  0.10742364801E+01  0.10011546980E+03  0.10627777530E+03  0.20000153567E+01 0.  0.
        -13    1    3    3    0    0 -0.35590787903E+02 -0.10742364801E+01  0.32325401562E+02  0.48091588847E+02  0.10566000000E+00 0.  1.
         13    1    4    4    0    0  0.70709929014E+01 -0.19267132641E+00  0.21016227039E+02  0.22174963943E+02  0.10566000000E+00 0. -1.
        -13    1    4    4    0    0  0.17780184112E+02  0.84003160947E+00  0.47507876515E+02  0.50733126211E+02  0.10566000000E+00 0.  1.
        -14    1    4    4    0    0  0.10739610890E+02  0.42687619707E+00  0.31591366247E+02  0.33369685145E+02  0.00000000000E+00 0.  1.
<mgrwt>
<rscale>  0 0.79305209E+02</rscale>
<asrwt>0</asrwt>
<pdfrwt beam="1">  1        2 0.22062324E-01 0.79305209E+02</pdfrwt>
<pdfrwt beam="2">  1       -1 0.16868072E-02 0.79305209E+02</pdfrwt>
<totfact> 0.20206366E+05</totfact>
</mgrwt>
</event>
<event>
 8    1  0.2433467E-024  0.8334540E+02  0.7818608E-02  0.1319817E+00
         -1   -1    0    0    0  501 -0.00000000000E+00  0.00000000000E+00  0.47921997117E+01  0.47922023620E+01  0.50400000000E-02 0.  1.
          2   -1    0    0  501    0  0.00000000000E+00 -0.00000000000E+00 -0.36238334650E+03  0.36238334650E+03  0.25500000000E-02 0. -1.
         24    2    1    2    0    0  0.00000000000E+00 -0.44408920985E-15 -0.35759114678E+03  0.36717554887E+03  0.83345398356E+02 0.  0.
         66    2    3    3    0    0  0.31331929491E+02 -0.23626974946E+01 -0.29933256706E+03  0.30098381660E+03  0.20000017700E+01 0.  0.
        -13    1    3    3    0    0 -0.31331929491E+02  0.23626974946E+01 -0.58258579727E+02  0.66191732270E+02  0.10566000000E+00 0.  1.
         13    1    4    4    0    0  0.97341513118E+01 -0.15653737643E+01 -0.92800922866E+02  0.93323236901E+02  0.10566000000E+00 0. -1.
        -13    1    4    4    0    0  0.85388913348E+01 -0.42795018448E+00 -0.78693337822E+02  0.79156480393E+02  0.10566000000E+00 0.  1.
        -14    1    4    4    0    0  0.13058886844E+02 -0.36937354583E+00 -0.12783830637E+03  0.12850409930E+03  0.00000000000E+00 0.  1.
<mgrwt>
<rscale>  0 0.83345398E+02</rscale>
<asrwt>0</asrwt>
<pdfrwt beam="1">  1        2 0.55751263E-01 0.83345398E+02</pdfrwt>
<pdfrwt beam="2">  1       -1 0.73726199E-03 0.83345398E+02</pdfrwt>
<totfact> 0.24507751E+05</totfact>
</mgrwt>
</event>
<event>
 8    1  0.2433467E-024  0.7939043E+02  0.7818608E-02  0.1330790E+00
         -1   -1    0    0    0  501 -0.00000000000E+00  0.00000000000E+00  0.31346320608E+02  0.31346321013E+02  0.50400000000E-02 0.  1.
          2   -1    0    0  501    0  0.00000000000E+00 -0.00000000000E+00 -0.50267778907E+02  0.50267778971E+02  0.25500000000E-02 0. -1.
         24    2    1    2    0    0  0.35527136788E-14  0.17763568394E-14 -0.18921458299E+02  0.81614099984E+02  0.79390425947E+02 0.  0.
         66    2    3    3    0    0  0.26859364597E+02  0.12342707270E+02 -0.36664065139E+02  0.47138323694E+02  0.19999997159E+01 0.  0.
        -13    1    3    3    0    0 -0.26859364597E+02 -0.12342707270E+02  0.17742606841E+02  0.34475776290E+02  0.10566000000E+00 0.  1.
         13    1    4    4    0    0  0.11118498446E+02  0.58962068551E+01 -0.15084533111E+02  0.19645370095E+02  0.10566000000E+00 0. -1.
        -13    1    4    4    0    0  0.25318732629E+01  0.73551742008E+00 -0.30962148449E+01  0.40680558620E+01  0.10566000000E+00 0. -1.
        -14    1    4    4    0    0  0.13208992888E+02  0.57109829948E+01 -0.18483317184E+02  0.23424897737E+02  0.00000000000E+00 0.  1.
<mgrwt>
<rscale>  0 0.79390426E+02</rscale>
<asrwt>0</asrwt>
<pdfrwt beam="1">  1        2 0.77335044E-02 0.79390426E+02</pdfrwt>
<pdfrwt beam="2">  1       -1 0.48225109E-02 0.79390426E+02</pdfrwt>
<totfact> 0.15276916E+05</totfact>
</mgrwt>
</event>
<event>
 8    1  0.2433467E-024  0.7629666E+02  0.7818608E-02  0.1339902E+00
         -1   -1    0    0    0  501 -0.00000000000E+00  0.00000000000E+00  0.10207932219E+02  0.10207933464E+02  0.50400000000E-02 0.  1.
          2   -1    0    0  501    0  0.00000000000E+00 -0.00000000000E+00 -0.14256509470E+03  0.14256509472E+03  0.25500000000E-02 0. -1.
         24    2    1    2    0    0 -0.44408920985E-15  0.00000000000E+00 -0.13235716248E+03  0.15277302818E+03  0.76296655767E+02 0.  0.
         66    2    3    3    0    0  0.38401420891E+01  0.28602308637E+02 -0.11610032003E+03  0.11965000234E+03  0.19999995249E+01 0.  0.
        -13    1    3    3    0    0 -0.38401420891E+01 -0.28602308637E+02 -0.16256842445E+02  0.33123025842E+02  0.10566000000E+00 0.  1.
         13    1    4    4    0    0  0.25137796612E+01  0.12197925464E+02 -0.51713352599E+02  0.53192015142E+02  0.10566000000E+00 0. -1.
        -13    1    4    4    0    0  0.10431494358E+01  0.14240171102E+02 -0.55949552334E+02  0.57742828162E+02  0.10566000000E+00 0.  1.
         14    1    4    4    0    0  0.28321299209E+00  0.21642120705E+01 -0.84374150994E+01  0.87151590373E+01  0.00000000000E+00 0. -1.
<mgrwt>
<rscale>  0 0.76296656E+02</rscale>
<asrwt>0</asrwt>
<pdfrwt beam="1">  1        2 0.21933090E-01 0.76296656E+02</pdfrwt>
<pdfrwt beam="2">  1       -1 0.15704513E-02 0.76296656E+02</pdfrwt>
<totfact> 0.22343856E+05</totfact>
</mgrwt>
</event>
<event>
 8    1  0.2433467E-024  0.7856176E+02  0.7818608E-02  0.1333183E+00
         -1   -1    0    0    0  501 -0.00000000000E+00  0.00000000000E+00  0.14934809769E+02  0.14934810619E+02  0.50400000000E-02 0.  1.
          2   -1    0    0  501    0  0.00000000000E+00 -0.00000000000E+00 -0.10331484232E+03  0.10331484235E+03  0.25500000000E-02 0. -1.
         24    2    1    2    0    0  0.00000000000E+00  0.88817841970E-15 -0.88380032554E+02  0.11824965297E+03  0.78561760890E+02 0.  0.
         66    2    3    3    0    0 -0.27742336925E+02  0.65927392948E+01 -0.84827258248E+02  0.89514050686E+02  0.20000147253E+01 0.  0.
        -13    1    3    3    0    0  0.27742336925E+02 -0.65927392948E+01 -0.35527743055E+01  0.28735602287E+02  0.10566000000E+00 0.  1.
         13    1    4    4    0    0 -0.11141066775E+02  0.24974976894E+01 -0.34432813775E+02  0.36276586004E+02  0.10566000000E+00 0. -1.
        -13    1    4    4    0    0 -0.50770203129E+01  0.68047445893E+00 -0.16311842402E+02  0.17097559690E+02  0.10566000000E+00 0.  1.
         14    1    4    4    0    0 -0.11524249837E+02  0.34147671465E+01 -0.34082602071E+02  0.36139904993E+02  0.00000000000E+00 0. -1.
<mgrwt>
<rscale>  0 0.78561761E+02</rscale>
<asrwt>0</asrwt>
<pdfrwt beam="1">  1        2 0.15894591E-01 0.78561761E+02</pdfrwt>
<pdfrwt beam="2">  1       -1 0.22976632E-02 0.78561761E+02</pdfrwt>
<totfact> 0.18778530E+05</totfact>
</mgrwt>
</event>
<event>
 8    1  0.2433467E-024  0.8077599E+02  0.7818608E-02  0.1326864E+00
         -1   -1    0    0    0  501 -0.00000000000E+00  0.00000000000E+00  0.99000351260E+01  0.99000364089E+01  0.50400000000E-02 0.  1.
          2   -1    0    0  501    0  0.00000000000E+00 -0.00000000000E+00 -0.16476610172E+03  0.16476610174E+03  0.25500000000E-02 0. -1.
         24    2    1    2    0    0  0.00000000000E+00 -0.35527136788E-14 -0.15486606659E+03  0.17466613815E+03  0.80775994165E+02 0.  0.
         66    2    3    3    0    0  0.83578139980E+01  0.29581630276E+02 -0.20916802294E+02  0.37234909983E+02  0.19999996583E+01 0.  0.
        -13    1    3    3    0    0 -0.83578139980E+01 -0.29581630276E+02 -0.13394926430E+03  0.13743122817E+03  0.10566000000E+00 0.  1.
         13    1    4    4    0    0  0.42273254600E+01  0.15941489714E+02 -0.10678227191E+02  0.19647826211E+02  0.10566000000E+00 0. -1.
        -13    1    4    4    0    0  0.20948749819E+01  0.87470359344E+01 -0.62196004116E+01  0.10935891923E+02  0.10566000000E+00 0.  1.
        -14    1    4    4    0    0  0.20356135561E+01  0.48931046274E+01 -0.40189746914E+01  0.66511918491E+01  0.00000000000E+00 0.  1.
<mgrwt>
<rscale>  0 0.80775994E+02</rscale>
<asrwt>0</asrwt>
<pdfrwt beam="1">  1        2 0.25348629E-01 0.80775994E+02</pdfrwt>
<pdfrwt beam="2">  1       -1 0.15230826E-02 0.80775994E+02</pdfrwt>
<totfact> 0.20132058E+05</totfact>
</mgrwt>
</event>
<event>
 8    1  0.2433467E-024  0.8011643E+02  0.7818608E-02  0.1328721E+00
          2   -1    0    0  501    0  0.00000000000E+00  0.00000000000E+00  0.12028866367E+03  0.12028866369E+03  0.25500000000E-02 0. -1.
         -1   -1    0    0    0  501 -0.00000000000E+00 -0.00000000000E+00 -0.13340081542E+02  0.13340082494E+02  0.50400000000E-02 0.  1.
         24    2    1    2    0    0  0.00000000000E+00  0.00000000000E+00  0.10694858213E+03  0.13362874619E+03  0.80116431457E+02 0.  0.
         66    2    3    3    0    0 -0.92505033233E+01  0.36377755522E+02  0.76723718897E+02  0.85436771445E+02  0.19999912468E+01 0.  0.
        -13    1    3    3    0    0  0.92505033233E+01 -0.36377755522E+02  0.30224863228E+02  0.48191974744E+02  0.10566000000E+00 0.  1.
         13    1    4    4    0    0 -0.74081680872E+01  0.26859634272E+02  0.57517763276E+02  0.63911072311E+02  0.10566000000E+00 0. -1.
        -13    1    4    4    0    0 -0.55037118673E+00  0.35550699128E+01  0.78037728251E+01  0.85936875013E+01  0.10566000000E+00 0.  1.
        -14    1    4    4    0    0 -0.12919640494E+01  0.59630513368E+01  0.11402182795E+02  0.12932011632E+02  0.00000000000E+00 0.  1.
<mgrwt>
<rscale>  0 0.80116431E+02</rscale>
<asrwt>0</asrwt>
<pdfrwt beam="1">  1        2 0.18505948E-01 0.80116431E+02</pdfrwt>
<pdfrwt beam="2">  1       -1 0.20523204E-02 0.80116431E+02</pdfrwt>
<totfact> 0.18627601E+05</totfact>
</mgrwt>
</event>
<event>
 8    1  0.2433467E-024  0.8039964E+02  0.7818608E-02  0.1327921E+00
         -1   -1    0    0    0  501 -0.00000000000E+00  0.00000000000E+00  0.13941445719E+02  0.13941446630E+02  0.50400000000E-02 0.  1.
          2   -1    0    0  501    0  0.00000000000E+00 -0.00000000000E+00 -0.11591520322E+03  0.11591520325E+03  0.25500000000E-02 0. -1.
         24    2    1    2    0    0  0.00000000000E+00  0.00000000000E+00 -0.10197375750E+03  0.12985664988E+03  0.80399641159E+02 0.  0.
         66    2    3    3    0    0  0.18454674950E+02  0.35662241969E+02 -0.53093065920E+02  0.66597629151E+02  0.20000074863E+01 0.  0.
        -13    1    3    3    0    0 -0.18454674950E+02 -0.35662241969E+02 -0.48880691581E+02  0.63259020726E+02  0.10566000000E+00 0.  1.
         13    1    4    4    0    0  0.29133943917E+01  0.50421001370E+01 -0.87063624559E+01  0.10474853313E+02  0.10566000000E+00 0.  1.
        -13    1    4    4    0    0  0.62725804596E+01  0.12879493518E+02 -0.18150711350E+02  0.23123280595E+02  0.10566000000E+00 0. -1.
        -14    1    4    4    0    0  0.92687000992E+01  0.17740648314E+02 -0.26235992114E+02  0.32999495243E+02  0.00000000000E+00 0.  1.
<mgrwt>
<rscale>  0 0.80399641E+02</rscale>
<asrwt>0</asrwt>
<pdfrwt beam="1">  1        2 0.17833108E-01 0.80399641E+02</pdfrwt>
<pdfrwt beam="2">  1       -1 0.21448380E-02 0.80399641E+02</pdfrwt>
<totfact> 0.18250726E+05</totfact>
</mgrwt>
</event>
<event>
 8    1  0.2433467E-024  0.8003306E+02  0.7818608E-02  0.1328958E+00
          2   -1    0    0  501    0  0.00000000000E+00  0.00000000000E+00  0.21580323740E+03  0.21580323742E+03  0.25500000000E-02 0. -1.
         -1   -1    0    0    0  501 -0.00000000000E+00 -0.00000000000E+00 -0.74202887063E+01  0.74202904180E+01  0.50400000000E-02 0.  1.
         24    2    1    2    0    0 -0.71054273576E-14  0.44408920985E-15  0.20838294870E+03  0.22322352784E+03  0.80033056121E+02 0.  0.
         66    2    3    3    0    0  0.34325899722E+02 -0.31804585261E+01  0.16079652117E+03  0.16446246967E+03  0.20000001827E+01 0.  0.
        -13    1    3    3    0    0 -0.34325899722E+02  0.31804585261E+01  0.47586427522E+02  0.58761058164E+02  0.10566000000E+00 0.  1.
         13    1    4    4    0    0  0.30097227158E+02 -0.28309147486E+01  0.14023726381E+03  0.14345856016E+03  0.10566000000E+00 0. -1.
        -13    1    4    4    0    0  0.40872709361E+01 -0.28695185394E+00  0.19003217061E+02  0.19440204417E+02  0.10566000000E+00 0.  1.
         14    1    4    4    0    0  0.14140162750E+00 -0.62591923652E-01  0.15560403086E+01  0.15637050909E+01  0.00000000000E+00 0. -1.
<mgrwt>
<rscale>  0 0.80033056E+02</rscale>
<asrwt>0</asrwt>
<pdfrwt beam="1">  1        2 0.33200497E-01 0.80033056E+02</pdfrwt>
<pdfrwt beam="2">  1       -1 0.11415831E-02 0.80033056E+02</pdfrwt>
<totfact> 0.22628306E+05</totfact>
</mgrwt>
</event>
<event>
 8    1  0.2609962E-024  0.8014983E+02  0.7818608E-02  0.1328627E+00
         -1   -1    0    0    0  501 -0.00000000000E+00  0.00000000000E+00  0.10882066147E+03  0.10882066159E+03  0.50400000000E-02 0.  1.
          2   -1    0    0  501    0  0.00000000000E+00 -0.00000000000E+00 -0.14758215895E+02  0.14758216115E+02  0.25500000000E-02 0. -1.
         24    2    1    2    0    0  0.00000000000E+00  0.00000000000E+00  0.94062445578E+02  0.12357887770E+03  0.80149830609E+02 0.  0.
         66    2    3    3    0    0  0.33658571857E+02  0.56953026006E+01  0.14767704961E+02  0.37248101126E+02  0.19999991267E+01 0.  0.
        -13    1    3    3    0    0 -0.33658571857E+02 -0.56953026006E+01  0.79294740617E+02  0.86330776579E+02  0.10566000000E+00 0.  1.
         13    1    4    4    0    0  0.17968564054E+02  0.35485446998E+01  0.76111141870E+01  0.19834356224E+02  0.10566000000E+00 0.  1.
        -13    1    4    4    0    0  0.13077845128E+02  0.20376670446E+01  0.56079291883E+01  0.14375053182E+02  0.10566000000E+00 0. -1.
        -14    1    4    4    0    0  0.26121626755E+01  0.10909085618E+00  0.15486615853E+01  0.30386917191E+01  0.00000000000E+00 0.  1.
<mgrwt>
<rscale>  0 0.80149831E+02</rscale>
<asrwt>0</asrwt>
<pdfrwt beam="1">  1        2 0.22704947E-02 0.80149831E+02</pdfrwt>
<pdfrwt beam="2">  1       -1 0.16741641E-01 0.80149831E+02</pdfrwt>
<totfact> 0.11582947E+05</totfact>
</mgrwt>
</event>
<event>
 8    1  0.2433467E-024  0.8596404E+02  0.7818608E-02  0.1312931E+00
         -1   -1    0    0    0  501 -0.00000000000E+00  0.00000000000E+00  0.39705371033E+01  0.39705403020E+01  0.50400000000E-02 0.  1.
          2   -1    0    0  501    0  0.00000000000E+00 -0.00000000000E+00 -0.46529051174E+03  0.46529051175E+03  0.25500000000E-02 0. -1.
         24    2    1    2    0    0 -0.17763568394E-14  0.00000000000E+00 -0.46131997464E+03  0.46926105205E+03  0.85964038827E+02 0.  0.
         66    2    3    3    0    0 -0.14668724192E+02 -0.24402118557E+01 -0.45079016225E+03  0.45103979479E+03  0.19999997014E+01 0.  0.
        -13    1    3    3    0    0  0.14668724192E+02  0.24402118557E+01 -0.10529812395E+02  0.18221257268E+02  0.10566000000E+00 0.  1.
         13    1    4    4    0    0 -0.58985581389E+01 -0.39540866796E+00 -0.16727660676E+03  0.16738107321E+03  0.10566000000E+00 0. -1.
        -13    1    4    4    0    0 -0.33624553913E+00  0.86388624491E-01 -0.14564220237E+02  0.14568740481E+02  0.10566000000E+00 0.  1.
         14    1    4    4    0    0 -0.84339205139E+01 -0.21311918123E+01 -0.26894933525E+03  0.26908998109E+03  0.00000000000E+00 0. -1.
<mgrwt>
<rscale>  0 0.85964039E+02</rscale>
<asrwt>0</asrwt>
<pdfrwt beam="1">  1        2 0.71583113E-01 0.85964039E+02</pdfrwt>
<pdfrwt beam="2">  1       -1 0.61085248E-03 0.85964039E+02</pdfrwt>
<totfact> 0.24645036E+05</totfact>
</mgrwt>
</event>
<event>
 8    1  0.2433467E-024  0.7980857E+02  0.7818608E-02  0.1329596E+00
          2   -1    0    0  501    0  0.00000000000E+00  0.00000000000E+00  0.57493605494E+03  0.57493605495E+03  0.25500000000E-02 0. -1.
         -1   -1    0    0    0  501 -0.00000000000E+00 -0.00000000000E+00 -0.27696136931E+01  0.27696182789E+01  0.50400000000E-02 0.  1.
         24    2    1    2    0    0 -0.88817841970E-15 -0.71054273576E-14  0.57216644125E+03  0.57770567322E+03  0.79808573391E+02 0.  0.
         66    2    3    3    0    0 -0.63367961728E+01 -0.32887724590E+02  0.44295677597E+03  0.44422568903E+03  0.20000014216E+01 0.  0.
        -13    1    3    3    0    0  0.63367961728E+01  0.32887724590E+02  0.12920966528E+03  0.13347998419E+03  0.10566000000E+00 0.  1.
         13    1    4    4    0    0 -0.47810472669E+01 -0.22079862595E+02  0.30318225989E+03  0.30402281595E+03  0.10566000000E+00 0. -1.
        -13    1    4    4    0    0 -0.15766550901E+01 -0.86956352808E+01  0.11351061610E+03  0.11385416569E+03  0.10566000000E+00 0.  1.
         14    1    4    4    0    0  0.20906184215E-01 -0.21122267140E+01  0.26263899986E+02  0.26348707392E+02  0.00000000000E+00 0. -1.
<mgrwt>
<rscale>  0 0.79808573E+02</rscale>
<asrwt>0</asrwt>
<pdfrwt beam="1">  1        2 0.88451690E-01 0.79808573E+02</pdfrwt>
<pdfrwt beam="2">  1       -1 0.42609482E-03 0.79808573E+02</pdfrwt>
<totfact> 0.31974811E+05</totfact>
</mgrwt>
</event>
<event>
 8    1  0.2433467E-024  0.8209567E+02  0.7818608E-02  0.1323207E+00
         -1   -1    0    0    0  501 -0.00000000000E+00  0.00000000000E+00  0.27449552019E+02  0.27449552482E+02  0.50400000000E-02 0.  1.
          2   -1    0    0  501    0  0.00000000000E+00 -0.00000000000E+00 -0.61382593893E+02  0.61382593946E+02  0.25500000000E-02 0. -1.
         24    2    1    2    0    0 -0.17763568394E-14  0.00000000000E+00 -0.33933041874E+02  0.88832146428E+02  0.82095669241E+02 0.  0.
         66    2    3    3    0    0  0.13894101536E+02  0.35024363683E+02 -0.34530160069E+02  0.51147669211E+02  0.20000006081E+01 0.  0.
        -13    1    3    3    0    0 -0.13894101536E+02 -0.35024363683E+02  0.59711819525E+00  0.37684477216E+02  0.10566000000E+00 0.  1.
         13    1    4    4    0    0  0.30528308013E+01  0.93279125568E+01 -0.84393627773E+01  0.12944641235E+02  0.10566000000E+00 0. -1.
        -13    1    4    4    0    0  0.43964815579E+01  0.10335836555E+02 -0.11136386542E+02  0.15817358712E+02  0.10566000000E+00 0.  1.
         14    1    4    4    0    0  0.64447891767E+01  0.15360614572E+02 -0.14954410750E+02  0.22385669265E+02  0.00000000000E+00 0. -1.
<mgrwt>
<rscale>  0 0.82095669E+02</rscale>
<asrwt>0</asrwt>
<pdfrwt beam="1">  1        2 0.94434760E-02 0.82095669E+02</pdfrwt>
<pdfrwt beam="2">  1       -1 0.42230081E-02 0.82095669E+02</pdfrwt>
<totfact> 0.14584554E+05</totfact>
</mgrwt>
</event>
<event>
 8    1  0.2433467E-024  0.8278311E+02  0.7818608E-02  0.1321334E+00
         -1   -1    0    0    0  501 -0.00000000000E+00  0.00000000000E+00  0.56197548723E+01  0.56197571323E+01  0.50400000000E-02 0.  1.
          2   -1    0    0  501    0  0.00000000000E+00 -0.00000000000E+00 -0.30486389271E+03  0.30486389272E+03  0.25500000000E-02 0. -1.
         24    2    1    2    0    0  0.35527136788E-14  0.35527136788E-14 -0.29924413783E+03  0.31048364985E+03  0.82783106947E+02 0.  0.
         66    2    3    3    0    0 -0.13505127476E+02 -0.16579701816E+02 -0.28252272432E+03  0.28333789853E+03  0.20000022478E+01 0.  0.
        -13    1    3    3    0    0  0.13505127476E+02  0.16579701816E+02 -0.16721413515E+02  0.27145751314E+02  0.10566000000E+00 0.  1.
         13    1    4    4    0    0 -0.39786370437E+01 -0.61938847255E+01 -0.94295040199E+02  0.94582025412E+02  0.10566000000E+00 0. -1.
        -13    1    4    4    0    0 -0.63877643865E+01 -0.72803919064E+01 -0.13246892342E+03  0.13282256765E+03  0.10566000000E+00 0.  1.
        -14    1    4    4    0    0 -0.31387260462E+01 -0.31054251839E+01 -0.55758760695E+02  0.55933305472E+02  0.00000000000E+00 0.  1.
<mgrwt>
<rscale>  0 0.82783107E+02</rscale>
<asrwt>0</asrwt>
<pdfrwt beam="1">  1        2 0.46902124E-01 0.82783107E+02</pdfrwt>
<pdfrwt beam="2">  1       -1 0.86457809E-03 0.82783107E+02</pdfrwt>
<totfact> 0.23441136E+05</totfact>
</mgrwt>
</event>
<event>
 8    1  0.2433467E-024  0.7900552E+02  0.7818608E-02  0.1331898E+00
         -1   -1    0    0    0  501 -0.00000000000E+00  0.00000000000E+00  0.10039489114E+02  0.10039490380E+02  0.50400000000E-02 0.  1.
          2   -1    0    0  501    0  0.00000000000E+00 -0.00000000000E+00 -0.15543299803E+03  0.15543299805E+03  0.25500000000E-02 0. -1.
         24    2    1    2    0    0  0.00000000000E+00  0.34694469520E-16 -0.14539350891E+03  0.16547248843E+03  0.79005518747E+02 0.  0.
         66    2    3    3    0    0 -0.38758809586E+02  0.57979704537E-01 -0.88446551346E+02  0.96586961484E+02  0.20000003860E+01 0.  0.
        -13    1    3    3    0    0  0.38758809586E+02 -0.57979704537E-01 -0.56946957569E+02  0.68885526945E+02  0.10566000000E+00 0.  1.
         13    1    4    4    0    0 -0.48175351207E+01 -0.25932211769E+00 -0.12291615089E+02  0.13204955817E+02  0.10566000000E+00 0. -1.
        -13    1    4    4    0    0 -0.47326819458E+00 -0.86291568247E-02 -0.10126757168E+01  0.11228238460E+01  0.10566000000E+00 0. -1.
         14    1    4    4    0    0 -0.33468006271E+02  0.32593097905E+00 -0.75142260540E+02  0.82259181821E+02  0.00000000000E+00 0. -1.
<mgrwt>
<rscale>  0 0.79005519E+02</rscale>
<asrwt>0</asrwt>
<pdfrwt beam="1">  1        2 0.23912767E-01 0.79005519E+02</pdfrwt>
<pdfrwt beam="2">  1       -1 0.15445370E-02 0.79005519E+02</pdfrwt>
<totfact> 0.20945020E+05</totfact>
</mgrwt>
</event>
<event>
 8    1  0.2433467E-024  0.8009898E+02  0.7818608E-02  0.1328771E+00
         -1   -1    0    0    0  501 -0.00000000000E+00  0.00000000000E+00  0.33740392818E+02  0.33740393194E+02  0.50400000000E-02 0.  1.
          2   -1    0    0  501    0  0.00000000000E+00 -0.00000000000E+00 -0.47538325416E+02  0.47538325484E+02  0.25500000000E-02 0. -1.
         24    2    1    2    0    0  0.00000000000E+00  0.00000000000E+00 -0.13797932598E+02  0.81278718679E+02  0.80098983552E+02 0.  0.
         66    2    3    3    0    0 -0.10699731292E+02 -0.10658206370E+02 -0.44515001021E+02  0.47049621856E+02  0.19999970451E+01 0.  0.
        -13    1    3    3    0    0  0.10699731292E+02  0.10658206370E+02  0.30717068423E+02  0.34229096823E+02  0.10566000000E+00 0.  1.
         13    1    4    4    0    0 -0.37478297397E+01 -0.39539016482E+01 -0.15597206852E+02  0.16521609837E+02  0.10566000000E+00 0. -1.
        -13    1    4    4    0    0 -0.69927978425E+01 -0.65194199295E+01 -0.27900321118E+02  0.29493069362E+02  0.10566000000E+00 0.  1.
        -14    1    4    4    0    0  0.40896290342E-01 -0.18488479215E+00 -0.10174730509E+01  0.10349426565E+01  0.00000000000E+00 0.  1.
<mgrwt>
<rscale>  0 0.80098984E+02</rscale>
<asrwt>0</asrwt>
<pdfrwt beam="1">  1        2 0.73135886E-02 0.80098984E+02</pdfrwt>
<pdfrwt beam="2">  1       -1 0.51908297E-02 0.80098984E+02</pdfrwt>
<totfact> 0.14730798E+05</totfact>
</mgrwt>
</event>
<event>
 8    1  0.2433467E-024  0.8071695E+02  0.7818608E-02  0.1327029E+00
          2   -1    0    0  501    0  0.00000000000E+00  0.00000000000E+00  0.15460704152E+03  0.15460704155E+03  0.25500000000E-02 0. -1.
         -1   -1    0    0    0  501 -0.00000000000E+00 -0.00000000000E+00 -0.10535138172E+02  0.10535139378E+02  0.50400000000E-02 0.  1.
         24    2    1    2    0    0  0.00000000000E+00  0.00000000000E+00  0.14407190335E+03  0.16514218092E+03  0.80716953513E+02 0.  0.
         66    2    3    3    0    0 -0.18534582079E+02  0.11336286074E+02  0.14160474064E+03  0.14327576442E+03  0.19999956361E+01 0.  0.
        -13    1    3    3    0    0  0.18534582079E+02 -0.11336286074E+02  0.24671627075E+01  0.21866416502E+02  0.10566000000E+00 0.  1.
         13    1    4    4    0    0 -0.57675010112E+01  0.38019949190E+01  0.41687084522E+02  0.42255690898E+02  0.10566000000E+00 0. -1.
        -13    1    4    4    0    0 -0.93555371064E+01  0.48953125861E+01  0.69153062510E+02  0.69954609415E+02  0.10566000000E+00 0.  1.
        -14    1    4    4    0    0 -0.34115439612E+01  0.26389785688E+01  0.30764593613E+02  0.31065464108E+02  0.00000000000E+00 0.  1.
<mgrwt>
<rscale>  0 0.80716954E+02</rscale>
<asrwt>0</asrwt>
<pdfrwt beam="1">  1        2 0.23785696E-01 0.80716954E+02</pdfrwt>
<pdfrwt beam="2">  1       -1 0.16207908E-02 0.80716954E+02</pdfrwt>
<totfact> 0.19753901E+05</totfact>
</mgrwt>
</event>
<event>
 8    1  0.2433467E-024  0.7811100E+02  0.7818608E-02  0.1334499E+00
          2   -1    0    0  501    0  0.00000000000E+00  0.00000000000E+00  0.59519341220E+01  0.59519346682E+01  0.25500000000E-02 0. -1.
         -1   -1    0    0    0  501 -0.00000000000E+00 -0.00000000000E+00 -0.25627500135E+03  0.25627500139E+03  0.50400000000E-02 0.  1.
         24    2    1    2    0    0  0.00000000000E+00  0.17763568394E-14 -0.25032306722E+03  0.26222693606E+03  0.78110998028E+02 0.  0.
         66    2    3    3    0    0 -0.36471227110E+02 -0.93191298372E+01 -0.90625994217E+02  0.98153285288E+02  0.19999993082E+01 0.  0.
        -13    1    3    3    0    0  0.36471227110E+02  0.93191298372E+01 -0.15969707301E+03  0.16407365078E+03  0.10566000000E+00 0.  1.
         13    1    4    4    0    0 -0.75103767022E+01 -0.24443050312E+01 -0.18429395237E+02  0.20050789464E+02  0.10566000000E+00 0. -1.
        -13    1    4    4    0    0 -0.73146564254E+01 -0.11799544481E+01 -0.17723960511E+02  0.19210581234E+02  0.10566000000E+00 0.  1.
         14    1    4    4    0    0 -0.21646193982E+02 -0.56948703580E+01 -0.54472638468E+02  0.58891914589E+02  0.00000000000E+00 0. -1.
<mgrwt>
<rscale>  0 0.78110998E+02</rscale>
<asrwt>0</asrwt>
<pdfrwt beam="1">  1        2 0.91568241E-03 0.78110998E+02</pdfrwt>
<pdfrwt beam="2">  1       -1 0.39426915E-01 0.78110998E+02</pdfrwt>
<totfact> 0.97575886E+04</totfact>
</mgrwt>
</event>
<event>
 8    1  0.2433467E-024  0.8010898E+02  0.7818608E-02  0.1328742E+00
          2   -1    0    0  501    0  0.00000000000E+00  0.00000000000E+00  0.28621220592E+03  0.28621220593E+03  0.25500000000E-02 0. -1.
         -1   -1    0    0    0  501 -0.00000000000E+00 -0.00000000000E+00 -0.56054969706E+01  0.56054992364E+01  0.50400000000E-02 0.  1.
         24    2    1    2    0    0  0.71054273576E-14  0.00000000000E+00  0.28060670895E+03  0.29181770516E+03  0.80108975414E+02 0.  0.
         66    2    3    3    0    0 -0.33930849022E+02 -0.10379534734E+02  0.72894277019E+02  0.81096318500E+02  0.19999988754E+01 0.  0.
        -13    1    3    3    0    0  0.33930849022E+02  0.10379534734E+02  0.20771243193E+03  0.21072138666E+03  0.10566000000E+00 0.  1.
         13    1    4    4    0    0 -0.73032689989E+01 -0.17013567615E+01  0.15035350267E+02  0.16801942584E+02  0.10566000000E+00 0. -1.
        -13    1    4    4    0    0 -0.21123281448E+02 -0.73291644328E+01  0.45403024327E+02  0.50609835531E+02  0.10566000000E+00 0.  1.
        -14    1    4    4    0    0 -0.55042985753E+01 -0.13490135395E+01  0.12455902425E+02  0.13684540386E+02  0.00000000000E+00 0.  1.
<mgrwt>
<rscale>  0 0.80108975E+02</rscale>
<asrwt>0</asrwt>
<pdfrwt beam="1">  1        2 0.44032656E-01 0.80108975E+02</pdfrwt>
<pdfrwt beam="2">  1       -1 0.86238415E-03 0.80108975E+02</pdfrwt>
<totfact> 0.24974311E+05</totfact>
</mgrwt>
</event>
<event>
 8    1  0.2433467E-024  0.8678619E+02  0.7818608E-02  0.1310826E+00
         -1   -1    0    0    0  501 -0.00000000000E+00  0.00000000000E+00  0.19775404939E+01  0.19775469165E+01  0.50400000000E-02 0.  1.
          2   -1    0    0  501    0  0.00000000000E+00 -0.00000000000E+00 -0.95217155602E+03  0.95217155603E+03  0.25500000000E-02 0. -1.
         24    2    1    2    0    0  0.17763568394E-14  0.00000000000E+00 -0.95019401553E+03  0.95414910294E+03  0.86786194175E+02 0.  0.
         66    2    3    3    0    0  0.14191240665E+02  0.31327933612E+02 -0.76583931133E+03  0.76661377598E+03  0.20000005888E+01 0.  0.
        -13    1    3    3    0    0 -0.14191240665E+02 -0.31327933612E+02 -0.18435470420E+03  0.18753532696E+03  0.10566000000E+00 0.  1.
         13    1    4    4    0    0  0.41699655170E+01  0.78763131919E+01 -0.19116071513E+03  0.19136837538E+03  0.10566000000E+00 0. -1.
        -13    1    4    4    0    0  0.14400531370E+01  0.44549160230E+01 -0.10823274041E+03  0.10833400800E+03  0.10566000000E+00 0.  1.
        -14    1    4    4    0    0  0.85812220112E+01  0.18996704398E+02 -0.46644585580E+03  0.46691139260E+03  0.00000000000E+00 0.  1.
<mgrwt>
<rscale>  0 0.86786194E+02</rscale>
<asrwt>0</asrwt>
<pdfrwt beam="1">  1        2 0.14648757E+00 0.86786194E+02</pdfrwt>
<pdfrwt beam="2">  1       -1 0.30423826E-03 0.86786194E+02</pdfrwt>
<totfact> 0.28411335E+05</totfact>
</mgrwt>
</event>
<event>
 8    1  0.2433467E-024  0.8472092E+02  0.7818608E-02  0.1316164E+00
          2   -1    0    0  501    0  0.00000000000E+00  0.00000000000E+00  0.58850389956E+01  0.58850395481E+01  0.25500000000E-02 0. -1.
         -1   -1    0    0    0  501 -0.00000000000E+00 -0.00000000000E+00 -0.30491022571E+03  0.30491022575E+03  0.50400000000E-02 0.  1.
         24    2    1    2    0    0  0.00000000000E+00  0.00000000000E+00 -0.29902518671E+03  0.31079526529E+03  0.84720922109E+02 0.  0.
         66    2    3    3    0    0  0.38561919052E+02 -0.41222669017E+01 -0.87297836649E+02  0.95545418342E+02  0.19999993216E+01 0.  0.
        -13    1    3    3    0    0 -0.38561919052E+02  0.41222669017E+01 -0.21172735006E+03  0.21524984695E+03  0.10566000000E+00 0.  1.
         13    1    4    4    0    0  0.33921630616E+02 -0.34237150883E+01 -0.77802273948E+02  0.84944710513E+02  0.10566000000E+00 0. -1.
        -13    1    4    4    0    0  0.38565666758E+00 -0.97881454432E-01 -0.96341503784E+00  0.10476852653E+01  0.10566000000E+00 0. -1.
         14    1    4    4    0    0  0.42546317679E+01 -0.60067035893E+00 -0.85321476626E+01  0.95530225633E+01  0.00000000000E+00 0. -1.
<mgrwt>
<rscale>  0 0.84720922E+02</rscale>
<asrwt>0</asrwt>
<pdfrwt beam="1">  1        2 0.90539090E-03 0.84720922E+02</pdfrwt>
<pdfrwt beam="2">  1       -1 0.46909253E-01 0.84720922E+02</pdfrwt>
<totfact> 0.74105275E+04</totfact>
</mgrwt>
</event>
<event>
 8    1  0.2433467E-024  0.8029803E+02  0.7818608E-02  0.1328208E+00
         -1   -1    0    0    0  501 -0.00000000000E+00  0.00000000000E+00  0.65307033416E+01  0.65307052864E+01  0.50400000000E-02 0.  1.
          2   -1    0    0  501    0  0.00000000000E+00 -0.00000000000E+00 -0.24682535094E+03  0.24682535095E+03  0.25500000000E-02 0. -1.
         24    2    1    2    0    0  0.44408920985E-15  0.00000000000E+00 -0.24029464759E+03  0.25335605623E+03  0.80298029669E+02 0.  0.
         66    2    3    3    0    0 -0.23871686159E+01  0.21596181519E+02 -0.22665259573E+03  0.22770044528E+03  0.20000001535E+01 0.  0.
        -13    1    3    3    0    0  0.23871686159E+01 -0.21596181519E+02 -0.13642051862E+02  0.25655610950E+02  0.10566000000E+00 0.  1.
         13    1    4    4    0    0 -0.12526333898E+01  0.15569270577E+02 -0.16359318979E+03  0.16433719660E+03  0.10566000000E+00 0. -1.
        -13    1    4    4    0    0  0.90604785874E-01  0.14125889353E+01 -0.13498086898E+02  0.13572513793E+02  0.10566000000E+00 0.  1.
        -14    1    4    4    0    0 -0.12251400120E+01  0.46143220061E+01 -0.49561319046E+02  0.49790734893E+02  0.00000000000E+00 0.  1.
<mgrwt>
<rscale>  0 0.80298030E+02</rscale>
<asrwt>0</asrwt>
<pdfrwt beam="1">  1        2 0.37973124E-01 0.80298030E+02</pdfrwt>
<pdfrwt beam="2">  1       -1 0.10047239E-02 0.80298030E+02</pdfrwt>
<totfact> 0.23528193E+05</totfact>
</mgrwt>
</event>
<event>
 8    1  0.2433467E-024  0.7906083E+02  0.7818608E-02  0.1331738E+00
         -1   -1    0    0    0  501 -0.00000000000E+00  0.00000000000E+00  0.19703290839E+02  0.19703291483E+02  0.50400000000E-02 0.  1.
          2   -1    0    0  501    0  0.00000000000E+00 -0.00000000000E+00 -0.79309282898E+02  0.79309282939E+02  0.25500000000E-02 0. -1.
         24    2    1    2    0    0  0.00000000000E+00  0.00000000000E+00 -0.59605992060E+02  0.99012574423E+02  0.79060834833E+02 0.  0.
         66    2    3    3    0    0 -0.28318253586E+02 -0.27530111473E+02 -0.30954987475E+02  0.50219934080E+02  0.20000013761E+01 0.  0.
        -13    1    3    3    0    0  0.28318253586E+02  0.27530111473E+02 -0.28651004584E+02  0.48792640343E+02  0.10566000000E+00 0.  1.
         13    1    4    4    0    0 -0.55741278232E+01 -0.48948846160E+01 -0.59839427308E+01  0.95315020346E+01  0.10566000000E+00 0. -1.
        -13    1    4    4    0    0 -0.11676224983E+02 -0.12568240488E+02 -0.13789912026E+02  0.22010627809E+02  0.10566000000E+00 0.  1.
        -14    1    4    4    0    0 -0.11067900780E+02 -0.10066986369E+02 -0.11181132718E+02  0.18677804236E+02  0.00000000000E+00 0.  1.
<mgrwt>
<rscale>  0 0.79060835E+02</rscale>
<asrwt>0</asrwt>
<pdfrwt beam="1">  1        2 0.12201428E-01 0.79060835E+02</pdfrwt>
<pdfrwt beam="2">  1       -1 0.30312756E-02 0.79060835E+02</pdfrwt>
<totfact> 0.17197168E+05</totfact>
</mgrwt>
</event>
<event>
 8    1  0.2433467E-024  0.8150156E+02  0.7818608E-02  0.1324843E+00
          2   -1    0    0  501    0  0.00000000000E+00  0.00000000000E+00  0.17081075639E+04  0.17081075639E+04  0.25500000000E-02 0. -1.
         -1   -1    0    0    0  501 -0.00000000000E+00 -0.00000000000E+00 -0.97219573333E+00  0.97220879727E+00  0.50400000000E-02 0.  1.
         24    2    1    2    0    0  0.17763568394E-14  0.00000000000E+00  0.17071353682E+04  0.17090797727E+04  0.81501559519E+02 0.  0.
         66    2    3    3    0    0  0.14655286222E+02  0.25427628960E+01  0.16491073182E+04  0.16491756092E+04  0.19999981282E+01 0.  0.
        -13    1    3    3    0    0 -0.14655286222E+02 -0.25427628960E+01  0.58028050019E+02  0.59904163549E+02  0.10566000000E+00 0.  1.
         13    1    4    4    0    0  0.45663168840E+01  0.50216675118E+00  0.56092471053E+03  0.56094353145E+03  0.10566000000E+00 0. -1.
        -13    1    4    4    0    0  0.20169472574E+01  0.35578443663E+00  0.27566091765E+03  0.27566854617E+03  0.10566000000E+00 0.  1.
        -14    1    4    4    0    0  0.80720220802E+01  0.16848117082E+01  0.81252169000E+03  0.81256353158E+03  0.00000000000E+00 0.  1.
<mgrwt>
<rscale>  0 0.81501560E+02</rscale>
<asrwt>0</asrwt>
<pdfrwt beam="1">  1        2 0.26278796E+00 0.81501560E+02</pdfrwt>
<pdfrwt beam="2">  1       -1 0.14956834E-03 0.81501560E+02</pdfrwt>
<totfact> 0.29769934E+05</totfact>
</mgrwt>
</event>
<event>
 8    1  0.2433467E-024  0.8318130E+02  0.7818608E-02  0.1320258E+00
          2   -1    0    0  501    0  0.00000000000E+00  0.00000000000E+00  0.53998465591E+02  0.53998465651E+02  0.25500000000E-02 0. -1.
         -1   -1    0    0    0  501 -0.00000000000E+00 -0.00000000000E+00 -0.32033916444E+02  0.32033916841E+02  0.50400000000E-02 0.  1.
         24    2    1    2    0    0  0.00000000000E+00  0.00000000000E+00  0.21964549146E+02  0.86032382492E+02  0.83181304498E+02 0.  0.
         66    2    3    3    0    0  0.40932831227E+02  0.64585809058E+01  0.76264298689E+01  0.42182607487E+02  0.20000005710E+01 0.  0.
        -13    1    3    3    0    0 -0.40932831227E+02 -0.64585809058E+01  0.14338119277E+02  0.43849775005E+02  0.10566000000E+00 0.  1.
         13    1    4    4    0    0  0.28074477179E+01  0.71351489010E+00  0.81725597727E+00  0.30116337020E+01  0.10566000000E+00 0. -1.
        -13    1    4    4    0    0  0.21509873867E+02  0.34511365988E+01  0.44106833876E+01  0.22227242509E+02  0.10566000000E+00 0.  1.
        -14    1    4    4    0    0  0.16615509642E+02  0.22939294169E+01  0.23984905041E+01  0.16943731276E+02  0.00000000000E+00 0.  1.
<mgrwt>
<rscale>  0 0.83181304E+02</rscale>
<asrwt>0</asrwt>
<pdfrwt beam="1">  1        2 0.83074562E-02 0.83181304E+02</pdfrwt>
<pdfrwt beam="2">  1       -1 0.49282949E-02 0.83181304E+02</pdfrwt>
<totfact> 0.13658792E+05</totfact>
</mgrwt>
</event>
<event>
 8    1  0.2433467E-024  0.7946915E+02  0.7818608E-02  0.1330565E+00
         -1   -1    0    0    0  501 -0.00000000000E+00  0.00000000000E+00  0.77094584021E+01  0.77094600495E+01  0.50400000000E-02 0.  1.
          2   -1    0    0  501    0  0.00000000000E+00 -0.00000000000E+00 -0.20479212848E+03  0.20479212849E+03  0.25500000000E-02 0. -1.
         24    2    1    2    0    0 -0.35527136788E-14 -0.35527136788E-14 -0.19708267008E+03  0.21250158854E+03  0.79469153067E+02 0.  0.
         66    2    3    3    0    0  0.19036978054E+02  0.16953060886E+02 -0.18001922020E+03  0.18182610497E+03  0.19999997693E+01 0.  0.
        -13    1    3    3    0    0 -0.19036978054E+02 -0.16953060886E+02 -0.17063449871E+02  0.30675483572E+02  0.10566000000E+00 0.  1.
         13    1    4    4    0    0  0.13297410792E+02  0.10979136456E+02 -0.12014792312E+03  0.12137914633E+03  0.10566000000E+00 0. -1.
        -13    1    4    4    0    0  0.46857317631E+01  0.47169025608E+01 -0.45750877254E+02  0.46231582121E+02  0.10566000000E+00 0.  1.
         14    1    4    4    0    0  0.10538354994E+01  0.12570218688E+01 -0.14120419832E+02  0.14215376515E+02  0.00000000000E+00 0. -1.
<mgrwt>
<rscale>  0 0.79469153E+02</rscale>
<asrwt>0</asrwt>
<pdfrwt beam="1">  1        2 0.31506477E-01 0.79469153E+02</pdfrwt>
<pdfrwt beam="2">  1       -1 0.11860708E-02 0.79469153E+02</pdfrwt>
<totfact> 0.22634963E+05</totfact>
</mgrwt>
</event>
<event>
 8    1  0.2433467E-024  0.7970299E+02  0.7818608E-02  0.1329896E+00
         -1   -1    0    0    0  501 -0.00000000000E+00  0.00000000000E+00  0.19117915673E+01  0.19117982107E+01  0.50400000000E-02 0.  1.
          2   -1    0    0  501    0  0.00000000000E+00 -0.00000000000E+00 -0.83070713476E+03  0.83070713476E+03  0.25500000000E-02 0. -1.
         24    2    1    2    0    0  0.27755575616E-16  0.35527136788E-14 -0.82879534319E+03  0.83261893298E+03  0.79702990220E+02 0.  0.
         66    2    3    3    0    0 -0.67555945697E-01 -0.28684567359E+02 -0.70327838531E+03  0.70386596467E+03  0.20000002775E+01 0.  0.
        -13    1    3    3    0    0  0.67555945697E-01  0.28684567359E+02 -0.12551695788E+03  0.12875296831E+03  0.10566000000E+00 0.  1.
         13    1    4    4    0    0  0.43822476618E+00 -0.17223788053E+02 -0.40304012735E+03  0.40340823781E+03  0.10566000000E+00 0. -1.
        -13    1    4    4    0    0 -0.38549109940E+00 -0.76903419406E+01 -0.20697403092E+03  0.20711723878E+03  0.10566000000E+00 0.  1.
        -14    1    4    4    0    0 -0.12028961248E+00 -0.37704373658E+01 -0.93264227043E+02  0.93340488072E+02  0.00000000000E+00 0.  1.
<mgrwt>
<rscale>  0 0.79702990E+02</rscale>
<asrwt>0</asrwt>
<pdfrwt beam="1">  1        2 0.12780081E+00 0.79702990E+02</pdfrwt>
<pdfrwt beam="2">  1       -1 0.29412296E-03 0.79702990E+02</pdfrwt>
<totfact> 0.34913218E+05</totfact>
</mgrwt>
</event>
<event>
 8    1  0.2433467E-024  0.8054960E+02  0.7818608E-02  0.1327499E+00
          2   -1    0    0  501    0  0.00000000000E+00  0.00000000000E+00  0.10944051852E+03  0.10944051855E+03  0.25500000000E-02 0. -1.
         -1   -1    0    0    0  501 -0.00000000000E+00 -0.00000000000E+00 -0.14821378101E+02  0.14821378957E+02  0.50400000000E-02 0.  1.
         24    2    1    2    0    0  0.11102230246E-15 -0.35527136788E-14  0.94619140423E+02  0.12426189751E+03  0.80549596141E+02 0.  0.
         66    2    3    3    0    0 -0.28665341741E+00  0.22555693406E+02  0.98763531256E+02  0.10132658381E+03  0.20000011829E+01 0.  0.
        -13    1    3    3    0    0  0.28665341741E+00 -0.22555693406E+02 -0.41443908335E+01  0.22935313703E+02  0.10566000000E+00 0.  1.
         13    1    4    4    0    0 -0.78229160581E+00  0.16805921538E+02  0.71838560305E+02  0.73782388750E+02  0.10566000000E+00 0. -1.
        -13    1    4    4    0    0  0.54558576929E+00  0.52037343510E+01  0.23504865131E+02  0.24080414529E+02  0.10566000000E+00 0.  1.
        -14    1    4    4    0    0 -0.49947580889E-01  0.54603751750E+00  0.34201058202E+01  0.34637805290E+01  0.00000000000E+00 0.  1.
<mgrwt>
<rscale>  0 0.80549596E+02</rscale>
<asrwt>0</asrwt>
<pdfrwt beam="1">  1        2 0.16837002E-01 0.80549596E+02</pdfrwt>
<pdfrwt beam="2">  1       -1 0.22802122E-02 0.80549596E+02</pdfrwt>
<totfact> 0.17856989E+05</totfact>
</mgrwt>
</event>
<event>
 8    1  0.2433467E-024  0.7896590E+02  0.7818608E-02  0.1332012E+00
          2   -1    0    0  501    0  0.00000000000E+00  0.00000000000E+00  0.35132686703E+03  0.35132686704E+03  0.25500000000E-02 0. -1.
         -1   -1    0    0    0  501 -0.00000000000E+00 -0.00000000000E+00 -0.44371861014E+01  0.44371889638E+01  0.50400000000E-02 0.  1.
         24    2    1    2    0    0 -0.27755575616E-16  0.00000000000E+00  0.34688968093E+03  0.35576405601E+03  0.78965896494E+02 0.  0.
         66    2    3    3    0    0  0.23393218662E+00  0.23108907925E+02  0.31764203083E+03  0.31848789003E+03  0.19999982317E+01 0.  0.
        -13    1    3    3    0    0 -0.23393218662E+00 -0.23108907925E+02  0.29247650100E+02  0.37276165980E+02  0.10566000000E+00 0.  1.
         13    1    4    4    0    0  0.37580370513E+00  0.86812503625E+01  0.10891422764E+03  0.10926035641E+03  0.10566000000E+00 0. -1.
        -13    1    4    4    0    0 -0.42407461152E+00  0.51347003115E+01  0.75959087061E+02  0.76133692001E+02  0.10566000000E+00 0.  1.
         14    1    4    4    0    0  0.28220309302E+00  0.92929572508E+01  0.13276871613E+03  0.13309384161E+03  0.00000000000E+00 0. -1.
<mgrwt>
<rscale>  0 0.78965896E+02</rscale>
<asrwt>0</asrwt>
<pdfrwt beam="1">  1        2 0.54050265E-01 0.78965896E+02</pdfrwt>
<pdfrwt beam="2">  1       -1 0.68264452E-03 0.78965896E+02</pdfrwt>
<totfact> 0.27919829E+05</totfact>
</mgrwt>
</event>
<event>
 8    1  0.2433467E-024  0.7683755E+02  0.7818608E-02  0.1338273E+00
          2   -1    0    0  501    0  0.00000000000E+00  0.00000000000E+00  0.21402397962E+04  0.21402397962E+04  0.25500000000E-02 0. -1.
         -1   -1    0    0    0  501 -0.00000000000E+00 -0.00000000000E+00 -0.68963418933E+00  0.68965260581E+00  0.50400000000E-02 0.  1.
         24    2    1    2    0    0 -0.17763568394E-14  0.44408920985E-15  0.21395501620E+04  0.21409294488E+04  0.76837549484E+02 0.  0.
         66    2    3    3    0    0  0.15316118117E+02 -0.30954717934E+01  0.20476264514E+04  0.20476870488E+04  0.19999984177E+01 0.  0.
        -13    1    3    3    0    0 -0.15316118117E+02  0.30954717934E+01  0.91923710623E+02  0.93242400004E+02  0.10566000000E+00 0.  1.
         13    1    4    4    0    0  0.56581493122E+00 -0.12585473631E+00  0.94530617437E+02  0.94532453597E+02  0.10566000000E+00 0. -1.
        -13    1    4    4    0    0  0.11439449527E+02 -0.20747562498E+01  0.15930707931E+04  0.15931132191E+04  0.10566000000E+00 0.  1.
        -14    1    4    4    0    0  0.33108536588E+01 -0.89486080725E+00  0.36002504083E+03  0.36004137617E+03  0.00000000000E+00 0.  1.
<mgrwt>
<rscale>  0 0.76837549E+02</rscale>
<asrwt>0</asrwt>
<pdfrwt beam="1">  1        2 0.32926758E+00 0.76837549E+02</pdfrwt>
<pdfrwt beam="2">  1       -1 0.10609901E-03 0.76837549E+02</pdfrwt>
<totfact> 0.28785889E+05</totfact>
</mgrwt>
</event>
<event>
 8    1  0.2433467E-024  0.7979756E+02  0.7818608E-02  0.1329627E+00
          2   -1    0    0  501    0  0.00000000000E+00  0.00000000000E+00  0.63026708139E+03  0.63026708140E+03  0.25500000000E-02 0. -1.
         -1   -1    0    0    0  501 -0.00000000000E+00 -0.00000000000E+00 -0.25257721940E+01  0.25257772225E+01  0.50400000000E-02 0.  1.
         24    2    1    2    0    0 -0.35527136788E-14  0.00000000000E+00  0.62774130920E+03  0.63279285862E+03  0.79797560403E+02 0.  0.
         66    2    3    3    0    0 -0.27190845325E+02 -0.12718415928E+02  0.52219066359E+03  0.52305658328E+03  0.19999995303E+01 0.  0.
        -13    1    3    3    0    0  0.27190845325E+02  0.12718415928E+02  0.10555064561E+03  0.10973627534E+03  0.10566000000E+00 0.  1.
         13    1    4    4    0    0 -0.79487114456E+01 -0.40200763659E+01  0.16253266406E+03  0.16277659868E+03  0.10566000000E+00 0. -1.
        -13    1    4    4    0    0 -0.52563985585E+01 -0.17247614758E+01  0.94195316433E+02  0.94357688239E+02  0.10566000000E+00 0.  1.
        -14    1    4    4    0    0 -0.13985735321E+02 -0.69735780867E+01  0.26546268310E+03  0.26592229636E+03  0.00000000000E+00 0.  1.
<mgrwt>
<rscale>  0 0.79797560E+02</rscale>
<asrwt>0</asrwt>
<pdfrwt beam="1">  1        2 0.96964200E-01 0.79797560E+02</pdfrwt>
<pdfrwt beam="2">  1       -1 0.38858059E-03 0.79797560E+02</pdfrwt>
<totfact> 0.32811315E+05</totfact>
</mgrwt>
</event>
<event>
 8    1  0.2433467E-024  0.7959931E+02  0.7818608E-02  0.1330192E+00
          2   -1    0    0  501    0  0.00000000000E+00  0.00000000000E+00  0.29145851877E+03  0.29145851879E+03  0.25500000000E-02 0. -1.
         -1   -1    0    0    0  501 -0.00000000000E+00 -0.00000000000E+00 -0.54347780976E+01  0.54347804346E+01  0.50400000000E-02 0.  1.
         24    2    1    2    0    0 -0.44408920985E-15  0.35527136788E-14  0.28602374068E+03  0.29689329922E+03  0.79599314639E+02 0.  0.
         66    2    3    3    0    0 -0.20288213633E+01  0.27565944286E+02  0.24977882369E+03  0.25131147640E+03  0.20000009906E+01 0.  0.
        -13    1    3    3    0    0  0.20288213633E+01 -0.27565944286E+02  0.36244916984E+02  0.45581822821E+02  0.10566000000E+00 0.  1.
         13    1    4    4    0    0 -0.89046449735E+00  0.74905344142E+01  0.71780477098E+02  0.72175820669E+02  0.10566000000E+00 0. -1.
        -13    1    4    4    0    0 -0.56242323230E+00  0.17441506816E+02  0.15570517573E+03  0.15668004147E+03  0.10566000000E+00 0.  1.
        -14    1    4    4    0    0 -0.57593363362E+00  0.26339030559E+01  0.22293170863E+02  0.22455614264E+02  0.00000000000E+00 0.  1.
<mgrwt>
<rscale>  0 0.79599315E+02</rscale>
<asrwt>0</asrwt>
<pdfrwt beam="1">  1        2 0.44839784E-01 0.79599315E+02</pdfrwt>
<pdfrwt beam="2">  1       -1 0.83611967E-03 0.79599315E+02</pdfrwt>
<totfact> 0.25563538E+05</totfact>
</mgrwt>
</event>
<event>
 8    1  0.2433467E-024  0.8002755E+02  0.7818608E-02  0.1328973E+00
         -1   -1    0    0    0  501 -0.00000000000E+00  0.00000000000E+00  0.13888980830E+01  0.13889072275E+01  0.50400000000E-02 0.  1.
          2   -1    0    0  501    0  0.00000000000E+00 -0.00000000000E+00 -0.11527820666E+04  0.11527820666E+04  0.25500000000E-02 0. -1.
         24    2    1    2    0    0  0.00000000000E+00  0.00000000000E+00 -0.11513931686E+04  0.11541709739E+04  0.80027547288E+02 0.  0.
         66    2    3    3    0    0  0.10843879629E+02 -0.21571379621E+02 -0.10357997033E+04  0.10360829790E+04  0.19999996951E+01 0.  0.
        -13    1    3    3    0    0 -0.10843879629E+02  0.21571379621E+02 -0.11559346529E+03  0.11808799484E+03  0.10566000000E+00 0.  1.
         13    1    4    4    0    0  0.13391609738E+00 -0.39577581737E+00 -0.13291841760E+02  0.13298826769E+02  0.10566000000E+00 0.  1.
        -13    1    4    4    0    0  0.80047699433E+01 -0.15218019887E+02 -0.76429195550E+03  0.76448536211E+03  0.10566000000E+00 0. -1.
         14    1    4    4    0    0  0.27051935882E+01 -0.59575839164E+01 -0.25821590600E+03  0.25829879015E+03  0.00000000000E+00 0. -1.
<mgrwt>
<rscale>  0 0.80027547E+02</rscale>
<asrwt>0</asrwt>
<pdfrwt beam="1">  1        2 0.17735032E+00 0.80027547E+02</pdfrwt>
<pdfrwt beam="2">  1       -1 0.21367825E-03 0.80027547E+02</pdfrwt>
<totfact> 0.35135121E+05</totfact>
</mgrwt>
</event>
<event>
 8    1  0.2433467E-024  0.7751608E+02  0.7818608E-02  0.1336252E+00
         -1   -1    0    0    0  501 -0.00000000000E+00  0.00000000000E+00  0.16302774104E+02  0.16302774883E+02  0.50400000000E-02 0.  1.
          2   -1    0    0  501    0  0.00000000000E+00 -0.00000000000E+00 -0.92142945515E+02  0.92142945550E+02  0.25500000000E-02 0. -1.
         24    2    1    2    0    0  0.35527136788E-14  0.00000000000E+00 -0.75840171410E+02  0.10844572043E+03  0.77516080143E+02 0.  0.
         66    2    3    3    0    0  0.28823846567E+02 -0.13373675171E+02 -0.68929807740E+02  0.75927516169E+02  0.19999995132E+01 0.  0.
        -13    1    3    3    0    0 -0.28823846567E+02  0.13373675171E+02 -0.69103636708E+01  0.32518204264E+02  0.10566000000E+00 0.  1.
         13    1    4    4    0    0  0.10886351988E+02 -0.48552658194E+01 -0.26821875075E+02  0.29351497617E+02  0.10566000000E+00 0. -1.
        -13    1    4    4    0    0  0.39368731268E+01 -0.20533627814E+01 -0.81857593069E+01  0.93130600875E+01  0.10566000000E+00 0.  1.
        -14    1    4    4    0    0  0.14000621452E+02 -0.64650465701E+01 -0.33922173357E+02  0.37262958464E+02  0.00000000000E+00 0.  1.
<mgrwt>
<rscale>  0 0.77516080E+02</rscale>
<asrwt>0</asrwt>
<pdfrwt beam="1">  1        2 0.14175837E-01 0.77516080E+02</pdfrwt>
<pdfrwt beam="2">  1       -1 0.25081192E-02 0.77516080E+02</pdfrwt>
<totfact> 0.18858941E+05</totfact>
</mgrwt>
</event>
<event>
 8    1  0.2433467E-024  0.7912229E+02  0.7818608E-02  0.1331561E+00
         -1   -1    0    0    0  501 -0.00000000000E+00  0.00000000000E+00  0.39430421916E+02  0.39430422238E+02  0.50400000000E-02 0.  1.
          2   -1    0    0  501    0  0.00000000000E+00 -0.00000000000E+00 -0.39692297861E+02  0.39692297943E+02  0.25500000000E-02 0. -1.
         24    2    1    2    0    0  0.00000000000E+00  0.35527136788E-14 -0.26187594522E+00  0.79122720182E+02  0.79122286809E+02 0.  0.
         66    2    3    3    0    0  0.42398156721E+01 -0.31694466728E+02 -0.23381178031E+02  0.39663519087E+02  0.20000005311E+01 0.  0.
        -13    1    3    3    0    0 -0.42398156721E+01  0.31694466728E+02  0.23119302085E+02  0.39459201095E+02  0.10566000000E+00 0.  1.
         13    1    4    4    0    0  0.24893128156E+01 -0.18853398230E+02 -0.14429215608E+02  0.23871755909E+02  0.10566000000E+00 0. -1.
        -13    1    4    4    0    0  0.12728810452E+00 -0.42384872921E+01 -0.25912497130E+01  0.49705850659E+01  0.10566000000E+00 0.  1.
        -14    1    4    4    0    0  0.16232147520E+01 -0.86025812062E+01 -0.63607127098E+01  0.10821178111E+02  0.00000000000E+00 0.  1.
<mgrwt>
<rscale>  0 0.79122287E+02</rscale>
<asrwt>0</asrwt>
<pdfrwt beam="1">  1        2 0.61065074E-02 0.79122287E+02</pdfrwt>
<pdfrwt beam="2">  1       -1 0.60662188E-02 0.79122287E+02</pdfrwt>
<totfact> 0.14673178E+05</totfact>
</mgrwt>
</event>
<event>
 8    1  0.2433467E-024  0.7996990E+02  0.7818608E-02  0.1329137E+00
          2   -1    0    0  501    0  0.00000000000E+00  0.00000000000E+00  0.22967598575E+03  0.22967598576E+03  0.25500000000E-02 0. -1.
         -1   -1    0    0    0  501 -0.00000000000E+00 -0.00000000000E+00 -0.69610932887E+01  0.69610951133E+01  0.50400000000E-02 0.  1.
         24    2    1    2    0    0  0.88817841970E-15 -0.71054273576E-14  0.22271489246E+03  0.23663708088E+03  0.79969898851E+02 0.  0.
         66    2    3    3    0    0  0.70427590556E+01 -0.30945119942E+02  0.18327767306E+03  0.18601587641E+03  0.19999829115E+01 0.  0.
        -13    1    3    3    0    0 -0.70427590556E+01  0.30945119942E+02  0.39437219399E+02  0.50621204463E+02  0.10566000000E+00 0.  1.
         13    1    4    4    0    0  0.58605444362E+01 -0.24010284691E+02  0.14214357304E+03  0.14427628451E+03  0.10566000000E+00 0. -1.
        -13    1    4    4    0    0  0.79127275840E+00 -0.54971977071E+01  0.30512648448E+02  0.31014160871E+02  0.10566000000E+00 0.  1.
        -14    1    4    4    0    0  0.39094186100E+00 -0.14376375442E+01  0.10621451573E+02  0.10725431029E+02  0.00000000000E+00 0.  1.
<mgrwt>
<rscale>  0 0.79969899E+02</rscale>
<asrwt>0</asrwt>
<pdfrwt beam="1">  1        2 0.35334765E-01 0.79969899E+02</pdfrwt>
<pdfrwt beam="2">  1       -1 0.10709376E-02 0.79969899E+02</pdfrwt>
<totfact> 0.23180286E+05</totfact>
</mgrwt>
</event>
<event>
 8    1  0.2433467E-024  0.7891022E+02  0.7818608E-02  0.1332173E+00
         -1   -1    0    0    0  501 -0.00000000000E+00  0.00000000000E+00  0.65782968711E+01  0.65782988018E+01  0.50400000000E-02 0.  1.
          2   -1    0    0  501    0  0.00000000000E+00 -0.00000000000E+00 -0.23664262488E+03  0.23664262490E+03  0.25500000000E-02 0. -1.
         24    2    1    2    0    0  0.00000000000E+00  0.00000000000E+00 -0.23006432801E+03  0.24322092370E+03  0.78910219244E+02 0.  0.
         66    2    3    3    0    0  0.39353028170E+02 -0.22966877432E+01 -0.11240975022E+03  0.11913810281E+03  0.19999988395E+01 0.  0.
        -13    1    3    3    0    0 -0.39353028170E+02  0.22966877432E+01 -0.11765457779E+03  0.12408282089E+03  0.10566000000E+00 0.  1.
         13    1    4    4    0    0  0.17336919521E+02 -0.41137101142E+00 -0.51177320307E+02  0.54035796306E+02  0.10566000000E+00 0.  1.
        -13    1    4    4    0    0  0.30774269707E+01 -0.10619797661E-01 -0.86919892737E+01  0.92213074512E+01  0.10566000000E+00 0. -1.
         14    1    4    4    0    0  0.18938681678E+02 -0.18746969341E+01 -0.52540440643E+02  0.55880999054E+02  0.00000000000E+00 0. -1.
<mgrwt>
<rscale>  0 0.78910219E+02</rscale>
<asrwt>0</asrwt>
<pdfrwt beam="1">  1        2 0.36406551E-01 0.78910219E+02</pdfrwt>
<pdfrwt beam="2">  1       -1 0.10120460E-02 0.78910219E+02</pdfrwt>
<totfact> 0.24264209E+05</totfact>
</mgrwt>
</event>
<event>
 8    1  0.2433467E-024  0.7911794E+02  0.7818608E-02  0.1331573E+00
          2   -1    0    0  501    0  0.00000000000E+00  0.00000000000E+00  0.66274929209E+03  0.66274929210E+03  0.25500000000E-02 0. -1.
         -1   -1    0    0    0  501 -0.00000000000E+00 -0.00000000000E+00 -0.23612402343E+01  0.23612456132E+01  0.50400000000E-02 0.  1.
         24    2    1    2    0    0  0.17763568394E-14  0.00000000000E+00  0.66038805186E+03  0.66511053771E+03  0.79117939411E+02 0.  0.
         66    2    3    3    0    0  0.12706566782E+02 -0.31689987422E+02  0.49794529916E+03  0.49911845594E+03  0.19999906691E+01 0.  0.
        -13    1    3    3    0    0 -0.12706566782E+02  0.31689987422E+02  0.16244275270E+03  0.16599208177E+03  0.10566000000E+00 0.  1.
         13    1    4    4    0    0  0.56226091179E+01 -0.13644902433E+02  0.22607250615E+03  0.22655371614E+03  0.10566000000E+00 0. -1.
        -13    1    4    4    0    0  0.51861456446E+01 -0.12046887680E+02  0.18196937916E+03  0.18244146931E+03  0.10566000000E+00 0.  1.
        -14    1    4    4    0    0  0.18978120190E+01 -0.59981973098E+01  0.89903413852E+02  0.90123270489E+02  0.00000000000E+00 0.  1.
<mgrwt>
<rscale>  0 0.79117939E+02</rscale>
<asrwt>0</asrwt>
<pdfrwt beam="1">  1        2 0.10196143E+00 0.79117939E+02</pdfrwt>
<pdfrwt beam="2">  1       -1 0.36326816E-03 0.79117939E+02</pdfrwt>
<totfact> 0.33983309E+05</totfact>
</mgrwt>
</event>
<event>
 8    1  0.2433467E-024  0.8065557E+02  0.7818608E-02  0.1327201E+00
         -1   -1    0    0    0  501 -0.00000000000E+00  0.00000000000E+00  0.32908826439E+01  0.32908865033E+01  0.50400000000E-02 0.  1.
          2   -1    0    0  501    0  0.00000000000E+00 -0.00000000000E+00 -0.49419246303E+03  0.49419246304E+03  0.25500000000E-02 0. -1.
         24    2    1    2    0    0  0.00000000000E+00  0.00000000000E+00 -0.49090158039E+03  0.49748334954E+03  0.80655572925E+02 0.  0.
         66    2    3    3    0    0 -0.21145086896E+02 -0.24412462009E+02 -0.39430534624E+03  0.39563087477E+03  0.19999994870E+01 0.  0.
        -13    1    3    3    0    0  0.21145086896E+02  0.24412462009E+02 -0.96596234148E+02  0.10185247477E+03  0.10566000000E+00 0.  1.
         13    1    4    4    0    0 -0.20513901150E+01 -0.22431858024E+01 -0.36381615759E+02  0.36508536169E+02  0.10566000000E+00 0. -1.
        -13    1    4    4    0    0 -0.11416713330E+02 -0.14364824296E+02 -0.23048469275E+03  0.23121395779E+03  0.10566000000E+00 0.  1.
        -14    1    4    4    0    0 -0.76769834510E+01 -0.78044519108E+01 -0.12743903773E+03  0.12790838082E+03  0.00000000000E+00 0.  1.
<mgrwt>
<rscale>  0 0.80655573E+02</rscale>
<asrwt>0</asrwt>
<pdfrwt beam="1">  1        2 0.76029551E-01 0.80655573E+02</pdfrwt>
<pdfrwt beam="2">  1       -1 0.50629033E-03 0.80655573E+02</pdfrwt>
<totfact> 0.29699010E+05</totfact>
</mgrwt>
</event>
<event>
 8    1  0.2433467E-024  0.7974421E+02  0.7818608E-02  0.1329779E+00
          2   -1    0    0  501    0  0.00000000000E+00  0.00000000000E+00  0.18629875414E+03  0.18629875416E+03  0.25500000000E-02 0. -1.
         -1   -1    0    0    0  501 -0.00000000000E+00 -0.00000000000E+00 -0.85335226611E+01  0.85335241494E+01  0.50400000000E-02 0.  1.
         24    2    1    2    0    0  0.00000000000E+00  0.00000000000E+00  0.17776523148E+03  0.19483227831E+03  0.79744210747E+02 0.  0.
         66    2    3    3    0    0  0.24983228923E+02 -0.92377821556E+01  0.16134504391E+03  0.16354119219E+03  0.20000007418E+01 0.  0.
        -13    1    3    3    0    0 -0.24983228923E+02  0.92377821556E+01  0.16420187575E+02  0.31291086120E+02  0.10566000000E+00 0.  1.
         13    1    4    4    0    0  0.23081301187E+01 -0.84933681233E+00  0.12465355725E+02  0.12706104637E+02  0.10566000000E+00 0. -1.
        -13    1    4    4    0    0  0.40078628308E+01 -0.19261540637E+01  0.28753095473E+02  0.29095097478E+02  0.10566000000E+00 0.  1.
         14    1    4    4    0    0  0.18667235973E+02 -0.64622912796E+01  0.12012659271E+03  0.12173999007E+03  0.00000000000E+00 0. -1.
<mgrwt>
<rscale>  0 0.79744211E+02</rscale>
<asrwt>0</asrwt>
<pdfrwt beam="1">  1        2 0.28661344E-01 0.79744211E+02</pdfrwt>
<pdfrwt beam="2">  1       -1 0.13128499E-02 0.79744211E+02</pdfrwt>
<totfact> 0.21708212E+05</totfact>
</mgrwt>
</event>
<event>
 8    1  0.2433467E-024  0.8010226E+02  0.7818608E-02  0.1328761E+00
         -1   -1    0    0    0  501 -0.00000000000E+00  0.00000000000E+00  0.60018033333E+01  0.60018054495E+01  0.50400000000E-02 0.  1.
          2   -1    0    0  501    0  0.00000000000E+00 -0.00000000000E+00 -0.26726844092E+03  0.26726844093E+03  0.25500000000E-02 0. -1.
         24    2    1    2    0    0  0.00000000000E+00 -0.55511151231E-16 -0.26126663759E+03  0.27327024638E+03  0.80102257406E+02 0.  0.
         66    2    3    3    0    0  0.33261013708E+02 -0.19378276076E+00 -0.20667389021E+03  0.20934285152E+03  0.19999999478E+01 0.  0.
        -13    1    3    3    0    0 -0.33261013708E+02  0.19378276076E+00 -0.54592747373E+02  0.63927394866E+02  0.10566000000E+00 0.  1.
         13    1    4    4    0    0  0.16683771870E+01  0.67864524276E-01 -0.90385268130E+01  0.91920737060E+01  0.10566000000E+00 0. -1.
        -13    1    4    4    0    0  0.16424020911E+02 -0.91164355513E+00 -0.10262386954E+03  0.10393386994E+03  0.10566000000E+00 0.  1.
        -14    1    4    4    0    0  0.15168615610E+02  0.64999627010E+00 -0.95011493862E+02  0.96216907873E+02  0.00000000000E+00 0.  1.
<mgrwt>
<rscale>  0 0.80102257E+02</rscale>
<asrwt>0</asrwt>
<pdfrwt beam="1">  1        2 0.41118213E-01 0.80102257E+02</pdfrwt>
<pdfrwt beam="2">  1       -1 0.92335473E-03 0.80102257E+02</pdfrwt>
<totfact> 0.24367846E+05</totfact>
</mgrwt>
</event>
<event>
 8    1  0.2433467E-024  0.7893657E+02  0.7818608E-02  0.1332097E+00
         -1   -1    0    0    0  501 -0.00000000000E+00  0.00000000000E+00  0.10008430033E+01  0.10008556933E+01  0.50400000000E-02 0.  1.
          2   -1    0    0  501    0  0.00000000000E+00 -0.00000000000E+00 -0.15564234084E+04  0.15564234084E+04  0.25500000000E-02 0. -1.
         24    2    1    2    0    0  0.88817841970E-15  0.17763568394E-14 -0.15554225654E+04  0.15574242641E+04  0.78936565974E+02 0.  0.
         66    2    3    3    0    0 -0.43445709577E+01 -0.11788634322E+02 -0.15158852337E+04  0.15159386165E+04  0.19999991097E+01 0.  0.
        -13    1    3    3    0    0  0.43445709577E+01  0.11788634322E+02 -0.39537331657E+02  0.41485647573E+02  0.10566000000E+00 0.  1.
         13    1    4    4    0    0 -0.29478578020E+01 -0.66099279476E+01 -0.92911795599E+03  0.92914615014E+03  0.10566000000E+00 0. -1.
        -13    1    4    4    0    0 -0.38740749272E+00 -0.25022350375E+01 -0.23948280461E+03  0.23949621320E+03  0.10566000000E+00 0.  1.
        -14    1    4    4    0    0 -0.10093056630E+01 -0.26764713374E+01 -0.34728447311E+03  0.34729625316E+03  0.00000000000E+00 0.  1.
<mgrwt>
<rscale>  0 0.78936566E+02</rscale>
<asrwt>0</asrwt>
<pdfrwt beam="1">  1        2 0.23944782E+00 0.78936566E+02</pdfrwt>
<pdfrwt beam="2">  1       -1 0.15397807E-03 0.78936566E+02</pdfrwt>
<totfact> 0.33918811E+05</totfact>
</mgrwt>
</event>
<event>
 8    1  0.2433467E-024  0.8082097E+02  0.7818608E-02  0.1326738E+00
         -1   -1    0    0    0  501 -0.00000000000E+00  0.00000000000E+00  0.22745662980E+01  0.22745718819E+01  0.50400000000E-02 0.  1.
          2   -1    0    0  501    0  0.00000000000E+00 -0.00000000000E+00 -0.71794138569E+03  0.71794138570E+03  0.25500000000E-02 0. -1.
         24    2    1    2    0    0 -0.71054273576E-14  0.17763568394E-14 -0.71566681939E+03  0.72021595758E+03  0.80820969860E+02 0.  0.
         66    2    3    3    0    0  0.33750195636E+02 -0.15323896632E+02 -0.50093927127E+03  0.50231270244E+03  0.20000041465E+01 0.  0.
        -13    1    3    3    0    0 -0.33750195636E+02  0.15323896632E+02 -0.21472754812E+03  0.21790325514E+03  0.10566000000E+00 0.  1.
         13    1    4    4    0    0  0.79303259692E+01 -0.32856754313E+01 -0.12464240457E+03  0.12493768813E+03  0.10566000000E+00 0. -1.
        -13    1    4    4    0    0  0.20958374285E+02 -0.93953288336E+01 -0.30071080221E+03  0.30158667641E+03  0.10566000000E+00 0.  1.
        -14    1    4    4    0    0  0.48614953811E+01 -0.26428923667E+01 -0.75586064485E+02  0.75788337900E+02  0.00000000000E+00 0.  1.
<mgrwt>
<rscale>  0 0.80820970E+02</rscale>
<asrwt>0</asrwt>
<pdfrwt beam="1">  1        2 0.11045234E+00 0.80820970E+02</pdfrwt>
<pdfrwt beam="2">  1       -1 0.34993428E-03 0.80820970E+02</pdfrwt>
<totfact> 0.32760479E+05</totfact>
</mgrwt>
</event>
<event>
 8    1  0.2433467E-024  0.8353254E+02  0.7818608E-02  0.1319315E+00
         -1   -1    0    0    0  501 -0.00000000000E+00  0.00000000000E+00  0.44887136814E+03  0.44887136817E+03  0.50400000000E-02 0.  1.
          2   -1    0    0  501    0  0.00000000000E+00 -0.00000000000E+00 -0.38862383058E+01  0.38862391424E+01  0.25500000000E-02 0. -1.
         24    2    1    2    0    0 -0.35527136788E-14  0.00000000000E+00  0.44498512983E+03  0.45275760731E+03  0.83532539792E+02 0.  0.
         66    2    3    3    0    0  0.21163681648E+02 -0.35635824434E+02  0.19573518178E+03  0.20008516882E+03  0.19999977681E+01 0.  0.
        -13    1    3    3    0    0 -0.21163681648E+02  0.35635824434E+02  0.24924994805E+03  0.25267243848E+03  0.10566000000E+00 0.  1.
         13    1    4    4    0    0  0.16097839549E+02 -0.28012470908E+02  0.15413720774E+03  0.15748691672E+03  0.10566000000E+00 0. -1.
        -13    1    4    4    0    0  0.28464009378E+01 -0.42057206919E+01  0.21585908194E+02  0.22175497321E+02  0.10566000000E+00 0.  1.
         14    1    4    4    0    0  0.22194411617E+01 -0.34176328341E+01  0.20012065854E+02  0.20422754785E+02  0.00000000000E+00 0. -1.
<mgrwt>
<rscale>  0 0.83532540E+02</rscale>
<asrwt>0</asrwt>
<pdfrwt beam="1">  1        2 0.59788297E-03 0.83532540E+02</pdfrwt>
<pdfrwt beam="2">  1       -1 0.69057123E-01 0.83532540E+02</pdfrwt>
<totfact> 0.63707640E+04</totfact>
</mgrwt>
</event>
<event>
 8    1  0.2618746E-024  0.7961486E+02  0.7818608E-02  0.1330148E+00
         -1   -1    0    0    0  501 -0.00000000000E+00  0.00000000000E+00  0.17553261141E+01  0.17553333496E+01  0.50400000000E-02 0.  1.
          2   -1    0    0  501    0  0.00000000000E+00 -0.00000000000E+00 -0.90275431686E+03  0.90275431686E+03  0.25500000000E-02 0. -1.
         24    2    1    2    0    0 -0.17763568394E-14  0.35527136788E-14 -0.90099899075E+03  0.90450965021E+03  0.79614860445E+02 0.  0.
         66    2    3    3    0    0  0.11214758263E+02 -0.23301697470E+02 -0.79423434703E+03  0.79465774891E+03  0.19999986140E+01 0.  0.
        -13    1    3    3    0    0 -0.11214758263E+02  0.23301697470E+02 -0.10676464372E+03  0.10985190130E+03  0.10566000000E+00 0.  1.
         13    1    4    4    0    0  0.55465884556E+01 -0.12232231312E+02 -0.41406430361E+03  0.41428209087E+03  0.10566000000E+00 0. -1.
        -13    1    4    4    0    0  0.45039979648E+01 -0.88919417074E+01 -0.31928642000E+03  0.31944198501E+03  0.10566000000E+00 0.  1.
        -14    1    4    4    0    0  0.11641718424E+01 -0.21775244499E+01 -0.60883623418E+02  0.60933673033E+02  0.00000000000E+00 0.  1.
<mgrwt>
<rscale>  0 0.79614860E+02</rscale>
<asrwt>0</asrwt>
<pdfrwt beam="1">  1        2 0.13888491E+00 0.79614860E+02</pdfrwt>
<pdfrwt beam="2">  1       -1 0.27005145E-03 0.79614860E+02</pdfrwt>
<totfact> 0.35398914E+05</totfact>
</mgrwt>
</event>
<event>
 8    1  0.2433467E-024  0.7576583E+02  0.7818608E-02  0.1341516E+00
         -1   -1    0    0    0  501 -0.00000000000E+00  0.00000000000E+00  0.10224825093E+02  0.10224826335E+02  0.50400000000E-02 0.  1.
          2   -1    0    0  501    0  0.00000000000E+00 -0.00000000000E+00 -0.14035594432E+03  0.14035594435E+03  0.25500000000E-02 0. -1.
         24    2    1    2    0    0  0.00000000000E+00  0.00000000000E+00 -0.13013111923E+03  0.15058077068E+03  0.75765825456E+02 0.  0.
         66    2    3    3    0    0 -0.27341790814E+01 -0.13331100058E+02 -0.13531913831E+03  0.13601640767E+03  0.19999998633E+01 0.  0.
        -13    1    3    3    0    0  0.27341790814E+01  0.13331100058E+02  0.51880190748E+01  0.14564363013E+02  0.10566000000E+00 0.  1.
         13    1    4    4    0    0 -0.19688891888E+01 -0.63951944506E+01 -0.65374391233E+02  0.65716034800E+02  0.10566000000E+00 0. -1.
        -13    1    4    4    0    0 -0.42953827276E+00 -0.20094691544E+01 -0.16441304128E+02  0.16569553853E+02  0.10566000000E+00 0.  1.
         14    1    4    4    0    0 -0.33575161986E+00 -0.49264364533E+01 -0.53503442946E+02  0.53730819018E+02  0.00000000000E+00 0. -1.
<mgrwt>
<rscale>  0 0.75765825E+02</rscale>
<asrwt>0</asrwt>
<pdfrwt beam="1">  1        2 0.21593221E-01 0.75765825E+02</pdfrwt>
<pdfrwt beam="2">  1       -1 0.15730502E-02 0.75765825E+02</pdfrwt>
<totfact> 0.22648582E+05</totfact>
</mgrwt>
</event>
<event>
 8    1  0.2433467E-024  0.8182259E+02  0.7818608E-02  0.1323957E+00
         -1   -1    0    0    0  501 -0.00000000000E+00  0.00000000000E+00  0.10173557383E+03  0.10173557396E+03  0.50400000000E-02 0.  1.
          2   -1    0    0  501    0  0.00000000000E+00 -0.00000000000E+00 -0.16451808682E+02  0.16451808880E+02  0.25500000000E-02 0. -1.
         24    2    1    2    0    0  0.00000000000E+00  0.71054273576E-14  0.85283765148E+02  0.11818738284E+03  0.81822593846E+02 0.  0.
         66    2    3    3    0    0 -0.61348984713E+01  0.39707015167E+02  0.31719541912E+02  0.51229028557E+02  0.19999987822E+01 0.  0.
        -13    1    3    3    0    0  0.61348984713E+01 -0.39707015167E+02  0.53564223237E+02  0.66958354278E+02  0.10566000000E+00 0.  1.
         13    1    4    4    0    0 -0.24502754261E+01  0.13352929555E+02  0.11033895824E+02  0.17494644851E+02  0.10566000000E+00 0. -1.
        -13    1    4    4    0    0 -0.26332613661E+01  0.14517612204E+02  0.11916190629E+02  0.18965808516E+02  0.10566000000E+00 0.  1.
        -14    1    4    4    0    0 -0.10513616791E+01  0.11836473407E+02  0.87694554592E+01  0.14768575190E+02  0.00000000000E+00 0.  1.
<mgrwt>
<rscale>  0 0.81822594E+02</rscale>
<asrwt>0</asrwt>
<pdfrwt beam="1">  1        2 0.25310476E-02 0.81822594E+02</pdfrwt>
<pdfrwt beam="2">  1       -1 0.15651626E-01 0.81822594E+02</pdfrwt>
<totfact> 0.11164040E+05</totfact>
</mgrwt>
</event>
<event>
 8    1  0.2433467E-024  0.8027323E+02  0.7818608E-02  0.1328278E+00
          2   -1    0    0  501    0  0.00000000000E+00  0.00000000000E+00  0.11599961639E+04  0.11599961639E+04  0.25500000000E-02 0. -1.
         -1   -1    0    0    0  501 -0.00000000000E+00 -0.00000000000E+00 -0.13887481717E+01  0.13887573172E+01  0.50400000000E-02 0.  1.
         24    2    1    2    0    0  0.17763568394E-14  0.17763568394E-14  0.11586074157E+04  0.11613849212E+04  0.80273230013E+02 0.  0.
         66    2    3    3    0    0 -0.10328473252E+02 -0.73912968111E+01  0.11301338514E+04  0.11302069858E+04  0.20000032758E+01 0.  0.
        -13    1    3    3    0    0  0.10328473252E+02  0.73912968111E+01  0.28473564326E+02  0.31177935431E+02  0.10566000000E+00 0.  1.
         13    1    4    4    0    0 -0.71548420118E+01 -0.54449276353E+01  0.84073562054E+03  0.84078370215E+03  0.10566000000E+00 0. -1.
        -13    1    4    4    0    0 -0.30424287609E+01 -0.17312769917E+01  0.27909964223E+03  0.27912161355E+03  0.10566000000E+00 0.  1.
        -14    1    4    4    0    0 -0.13120247928E+00 -0.21509218415E+00  0.10298588646E+02  0.10301670099E+02  0.00000000000E+00 0.  1.
<mgrwt>
<rscale>  0 0.80273230E+02</rscale>
<asrwt>0</asrwt>
<pdfrwt beam="1">  1        2 0.17846108E+00 0.80273230E+02</pdfrwt>
<pdfrwt beam="2">  1       -1 0.21365412E-03 0.80273230E+02</pdfrwt>
<totfact> 0.34840191E+05</totfact>
</mgrwt>
</event>
<event>
 8    1  0.2433467E-024  0.8943822E+02  0.7818608E-02  0.1304218E+00
         -1   -1    0    0    0  501 -0.00000000000E+00  0.00000000000E+00  0.22708733054E+01  0.22708788983E+01  0.50400000000E-02 0.  1.
          2   -1    0    0  501    0  0.00000000000E+00 -0.00000000000E+00 -0.88062867164E+03  0.88062867165E+03  0.25500000000E-02 0. -1.
         24    2    1    2    0    0 -0.17763568394E-14  0.35527136788E-14 -0.87835779834E+03  0.88289955054E+03  0.89438215838E+02 0.  0.
         66    2    3    3    0    0 -0.13083134262E+02  0.19441883483E+02 -0.81512121624E+03  0.81546045421E+03  0.19999936671E+01 0.  0.
        -13    1    3    3    0    0  0.13083134262E+02 -0.19441883483E+02 -0.63236582093E+02  0.67439096334E+02  0.10566000000E+00 0.  1.
         13    1    4    4    0    0 -0.31850480456E+01  0.35542290836E+01 -0.16551605176E+03  0.16558487742E+03  0.10566000000E+00 0.  1.
        -13    1    4    4    0    0 -0.97443902792E+01  0.15507637168E+02 -0.63023649795E+03  0.63050257293E+03  0.10566000000E+00 0. -1.
        -14    1    4    4    0    0 -0.15369593757E+00  0.38001723180E+00 -0.19368666530E+02  0.19373003864E+02  0.00000000000E+00 0.  1.
<mgrwt>
<rscale>  0 0.89438216E+02</rscale>
<asrwt>0</asrwt>
<pdfrwt beam="1">  1        2 0.13548106E+00 0.89438216E+02</pdfrwt>
<pdfrwt beam="2">  1       -1 0.34936626E-03 0.89438216E+02</pdfrwt>
<totfact> 0.26051379E+05</totfact>
</mgrwt>
</event>
<event>
 8    1  0.2433467E-024  0.8100648E+02  0.7818608E-02  0.1326219E+00
         -1   -1    0    0    0  501 -0.00000000000E+00  0.00000000000E+00  0.35722447536E+01  0.35722483090E+01  0.50400000000E-02 0.  1.
          2   -1    0    0  501    0  0.00000000000E+00 -0.00000000000E+00 -0.45923825610E+03  0.45923825611E+03  0.25500000000E-02 0. -1.
         24    2    1    2    0    0  0.00000000000E+00  0.00000000000E+00 -0.45566601135E+03  0.46281050442E+03  0.81006475677E+02 0.  0.
         66    2    3    3    0    0 -0.14001090847E+02 -0.11889864033E+02 -0.43405352764E+03  0.43444661844E+03  0.20000017166E+01 0.  0.
        -13    1    3    3    0    0  0.14001090847E+02  0.11889864033E+02 -0.21612483711E+02  0.28363885979E+02  0.10566000000E+00 0.  1.
         13    1    4    4    0    0 -0.47659281875E+01 -0.51149328269E+01 -0.16833772349E+03  0.16848286834E+03  0.10566000000E+00 0. -1.
        -13    1    4    4    0    0 -0.52238478451E+01 -0.35114530845E+01 -0.15266071298E+03  0.15279045566E+03  0.10566000000E+00 0.  1.
         14    1    4    4    0    0 -0.40113148149E+01 -0.32634781218E+01 -0.11305509117E+03  0.11317329444E+03  0.00000000000E+00 0. -1.
<mgrwt>
<rscale>  0 0.81006476E+02</rscale>
<asrwt>0</asrwt>
<pdfrwt beam="1">  1        2 0.70651993E-01 0.81006476E+02</pdfrwt>
<pdfrwt beam="2">  1       -1 0.54957676E-03 0.81006476E+02</pdfrwt>
<totfact> 0.28668055E+05</totfact>
</mgrwt>
</event>
<event>
 8    1  0.2433467E-024  0.7887382E+02  0.7818608E-02  0.1332278E+00
          2   -1    0    0  501    0  0.00000000000E+00  0.00000000000E+00  0.17718014144E+03  0.17718014146E+03  0.25500000000E-02 0. -1.
         -1   -1    0    0    0  501 -0.00000000000E+00 -0.00000000000E+00 -0.87779009731E+01  0.87779024200E+01  0.50400000000E-02 0.  1.
         24    2    1    2    0    0 -0.35527136788E-14 -0.88817841970E-15  0.16840224047E+03  0.18595804388E+03  0.78873820047E+02 0.  0.
         66    2    3    3    0    0 -0.17741918516E+02 -0.63267415396E+01  0.16587465065E+03  0.16695269712E+03  0.20000039568E+01 0.  0.
        -13    1    3    3    0    0  0.17741918516E+02  0.63267415396E+01  0.25275898174E+01  0.19005346760E+02  0.10566000000E+00 0.  1.
         13    1    4    4    0    0 -0.60362480616E+01 -0.15393600715E+01  0.51733118903E+02  0.52106935004E+02  0.10566000000E+00 0. -1.
        -13    1    4    4    0    0 -0.34159159278E+01 -0.19068906760E+01  0.33203075494E+02  0.33432919406E+02  0.10566000000E+00 0.  1.
         14    1    4    4    0    0 -0.82897545269E+01 -0.28804907921E+01  0.80938456254E+02  0.81412842709E+02  0.00000000000E+00 0. -1.
<mgrwt>
<rscale>  0 0.78873820E+02</rscale>
<asrwt>0</asrwt>
<pdfrwt beam="1">  1        2 0.27258481E-01 0.78873820E+02</pdfrwt>
<pdfrwt beam="2">  1       -1 0.13504466E-02 0.78873820E+02</pdfrwt>
<totfact> 0.21968694E+05</totfact>
</mgrwt>
</event>
<event>
 8    1  0.2433467E-024  0.8463882E+02  0.7818608E-02  0.1316380E+00
         -1   -1    0    0    0  501 -0.00000000000E+00  0.00000000000E+00  0.35507280130E+01  0.35507315899E+01  0.50400000000E-02 0.  1.
          2   -1    0    0  501    0  0.00000000000E+00 -0.00000000000E+00 -0.50438430781E+03  0.50438430781E+03  0.25500000000E-02 0. -1.
         24    2    1    2    0    0  0.00000000000E+00 -0.71054273576E-14 -0.50083357979E+03  0.50793503940E+03  0.84638818543E+02 0.  0.
         66    2    3    3    0    0 -0.18301902133E+02 -0.33946918883E+02 -0.35477257310E+03  0.35686822715E+03  0.20000007615E+01 0.  0.
        -13    1    3    3    0    0  0.18301902133E+02  0.33946918883E+02 -0.14606100669E+03  0.15106681225E+03  0.10566000000E+00 0.  1.
         13    1    4    4    0    0 -0.71461386961E+01 -0.14940986563E+02 -0.15681286515E+03  0.15768508559E+03  0.10566000000E+00 0. -1.
        -13    1    4    4    0    0 -0.76946040558E+01 -0.12809577549E+02 -0.13539869117E+03  0.13622080951E+03  0.10566000000E+00 0.  1.
        -14    1    4    4    0    0 -0.34611593812E+01 -0.61963547711E+01 -0.62561016783E+02  0.62962332053E+02  0.00000000000E+00 0.  1.
<mgrwt>
<rscale>  0 0.84638819E+02</rscale>
<asrwt>0</asrwt>
<pdfrwt beam="1">  1        2 0.77597529E-01 0.84638819E+02</pdfrwt>
<pdfrwt beam="2">  1       -1 0.54626653E-03 0.84638819E+02</pdfrwt>
<totfact> 0.26353677E+05</totfact>
</mgrwt>
</event>
<event>
 8    1  0.2433467E-024  0.7950692E+02  0.7818608E-02  0.1330457E+00
          2   -1    0    0  501    0  0.00000000000E+00  0.00000000000E+00  0.92395197682E+01  0.92395201201E+01  0.25500000000E-02 0. -1.
         -1   -1    0    0    0  501 -0.00000000000E+00 -0.00000000000E+00 -0.17104107653E+03  0.17104107661E+03  0.50400000000E-02 0.  1.
         24    2    1    2    0    0 -0.88817841970E-15  0.00000000000E+00 -0.16180155676E+03  0.18028059673E+03  0.79506916585E+02 0.  0.
         66    2    3    3    0    0  0.71851779934E+01  0.25096875901E+02 -0.13046383492E+02  0.29252146751E+02  0.20000011431E+01 0.  0.
        -13    1    3    3    0    0 -0.71851779934E+01 -0.25096875901E+02 -0.14875517327E+03  0.15102844997E+03  0.10566000000E+00 0.  1.
         13    1    4    4    0    0  0.50416510271E+01  0.17992025048E+02 -0.91471236884E+01  0.20804140122E+02  0.10566000000E+00 0. -1.
        -13    1    4    4    0    0  0.12079520579E+01  0.48626926823E+01 -0.30881736253E+01  0.58866721220E+01  0.10566000000E+00 0.  1.
         14    1    4    4    0    0  0.93557490843E+00  0.22421581702E+01 -0.81108617845E+00  0.25613345073E+01  0.00000000000E+00 0. -1.
<mgrwt>
<rscale>  0 0.79506917E+02</rscale>
<asrwt>0</asrwt>
<pdfrwt beam="1">  1        2 0.14214647E-02 0.79506917E+02</pdfrwt>
<pdfrwt beam="2">  1       -1 0.26314009E-01 0.79506917E+02</pdfrwt>
<totfact> 0.10584182E+05</totfact>
</mgrwt>
</event>
<event>
 8    1  0.2433467E-024  0.8654621E+02  0.7818608E-02  0.1311438E+00
          2   -1    0    0  501    0  0.00000000000E+00  0.00000000000E+00  0.23982314678E+03  0.23982314679E+03  0.25500000000E-02 0. -1.
         -1   -1    0    0    0  501 -0.00000000000E+00 -0.00000000000E+00 -0.78080929663E+01  0.78080945930E+01  0.50400000000E-02 0.  1.
         24    2    1    2    0    0  0.00000000000E+00 -0.35527136788E-14  0.23201505381E+03  0.24763124139E+03  0.86546210284E+02 0.  0.
         66    2    3    3    0    0  0.34472316725E+02  0.20530820574E+02  0.69870682123E+02  0.80596323932E+02  0.19999993016E+01 0.  0.
        -13    1    3    3    0    0 -0.34472316725E+02 -0.20530820574E+02  0.16214437169E+03  0.16703491745E+03  0.10566000000E+00 0.  1.
         13    1    4    4    0    0  0.22137300582E+01  0.15713550060E+01  0.48792588058E+01  0.55846296077E+01  0.10566000000E+00 0.  1.
        -13    1    4    4    0    0  0.25633302200E+01  0.15790405744E+01  0.44021290420E+01  0.53342230071E+01  0.10566000000E+00 0. -1.
         14    1    4    4    0    0  0.29695256447E+02  0.17380424994E+02  0.60589294275E+02  0.69677471317E+02  0.00000000000E+00 0. -1.
<mgrwt>
<rscale>  0 0.86546210E+02</rscale>
<asrwt>0</asrwt>
<pdfrwt beam="1">  1        2 0.36895869E-01 0.86546210E+02</pdfrwt>
<pdfrwt beam="2">  1       -1 0.12012452E-02 0.86546210E+02</pdfrwt>
<totfact> 0.19105211E+05</totfact>
</mgrwt>
</event>
<event>
 8    1  0.2433467E-024  0.7846878E+02  0.7818608E-02  0.1333454E+00
          2   -1    0    0  501    0  0.00000000000E+00  0.00000000000E+00  0.12937815793E+04  0.12937815794E+04  0.25500000000E-02 0. -1.
         -1   -1    0    0    0  501 -0.00000000000E+00 -0.00000000000E+00 -0.11897916664E+01  0.11898023412E+01  0.50400000000E-02 0.  1.
         24    2    1    2    0    0  0.00000000000E+00  0.00000000000E+00  0.12925917877E+04  0.12949713817E+04  0.78468782446E+02 0.  0.
         66    2    3    3    0    0  0.57842546790E+01 -0.10956633493E+02  0.12606238185E+04  0.12606862882E+04  0.20000003907E+01 0.  0.
        -13    1    3    3    0    0 -0.57842546790E+01  0.10956633493E+02  0.31967969145E+02  0.34285093481E+02  0.10566000000E+00 0.  1.
         13    1    4    4    0    0  0.28722048084E+01 -0.49365010241E+01  0.50242566152E+03  0.50245813270E+03  0.10566000000E+00 0. -1.
        -13    1    4    4    0    0  0.80272755268E+00 -0.23517226559E+01  0.31346883341E+03  0.31347870048E+03  0.10566000000E+00 0.  1.
         14    1    4    4    0    0  0.21093223179E+01 -0.36684098129E+01  0.44472932361E+03  0.44474945503E+03  0.00000000000E+00 0. -1.
<mgrwt>
<rscale>  0 0.78468782E+02</rscale>
<asrwt>0</asrwt>
<pdfrwt beam="1">  1        2 0.19904211E+00 0.78468782E+02</pdfrwt>
<pdfrwt beam="2">  1       -1 0.18304681E-03 0.78468782E+02</pdfrwt>
<totfact> 0.36430233E+05</totfact>
</mgrwt>
</event>
<event>
 8    1  0.2433467E-024  0.7913137E+02  0.7818608E-02  0.1331535E+00
          2   -1    0    0  501    0  0.00000000000E+00  0.00000000000E+00  0.13067458082E+04  0.13067458082E+04  0.25500000000E-02 0. -1.
         -1   -1    0    0    0  501 -0.00000000000E+00 -0.00000000000E+00 -0.11979654588E+01  0.11979760607E+01  0.50400000000E-02 0.  1.
         24    2    1    2    0    0  0.00000000000E+00  0.13877787808E-16  0.13055478427E+04  0.13079437843E+04  0.79131366135E+02 0.  0.
         66    2    3    3    0    0  0.25396852210E+02  0.77619937947E-01  0.11541046659E+04  0.11543858047E+04  0.19999994409E+01 0.  0.
        -13    1    3    3    0    0 -0.25396852210E+02 -0.77619937947E-01  0.15144317681E+03  0.15355797958E+03  0.10566000000E+00 0.  1.
         13    1    4    4    0    0  0.16400253816E+02 -0.27497725977E+00  0.78158208197E+03  0.78175418512E+03  0.10566000000E+00 0. -1.
        -13    1    4    4    0    0  0.31565318836E+01  0.29065217757E+00  0.12762319367E+03  0.12766259789E+03  0.10566000000E+00 0.  1.
         14    1    4    4    0    0  0.58400665099E+01  0.61945020152E-01  0.24489939028E+03  0.24496902166E+03  0.00000000000E+00 0. -1.
<mgrwt>
<rscale>  0 0.79131366E+02</rscale>
<asrwt>0</asrwt>
<pdfrwt beam="1">  1        2 0.20103961E+00 0.79131366E+02</pdfrwt>
<pdfrwt beam="2">  1       -1 0.18430155E-03 0.79131366E+02</pdfrwt>
<totfact> 0.35575632E+05</totfact>
</mgrwt>
</event>
<event>
 8    1  0.2433467E-024  0.8253412E+02  0.7818608E-02  0.1322010E+00
         -1   -1    0    0    0  501 -0.00000000000E+00  0.00000000000E+00  0.84047200313E+01  0.84047215425E+01  0.50400000000E-02 0.  1.
          2   -1    0    0  501    0  0.00000000000E+00 -0.00000000000E+00 -0.20262068579E+03  0.20262068580E+03  0.25500000000E-02 0. -1.
         24    2    1    2    0    0 -0.17763568394E-14 -0.17763568394E-14 -0.19421596575E+03  0.21102540734E+03  0.82534121373E+02 0.  0.
         66    2    3    3    0    0  0.13469342782E+02 -0.87531024582E+01 -0.19428808140E+03  0.19496127455E+03  0.20000006134E+01 0.  0.
        -13    1    3    3    0    0 -0.13469342782E+02  0.87531024582E+01  0.72115649337E-01  0.16064132791E+02  0.10566000000E+00 0.  1.
         13    1    4    4    0    0  0.58725049642E+01 -0.47787338236E+01 -0.92828442532E+02  0.93136746338E+02  0.10566000000E+00 0. -1.
        -13    1    4    4    0    0  0.34321156217E+01 -0.13529980245E+01 -0.42776767479E+02  0.42935684707E+02  0.10566000000E+00 0.  1.
        -14    1    4    4    0    0  0.41647221956E+01 -0.26213706100E+01 -0.58682871393E+02  0.58888843508E+02  0.00000000000E+00 0.  1.
<mgrwt>
<rscale>  0 0.82534121E+02</rscale>
<asrwt>0</asrwt>
<pdfrwt beam="1">  1        2 0.31172410E-01 0.82534121E+02</pdfrwt>
<pdfrwt beam="2">  1       -1 0.12930341E-02 0.82534121E+02</pdfrwt>
<totfact> 0.20405932E+05</totfact>
</mgrwt>
</event>
<event>
 8    1  0.2433467E-024  0.7202645E+02  0.7818608E-02  0.1353335E+00
         -1   -1    0    0    0  501 -0.00000000000E+00  0.00000000000E+00  0.85360149638E+02  0.85360149787E+02  0.50400000000E-02 0.  1.
          2   -1    0    0  501    0  0.00000000000E+00 -0.00000000000E+00 -0.15193884301E+02  0.15193884515E+02  0.25500000000E-02 0. -1.
         24    2    1    2    0    0 -0.88817841970E-15  0.00000000000E+00  0.70166265337E+02  0.10055403430E+03  0.72026446691E+02 0.  0.
         66    2    3    3    0    0 -0.51264359092E+01  0.17202615114E+02 -0.84315798580E+01  0.19932432076E+02  0.19999994228E+01 0.  0.
        -13    1    3    3    0    0  0.51264359092E+01 -0.17202615114E+02  0.78597845195E+02  0.80621602225E+02  0.10566000000E+00 0.  1.
         13    1    4    4    0    0 -0.35552257985E+00  0.29939036949E+01 -0.11757554996E+01  0.32378110924E+01  0.10566000000E+00 0. -1.
        -13    1    4    4    0    0 -0.18167383680E+01  0.45618376187E+01 -0.18477457910E+01  0.52474974322E+01  0.10566000000E+00 0.  1.
         14    1    4    4    0    0 -0.29541749613E+01  0.96468738004E+01 -0.54080785674E+01  0.11447123552E+02  0.00000000000E+00 0. -1.
<mgrwt>
<rscale>  0 0.72026447E+02</rscale>
<asrwt>0</asrwt>
<pdfrwt beam="1">  1        2 0.23375207E-02 0.72026447E+02</pdfrwt>
<pdfrwt beam="2">  1       -1 0.13132330E-01 0.72026447E+02</pdfrwt>
<totfact> 0.15887014E+05</totfact>
</mgrwt>
</event>
<event>
 8    1  0.2433467E-024  0.7558382E+02  0.7818608E-02  0.1342073E+00
          2   -1    0    0  501    0  0.00000000000E+00  0.00000000000E+00  0.35514596033E+03  0.35514596034E+03  0.25500000000E-02 0. -1.
         -1   -1    0    0    0  501 -0.00000000000E+00 -0.00000000000E+00 -0.40215238245E+01  0.40215269828E+01  0.50400000000E-02 0.  1.
         24    2    1    2    0    0 -0.44408920985E-15  0.17763568394E-14  0.35112443650E+03  0.35916748732E+03  0.75583821270E+02 0.  0.
         66    2    3    3    0    0 -0.37366360081E+01  0.11219970635E+02  0.34611701900E+03  0.34632476238E+03  0.20000019674E+01 0.  0.
        -13    1    3    3    0    0  0.37366360081E+01 -0.11219970635E+02  0.50074175021E+01  0.12842724936E+02  0.10566000000E+00 0.  1.
         13    1    4    4    0    0 -0.24442806170E+01  0.70094382138E+01  0.21160327775E+03  0.21173347645E+03  0.10566000000E+00 0. -1.
        -13    1    4    4    0    0 -0.62883989288E+00  0.67390056838E+00  0.20911461752E+02  0.20932032348E+02  0.10566000000E+00 0.  1.
         14    1    4    4    0    0 -0.66351549826E+00  0.35366318532E+01  0.11360227950E+03  0.11365925358E+03  0.00000000000E+00 0. -1.
<mgrwt>
<rscale>  0 0.75583821E+02</rscale>
<asrwt>0</asrwt>
<pdfrwt beam="1">  1        2 0.54637844E-01 0.75583821E+02</pdfrwt>
<pdfrwt beam="2">  1       -1 0.61869617E-03 0.75583821E+02</pdfrwt>
<totfact> 0.31415483E+05</totfact>
</mgrwt>
</event>
<event>
 8    1  0.2433467E-024  0.8555567E+02  0.7818608E-02  0.1313986E+00
          2   -1    0    0  501    0  0.00000000000E+00  0.00000000000E+00  0.17325424888E+02  0.17325425076E+02  0.25500000000E-02 0. -1.
         -1   -1    0    0    0  501 -0.00000000000E+00 -0.00000000000E+00 -0.10562182824E+03  0.10562182836E+03  0.50400000000E-02 0.  1.
         24    2    1    2    0    0  0.00000000000E+00  0.00000000000E+00 -0.88296403352E+02  0.12294725344E+03  0.85555667741E+02 0.  0.
         66    2    3    3    0    0 -0.34319061501E+02  0.70337069287E+01 -0.89524553365E+01  0.36213498380E+02  0.19999982127E+01 0.  0.
        -13    1    3    3    0    0  0.34319061501E+02 -0.70337069287E+01 -0.79343948016E+02  0.86733755057E+02  0.10566000000E+00 0.  1.
         13    1    4    4    0    0 -0.16141697541E+02  0.39193333504E+01 -0.40103986843E+01  0.17088301117E+02  0.10566000000E+00 0. -1.
        -13    1    4    4    0    0 -0.10757904142E+02  0.18523259670E+01 -0.34843388511E+01  0.11459292923E+02  0.10566000000E+00 0.  1.
        -14    1    4    4    0    0 -0.74194598182E+01  0.12620476112E+01 -0.14577178011E+01  0.76659043403E+01  0.00000000000E+00 0.  1.
<mgrwt>
<rscale>  0 0.85555668E+02</rscale>
<asrwt>0</asrwt>
<pdfrwt beam="1">  1        2 0.26654501E-02 0.85555668E+02</pdfrwt>
<pdfrwt beam="2">  1       -1 0.16249512E-01 0.85555668E+02</pdfrwt>
<totfact> 0.99052264E+04</totfact>
</mgrwt>
</event>
<event>
 8    1  0.2433467E-024  0.7047192E+02  0.7818608E-02  0.1358496E+00
         -1   -1    0    0    0  501 -0.00000000000E+00  0.00000000000E+00  0.52179258274E+02  0.52179258518E+02  0.50400000000E-02 0.  1.
          2   -1    0    0  501    0  0.00000000000E+00 -0.00000000000E+00 -0.23794377397E+02  0.23794377534E+02  0.25500000000E-02 0. -1.
         24    2    1    2    0    0 -0.35527136788E-14 -0.11102230246E-15  0.28384880877E+02  0.75973636051E+02  0.70471922866E+02 0.  0.
         66    2    3    3    0    0 -0.30668956335E+02 -0.80109714664E+00 -0.44171889994E+01  0.31060235027E+02  0.20000004874E+01 0.  0.
        -13    1    3    3    0    0  0.30668956335E+02  0.80109714664E+00  0.32802069877E+02  0.44913401024E+02  0.10566000000E+00 0.  1.
         13    1    4    4    0    0 -0.15145573167E+02 -0.64500352759E-01 -0.28532019912E+01  0.15412477818E+02  0.10566000000E+00 0. -1.
        -13    1    4    4    0    0 -0.57902250143E+01 -0.48549972873E+00 -0.98288968610E+00  0.58940352793E+01  0.10566000000E+00 0.  1.
         14    1    4    4    0    0 -0.97331581538E+01 -0.25109706515E+00 -0.58109732211E+00  0.97537219297E+01  0.00000000000E+00 0. -1.
<mgrwt>
<rscale>  0 0.70471923E+02</rscale>
<asrwt>0</asrwt>
<pdfrwt beam="1">  1        2 0.36606735E-02 0.70471923E+02</pdfrwt>
<pdfrwt beam="2">  1       -1 0.80275782E-02 0.70471923E+02</pdfrwt>
<totfact> 0.18342928E+05</totfact>
</mgrwt>
</event>
<event>
 8    1  0.2433467E-024  0.8052334E+02  0.7818608E-02  0.1327573E+00
          2   -1    0    0  501    0  0.00000000000E+00  0.00000000000E+00  0.13688046938E+03  0.13688046941E+03  0.25500000000E-02 0. -1.
         -1   -1    0    0    0  501 -0.00000000000E+00 -0.00000000000E+00 -0.11842463145E+02  0.11842464217E+02  0.50400000000E-02 0.  1.
         24    2    1    2    0    0 -0.71054273576E-14  0.00000000000E+00  0.12503800624E+03  0.14872293362E+03  0.80523338117E+02 0.  0.
         66    2    3    3    0    0 -0.37843267602E+02  0.13659951289E+02  0.61563040073E+02  0.73571156094E+02  0.19999835034E+01 0.  0.
        -13    1    3    3    0    0  0.37843267602E+02 -0.13659951289E+02  0.63474966164E+02  0.75151777528E+02  0.10566000000E+00 0.  1.
         13    1    4    4    0    0 -0.88445035491E+01  0.33994823234E+01  0.14019559117E+02  0.16921611181E+02  0.10566000000E+00 0. -1.
        -13    1    4    4    0    0 -0.12599774754E+02  0.52744927579E+01  0.21448538454E+02  0.25428833311E+02  0.10566000000E+00 0.  1.
        -14    1    4    4    0    0 -0.16398989299E+02  0.49859762082E+01  0.26094942501E+02  0.31220711602E+02  0.00000000000E+00 0.  1.
<mgrwt>
<rscale>  0 0.80523338E+02</rscale>
<asrwt>0</asrwt>
<pdfrwt beam="1">  1        2 0.21058534E-01 0.80523338E+02</pdfrwt>
<pdfrwt beam="2">  1       -1 0.18219175E-02 0.80523338E+02</pdfrwt>
<totfact> 0.19121316E+05</totfact>
</mgrwt>
</event>
<event>
 8    1  0.2433467E-024  0.8021741E+02  0.7818608E-02  0.1328436E+00
          2   -1    0    0  501    0  0.00000000000E+00  0.00000000000E+00  0.16839266241E+02  0.16839266434E+02  0.25500000000E-02 0. -1.
         -1   -1    0    0    0  501 -0.00000000000E+00 -0.00000000000E+00 -0.95533145548E+02  0.95533145681E+02  0.50400000000E-02 0.  1.
         24    2    1    2    0    0  0.00000000000E+00 -0.35527136788E-14 -0.78693879307E+02  0.11237241211E+03  0.80217406864E+02 0.  0.
         66    2    3    3    0    0 -0.24620988361E+02 -0.31527454421E+02 -0.42950950508E+02  0.58727826430E+02  0.19999993727E+01 0.  0.
        -13    1    3    3    0    0  0.24620988361E+02  0.31527454421E+02 -0.35742928799E+02  0.53644585685E+02  0.10566000000E+00 0.  1.
         13    1    4    4    0    0 -0.12873301516E+02 -0.16928414263E+02 -0.22324722761E+02  0.30833383074E+02  0.10566000000E+00 0. -1.
        -13    1    4    4    0    0 -0.17551697908E+01 -0.23496765145E+01 -0.38882320145E+01  0.48714590167E+01  0.10566000000E+00 0.  1.
        -14    1    4    4    0    0 -0.99925170542E+01 -0.12249363643E+02 -0.16737995732E+02  0.23022984339E+02  0.00000000000E+00 0.  1.
<mgrwt>
<rscale>  0 0.80217407E+02</rscale>
<asrwt>0</asrwt>
<pdfrwt beam="1">  1        2 0.25906564E-02 0.80217407E+02</pdfrwt>
<pdfrwt beam="2">  1       -1 0.14697407E-01 0.80217407E+02</pdfrwt>
<totfact> 0.11888292E+05</totfact>
</mgrwt>
</event>
<event>
 8    1  0.2433467E-024  0.7971690E+02  0.7818608E-02  0.1329857E+00
          2   -1    0    0  501    0  0.00000000000E+00  0.00000000000E+00  0.25786668330E+02  0.25786668456E+02  0.25500000000E-02 0. -1.
         -1   -1    0    0    0  501 -0.00000000000E+00 -0.00000000000E+00 -0.61609196903E+02  0.61609197110E+02  0.50400000000E-02 0.  1.
         24    2    1    2    0    0  0.00000000000E+00  0.00000000000E+00 -0.35822528573E+02  0.87395865566E+02  0.79716897611E+02 0.  0.
         66    2    3    3    0    0 -0.18083899667E+02  0.35465483300E+02 -0.16426086754E+02  0.43111996583E+02  0.19999976070E+01 0.  0.
        -13    1    3    3    0    0  0.18083899667E+02 -0.35465483300E+02 -0.19396441819E+02  0.44283868983E+02  0.10566000000E+00 0.  1.
         13    1    4    4    0    0 -0.67235629879E+01  0.12612453696E+02 -0.50893968297E+01  0.15172126140E+02  0.10566000000E+00 0. -1.
        -13    1    4    4    0    0 -0.56542917631E+01  0.11954278098E+02 -0.62631406290E+01  0.14632630480E+02  0.10566000000E+00 0.  1.
        -14    1    4    4    0    0 -0.57060449162E+01  0.10898751506E+02 -0.50735492953E+01  0.13307239963E+02  0.00000000000E+00 0.  1.
<mgrwt>
<rscale>  0 0.79716898E+02</rscale>
<asrwt>0</asrwt>
<pdfrwt beam="1">  1        2 0.39671798E-02 0.79716898E+02</pdfrwt>
<pdfrwt beam="2">  1       -1 0.94783380E-02 0.79716898E+02</pdfrwt>
<totfact> 0.13191424E+05</totfact>
</mgrwt>
</event>
<event>
 8    1  0.2433467E-024  0.7812191E+02  0.7818608E-02  0.1334467E+00
         -1   -1    0    0    0  501 -0.00000000000E+00  0.00000000000E+00  0.71956565354E+01  0.71956583004E+01  0.50400000000E-02 0.  1.
          2   -1    0    0  501    0  0.00000000000E+00 -0.00000000000E+00 -0.21203875043E+03  0.21203875045E+03  0.25500000000E-02 0. -1.
         24    2    1    2    0    0  0.00000000000E+00  0.00000000000E+00 -0.20484309389E+03  0.21923440875E+03  0.78121910254E+02 0.  0.
         66    2    3    3    0    0  0.94066891502E+01 -0.29709932888E+02 -0.16845694713E+03  0.17132690669E+03  0.20000014219E+01 0.  0.
        -13    1    3    3    0    0 -0.94066891502E+01  0.29709932888E+02 -0.36386146760E+02  0.47907502054E+02  0.10566000000E+00 0.  1.
         13    1    4    4    0    0  0.45946590578E+01 -0.15978396072E+02 -0.92015923489E+02  0.93505942979E+02  0.10566000000E+00 0. -1.
        -13    1    4    4    0    0  0.47058715061E+01 -0.13023844244E+02 -0.71546427664E+02  0.72874331703E+02  0.10566000000E+00 0.  1.
         14    1    4    4    0    0  0.10615858625E+00 -0.70769257289E+00 -0.48945959812E+01  0.49466320100E+01  0.00000000000E+00 0. -1.
<mgrwt>
<rscale>  0 0.78121910E+02</rscale>
<asrwt>0</asrwt>
<pdfrwt beam="1">  1        2 0.32621341E-01 0.78121910E+02</pdfrwt>
<pdfrwt beam="2">  1       -1 0.11070244E-02 0.78121910E+02</pdfrwt>
<totfact> 0.23966377E+05</totfact>
</mgrwt>
</event>
<event>
 8    1  0.2433467E-024  0.8509630E+02  0.7818608E-02  0.1315181E+00
          2   -1    0    0  501    0  0.00000000000E+00  0.00000000000E+00  0.67118127709E+03  0.67118127710E+03  0.25500000000E-02 0. -1.
         -1   -1    0    0    0  501 -0.00000000000E+00 -0.00000000000E+00 -0.26972496988E+01  0.26972544076E+01  0.50400000000E-02 0.  1.
         24    2    1    2    0    0  0.71054273576E-14 -0.35527136788E-14  0.66848402739E+03  0.67387853151E+03  0.85096300406E+02 0.  0.
         66    2    3    3    0    0 -0.39061664436E+02  0.95860737847E+01  0.44376401648E+03  0.44558748720E+03  0.19999977122E+01 0.  0.
        -13    1    3    3    0    0  0.39061664436E+02 -0.95860737847E+01  0.22472001092E+03  0.22829104431E+03  0.10566000000E+00 0.  1.
         13    1    4    4    0    0 -0.11534555179E+00  0.69935428385E-01  0.22451034878E+01  0.22516325781E+01  0.10566000000E+00 0.  1.
        -13    1    4    4    0    0 -0.96345490326E+01  0.21097539315E+01  0.10902695138E+03  0.10947220144E+03  0.10566000000E+00 0. -1.
         14    1    4    4    0    0 -0.29311769852E+02  0.74063844248E+01  0.33249196160E+03  0.33386365318E+03  0.00000000000E+00 0. -1.
<mgrwt>
<rscale>  0 0.85096300E+02</rscale>
<asrwt>0</asrwt>
<pdfrwt beam="1">  1        2 0.10325864E+00 0.85096300E+02</pdfrwt>
<pdfrwt beam="2">  1       -1 0.41496194E-03 0.85096300E+02</pdfrwt>
<totfact> 0.28193618E+05</totfact>
</mgrwt>
</event>
<event>
 8    1  0.2693943E-024  0.7929466E+02  0.7818608E-02  0.1331065E+00
         -1   -1    0    0    0  501 -0.00000000000E+00  0.00000000000E+00  0.48928800801E+01  0.48928826758E+01  0.50400000000E-02 0.  1.
          2   -1    0    0  501    0  0.00000000000E+00 -0.00000000000E+00 -0.32126485529E+03  0.32126485530E+03  0.25500000000E-02 0. -1.
         24    2    1    2    0    0 -0.35527136788E-14 -0.88817841970E-15 -0.31637197521E+03  0.32615773798E+03  0.79294661506E+02 0.  0.
         66    2    3    3    0    0 -0.23699949842E+02  0.52079605084E+01 -0.28712297051E+03  0.28815344986E+03  0.19999993230E+01 0.  0.
        -13    1    3    3    0    0  0.23699949842E+02 -0.52079605084E+01 -0.29249004704E+02  0.38004288118E+02  0.10566000000E+00 0.  1.
         13    1    4    4    0    0 -0.14168758722E+02  0.29638285660E+01 -0.17127956564E+03  0.17189019394E+03  0.10566000000E+00 0. -1.
        -13    1    4    4    0    0 -0.36485601436E+01  0.24386257971E+00 -0.42743144223E+02  0.42899405616E+02  0.10566000000E+00 0.  1.
        -14    1    4    4    0    0 -0.58826309767E+01  0.20002693627E+01 -0.73100260646E+02  0.73363850302E+02  0.00000000000E+00 0.  1.
<mgrwt>
<rscale>  0 0.79294662E+02</rscale>
<asrwt>0</asrwt>
<pdfrwt beam="1">  1        2 0.49425346E-01 0.79294662E+02</pdfrwt>
<pdfrwt beam="2">  1       -1 0.75275124E-03 0.79294662E+02</pdfrwt>
<totfact> 0.26746418E+05</totfact>
</mgrwt>
</event>
<event>
 8    1  0.2433467E-024  0.7962142E+02  0.7818608E-02  0.1330129E+00
          2   -1    0    0  501    0  0.00000000000E+00  0.00000000000E+00  0.30764961898E+03  0.30764961899E+03  0.25500000000E-02 0. -1.
         -1   -1    0    0    0  501 -0.00000000000E+00 -0.00000000000E+00 -0.51516140217E+01  0.51516164871E+01  0.50400000000E-02 0.  1.
         24    2    1    2    0    0  0.00000000000E+00  0.00000000000E+00  0.30249800496E+03  0.31280123548E+03  0.79621416168E+02 0.  0.
         66    2    3    3    0    0 -0.34391290743E+02  0.10568287525E+02  0.21806550734E+03  0.22102265738E+03  0.20000005349E+01 0.  0.
        -13    1    3    3    0    0  0.34391290743E+02 -0.10568287525E+02  0.84432497615E+02  0.91778578098E+02  0.10566000000E+00 0.  1.
         13    1    4    4    0    0 -0.24276122930E+02  0.74987543960E+01  0.15111782302E+03  0.15323892802E+03  0.10566000000E+00 0. -1.
        -13    1    4    4    0    0 -0.96082541315E+01  0.30175989803E+01  0.64684825637E+02  0.65464206119E+02  0.10566000000E+00 0.  1.
        -14    1    4    4    0    0 -0.50691368123E+00  0.51934148479E-01  0.22628586888E+01  0.23195232445E+01  0.00000000000E+00 0.  1.
<mgrwt>
<rscale>  0 0.79621416E+02</rscale>
<asrwt>0</asrwt>
<pdfrwt beam="1">  1        2 0.47330732E-01 0.79621416E+02</pdfrwt>
<pdfrwt beam="2">  1       -1 0.79255584E-03 0.79621416E+02</pdfrwt>
<totfact> 0.26049623E+05</totfact>
</mgrwt>
</event>
<event>
 8    1  0.2433467E-024  0.7933094E+02  0.7818608E-02  0.1330961E+00
          2   -1    0    0  501    0  0.00000000000E+00  0.00000000000E+00  0.83267251031E+03  0.83267251031E+03  0.25500000000E-02 0. -1.
         -1   -1    0    0    0  501 -0.00000000000E+00 -0.00000000000E+00 -0.18895143933E+01  0.18895211151E+01  0.50400000000E-02 0.  1.
         24    2    1    2    0    0  0.17763568394E-14  0.00000000000E+00  0.83078299591E+03  0.83456203142E+03  0.79330939731E+02 0.  0.
         66    2    3    3    0    0 -0.13588872737E+02 -0.58679146564E+01  0.80250715377E+03  0.80264613731E+03  0.19999976271E+01 0.  0.
        -13    1    3    3    0    0  0.13588872737E+02  0.58679146564E+01  0.28275842138E+02  0.31915894118E+02  0.10566000000E+00 0.  1.
         13    1    4    4    0    0 -0.10426380896E+02 -0.41873669010E+01  0.60465708242E+03  0.60476147525E+03  0.10566000000E+00 0. -1.
        -13    1    4    4    0    0 -0.31186805482E+01 -0.17790399818E+01  0.19226263557E+03  0.19229618652E+03  0.10566000000E+00 0.  1.
         14    1    4    4    0    0 -0.43811292850E-01  0.98492226345E-01  0.55874357892E+01  0.55884755387E+01  0.00000000000E+00 0. -1.
<mgrwt>
<rscale>  0 0.79330940E+02</rscale>
<asrwt>0</asrwt>
<pdfrwt beam="1">  1        2 0.12810349E+00 0.79330940E+02</pdfrwt>
<pdfrwt beam="2">  1       -1 0.29069498E-03 0.79330940E+02</pdfrwt>
<totfact> 0.35352630E+05</totfact>
</mgrwt>
</event>
<event>
 8    1  0.2433467E-024  0.7963294E+02  0.7818608E-02  0.1330096E+00
         -1   -1    0    0    0  501 -0.00000000000E+00  0.00000000000E+00  0.14614955565E+01  0.14615042468E+01  0.50400000000E-02 0.  1.
          2   -1    0    0  501    0  0.00000000000E+00 -0.00000000000E+00 -0.10847426912E+04  0.10847426912E+04  0.25500000000E-02 0. -1.
         24    2    1    2    0    0 -0.17763568394E-14  0.00000000000E+00 -0.10832811956E+04  0.10862041954E+04  0.79632941536E+02 0.  0.
         66    2    3    3    0    0  0.12220987631E+02 -0.14639903159E+02 -0.10183457759E+04  0.10185262876E+04  0.20000080431E+01 0.  0.
        -13    1    3    3    0    0 -0.12220987631E+02  0.14639903159E+02 -0.64935419735E+02  0.67677907794E+02  0.10566000000E+00 0.  1.
         13    1    4    4    0    0  0.17381042804E+01 -0.19877485590E+01 -0.16814413513E+03  0.16816489971E+03  0.10566000000E+00 0. -1.
        -13    1    4    4    0    0  0.85566859264E+01 -0.99918610630E+01 -0.70340733560E+03  0.70353034412E+03  0.10566000000E+00 0.  1.
        -14    1    4    4    0    0  0.19261974240E+01 -0.26602935369E+01 -0.14679430514E+03  0.14683104379E+03  0.00000000000E+00 0.  1.
<mgrwt>
<rscale>  0 0.79632942E+02</rscale>
<asrwt>0</asrwt>
<pdfrwt beam="1">  1        2 0.16688285E+00 0.79632942E+02</pdfrwt>
<pdfrwt beam="2">  1       -1 0.22484701E-03 0.79632942E+02</pdfrwt>
<totfact> 0.35688067E+05</totfact>
</mgrwt>
</event>
<event>
 8    1  0.2433467E-024  0.7992061E+02  0.7818608E-02  0.1329277E+00
         -1   -1    0    0    0  501 -0.00000000000E+00  0.00000000000E+00  0.21337715760E+02  0.21337716355E+02  0.50400000000E-02 0.  1.
          2   -1    0    0  501    0  0.00000000000E+00 -0.00000000000E+00 -0.74835841778E+02  0.74835841821E+02  0.25500000000E-02 0. -1.
         24    2    1    2    0    0  0.35527136788E-14  0.88817841970E-15 -0.53498126018E+02  0.96173558177E+02  0.79920609388E+02 0.  0.
         66    2    3    3    0    0  0.17031029789E+02  0.41809594143E+01 -0.69940950302E+02  0.72133715586E+02  0.19999994728E+01 0.  0.
        -13    1    3    3    0    0 -0.17031029789E+02 -0.41809594143E+01  0.16442824284E+02  0.24039842590E+02  0.10566000000E+00 0.  1.
         13    1    4    4    0    0  0.66202659644E+01  0.69009053930E+00 -0.26044403742E+02  0.26881708962E+02  0.10566000000E+00 0. -1.
        -13    1    4    4    0    0  0.28422681986E+01  0.10612024770E+01 -0.12913854209E+02  0.13265874784E+02  0.10566000000E+00 0.  1.
         14    1    4    4    0    0  0.75684956257E+01  0.24296663981E+01 -0.30982692351E+02  0.31986131841E+02  0.00000000000E+00 0. -1.
<mgrwt>
<rscale>  0 0.79920609E+02</rscale>
<asrwt>0</asrwt>
<pdfrwt beam="1">  1        2 0.11513206E-01 0.79920609E+02</pdfrwt>
<pdfrwt beam="2">  1       -1 0.32827256E-02 0.79920609E+02</pdfrwt>
<totfact> 0.16459541E+05</totfact>
</mgrwt>
</event>
<event>
 8    1  0.2433467E-024  0.8818229E+02  0.7818608E-02  0.1307314E+00
          2   -1    0    0  501    0  0.00000000000E+00  0.00000000000E+00  0.38579917355E+03  0.38579917356E+03  0.25500000000E-02 0. -1.
         -1   -1    0    0    0  501 -0.00000000000E+00 -0.00000000000E+00 -0.50389653197E+01  0.50389678402E+01  0.50400000000E-02 0.  1.
         24    2    1    2    0    0  0.00000000000E+00  0.00000000000E+00  0.38076020823E+03  0.39083814140E+03  0.88182291875E+02 0.  0.
         66    2    3    3    0    0 -0.98080805921E+01  0.40782075565E+02  0.25037722332E+03  0.25387424086E+03  0.20000207489E+01 0.  0.
        -13    1    3    3    0    0  0.98080805921E+01 -0.40782075565E+02  0.13038298490E+03  0.13696390053E+03  0.10566000000E+00 0.  1.
         13    1    4    4    0    0 -0.74621157111E+01  0.33218634101E+02  0.20225627717E+03  0.20510186162E+03  0.10566000000E+00 0. -1.
        -13    1    4    4    0    0 -0.15114500145E+01  0.40880463467E+01  0.25171184127E+02  0.25545964035E+02  0.10566000000E+00 0.  1.
        -14    1    4    4    0    0 -0.83451486657E+00  0.34753951168E+01  0.22949762030E+02  0.23226415210E+02  0.00000000000E+00 0.  1.
<mgrwt>
<rscale>  0 0.88182292E+02</rscale>
<asrwt>0</asrwt>
<pdfrwt beam="1">  1        2 0.59353710E-01 0.88182292E+02</pdfrwt>
<pdfrwt beam="2">  1       -1 0.77522575E-03 0.88182292E+02</pdfrwt>
<totfact> 0.21602757E+05</totfact>
</mgrwt>
</event>
<event>
 8    1  0.2433467E-024  0.8131351E+02  0.7818608E-02  0.1325365E+00
         -1   -1    0    0    0  501 -0.00000000000E+00  0.00000000000E+00  0.50702846663E+02  0.50702846913E+02  0.50400000000E-02 0.  1.
          2   -1    0    0  501    0  0.00000000000E+00 -0.00000000000E+00 -0.32601165032E+02  0.32601165132E+02  0.25500000000E-02 0. -1.
         24    2    1    2    0    0  0.00000000000E+00  0.00000000000E+00  0.18101681631E+02  0.83304012045E+02  0.81313513914E+02 0.  0.
         66    2    3    3    0    0 -0.23844597750E+02  0.32417686931E+02  0.33068234136E+01  0.40427791811E+02  0.20000004536E+01 0.  0.
        -13    1    3    3    0    0  0.23844597750E+02 -0.32417686931E+02  0.14794858217E+02  0.42876220234E+02  0.10566000000E+00 0.  1.
         13    1    4    4    0    0 -0.84222957250E+01  0.12804374350E+02  0.17078457984E+01  0.15421250568E+02  0.10566000000E+00 0. -1.
        -13    1    4    4    0    0 -0.13989124265E+02  0.17941735031E+02  0.15563529188E+01  0.22804272671E+02  0.10566000000E+00 0.  1.
         14    1    4    4    0    0 -0.14331777607E+01  0.16715775508E+01  0.42624696457E-01  0.22022685728E+01  0.00000000000E+00 0. -1.
<mgrwt>
<rscale>  0 0.81313514E+02</rscale>
<asrwt>0</asrwt>
<pdfrwt beam="1">  1        2 0.50155639E-02 0.81313514E+02</pdfrwt>
<pdfrwt beam="2">  1       -1 0.78004380E-02 0.81313514E+02</pdfrwt>
<totfact> 0.13070013E+05</totfact>
</mgrwt>
</event>
<event>
 8    1  0.2433467E-024  0.8113457E+02  0.7818608E-02  0.1325862E+00
         -1   -1    0    0    0  501 -0.00000000000E+00  0.00000000000E+00  0.91086518306E+01  0.91086532249E+01  0.50400000000E-02 0.  1.
          2   -1    0    0  501    0  0.00000000000E+00 -0.00000000000E+00 -0.18067485386E+03  0.18067485388E+03  0.25500000000E-02 0. -1.
         24    2    1    2    0    0  0.00000000000E+00  0.00000000000E+00 -0.17156620203E+03  0.18978350711E+03  0.81134566552E+02 0.  0.
         66    2    3    3    0    0  0.15468181055E+02  0.15873698045E+02 -0.16524332404E+03  0.16673510445E+03  0.20000002018E+01 0.  0.
        -13    1    3    3    0    0 -0.15468181055E+02 -0.15873698045E+02 -0.63228779883E+01  0.23048402654E+02  0.10566000000E+00 0.  1.
         13    1    4    4    0    0  0.56892853469E+01  0.56553050650E+01 -0.56841293908E+02  0.57404653996E+02  0.10566000000E+00 0. -1.
        -13    1    4    4    0    0  0.40249482961E+01  0.32541495066E+01 -0.37837475056E+02  0.38189990579E+02  0.10566000000E+00 0.  1.
        -14    1    4    4    0    0  0.57539474123E+01  0.69642434736E+01 -0.70564555080E+02  0.71140459878E+02  0.00000000000E+00 0.  1.
<mgrwt>
<rscale>  0 0.81134567E+02</rscale>
<asrwt>0</asrwt>
<pdfrwt beam="1">  1        2 0.27796129E-01 0.81134567E+02</pdfrwt>
<pdfrwt beam="2">  1       -1 0.14013313E-02 0.81134567E+02</pdfrwt>
<totfact> 0.20522477E+05</totfact>
</mgrwt>
</event>
<event>
 8    1  0.2433467E-024  0.8041810E+02  0.7818608E-02  0.1327869E+00
         -1   -1    0    0    0  501 -0.00000000000E+00  0.00000000000E+00  0.48584867451E+01  0.48584893593E+01  0.50400000000E-02 0.  1.
          2   -1    0    0  501    0  0.00000000000E+00 -0.00000000000E+00 -0.33277179347E+03  0.33277179348E+03  0.25500000000E-02 0. -1.
         24    2    1    2    0    0  0.00000000000E+00  0.00000000000E+00 -0.32791330673E+03  0.33763028284E+03  0.80418102209E+02 0.  0.
         66    2    3    3    0    0 -0.27953922408E+02  0.10008935070E+02 -0.27773871221E+03  0.27932846762E+03  0.20000007343E+01 0.  0.
        -13    1    3    3    0    0  0.27953922408E+02 -0.10008935070E+02 -0.50174594515E+02  0.58301815221E+02  0.10566000000E+00 0.  1.
         13    1    4    4    0    0 -0.64104538849E+01  0.27919468771E+01 -0.66000200601E+02  0.66369620534E+02  0.10566000000E+00 0. -1.
        -13    1    4    4    0    0 -0.44404118241E+01  0.21028865733E+01 -0.45658239104E+02  0.45921948469E+02  0.10566000000E+00 0.  1.
         14    1    4    4    0    0 -0.17103056699E+02  0.51141016191E+01 -0.16608027251E+03  0.16703689862E+03  0.00000000000E+00 0. -1.
<mgrwt>
<rscale>  0 0.80418102E+02</rscale>
<asrwt>0</asrwt>
<pdfrwt beam="1">  1        2 0.51195643E-01 0.80418102E+02</pdfrwt>
<pdfrwt beam="2">  1       -1 0.74745996E-03 0.80418102E+02</pdfrwt>
<totfact> 0.26107750E+05</totfact>
</mgrwt>
</event>
<event>
 8    1  0.2433467E-024  0.8304776E+02  0.7818608E-02  0.1320618E+00
         -1   -1    0    0    0  501 -0.00000000000E+00  0.00000000000E+00  0.26961939049E+01  0.26961986155E+01  0.50400000000E-02 0.  1.
          2   -1    0    0  501    0  0.00000000000E+00 -0.00000000000E+00 -0.63950557998E+03  0.63950557998E+03  0.25500000000E-02 0. -1.
         24    2    1    2    0    0  0.35527136788E-14  0.17763568394E-14 -0.63680938607E+03  0.64220177860E+03  0.83047758816E+02 0.  0.
         66    2    3    3    0    0 -0.31373374840E+02  0.81769703689E+01 -0.51891121748E+03  0.51992692095E+03  0.20000000890E+01 0.  0.
        -13    1    3    3    0    0  0.31373374840E+02 -0.81769703689E+01 -0.11789816859E+03  0.12227485765E+03  0.10566000000E+00 0.  1.
         13    1    4    4    0    0 -0.30079311008E+01  0.82676334122E+00 -0.55380736927E+02  0.55468625130E+02  0.10566000000E+00 0. -1.
        -13    1    4    4    0    0 -0.19147315066E+02  0.42755450606E+01 -0.31449041877E+03  0.31510178454E+03  0.10566000000E+00 0.  1.
        -14    1    4    4    0    0 -0.92181286736E+01  0.30746619671E+01 -0.14904006179E+03  0.14935651128E+03  0.00000000000E+00 0.  1.
<mgrwt>
<rscale>  0 0.83047759E+02</rscale>
<asrwt>0</asrwt>
<pdfrwt beam="1">  1        2 0.98385353E-01 0.83047759E+02</pdfrwt>
<pdfrwt beam="2">  1       -1 0.41479994E-03 0.83047759E+02</pdfrwt>
<totfact> 0.29682685E+05</totfact>
</mgrwt>
</event>
<event>
 8    1  0.2433467E-024  0.7910264E+02  0.7818608E-02  0.1331617E+00
          2   -1    0    0  501    0  0.00000000000E+00  0.00000000000E+00  0.63482696960E+03  0.63482696960E+03  0.25500000000E-02 0. -1.
         -1   -1    0    0    0  501 -0.00000000000E+00 -0.00000000000E+00 -0.24641442490E+01  0.24641494032E+01  0.50400000000E-02 0.  1.
         24    2    1    2    0    0  0.17763568394E-14 -0.35527136788E-14  0.63236282535E+03  0.63729111901E+03  0.79102638900E+02 0.  0.
         66    2    3    3    0    0 -0.87831244406E+01  0.21413263982E+02  0.57452221483E+03  0.57499169253E+03  0.20000007053E+01 0.  0.
        -13    1    3    3    0    0  0.87831244406E+01 -0.21413263982E+02  0.57840610521E+02  0.62299426473E+02  0.10566000000E+00 0.  1.
         13    1    4    4    0    0 -0.59412829281E+01  0.14606903172E+02  0.37329799036E+03  0.37363091579E+03  0.10566000000E+00 0. -1.
        -13    1    4    4    0    0 -0.22813737008E+01  0.60310887673E+01  0.17834316901E+03  0.17845973158E+03  0.10566000000E+00 0.  1.
         14    1    4    4    0    0 -0.56046781175E+00  0.77527204287E+00  0.22881055457E+02  0.22901045166E+02  0.00000000000E+00 0. -1.
<mgrwt>
<rscale>  0 0.79102639E+02</rscale>
<asrwt>0</asrwt>
<pdfrwt beam="1">  1        2 0.97665662E-01 0.79102639E+02</pdfrwt>
<pdfrwt beam="2">  1       -1 0.37909961E-03 0.79102639E+02</pdfrwt>
<totfact> 0.33629502E+05</totfact>
</mgrwt>
</event>
<event>
 8    1  0.2433467E-024  0.7966529E+02  0.7818608E-02  0.1330004E+00
         -1   -1    0    0    0  501 -0.00000000000E+00  0.00000000000E+00  0.11858876947E+02  0.11858878018E+02  0.50400000000E-02 0.  1.
          2   -1    0    0  501    0  0.00000000000E+00 -0.00000000000E+00 -0.13379340135E+03  0.13379340137E+03  0.25500000000E-02 0. -1.
         24    2    1    2    0    0 -0.71054273576E-14 -0.35527136788E-14 -0.12193452440E+03  0.14565227939E+03  0.79665288869E+02 0.  0.
         66    2    3    3    0    0 -0.33093309197E+02 -0.21714406895E+02 -0.53259092035E+02  0.66386847106E+02  0.20000009815E+01 0.  0.
        -13    1    3    3    0    0  0.33093309197E+02  0.21714406895E+02 -0.68675432367E+02  0.79265432285E+02  0.10566000000E+00 0.  1.
         13    1    4    4    0    0 -0.93513818362E+01 -0.59649044443E+01 -0.15154263071E+02  0.18780076692E+02  0.10566000000E+00 0. -1.
        -13    1    4    4    0    0 -0.16796184637E+00 -0.26411299012E+00 -0.37464583305E+00  0.49949012924E+00  0.10566000000E+00 0.  1.
        -14    1    4    4    0    0 -0.23573965515E+02 -0.15485389460E+02 -0.37730183130E+02  0.47107280285E+02  0.00000000000E+00 0.  1.
<mgrwt>
<rscale>  0 0.79665289E+02</rscale>
<asrwt>0</asrwt>
<pdfrwt beam="1">  1        2 0.20583599E-01 0.79665289E+02</pdfrwt>
<pdfrwt beam="2">  1       -1 0.18244428E-02 0.79665289E+02</pdfrwt>
<totfact> 0.19534347E+05</totfact>
</mgrwt>
</event>
<event>
 8    1  0.2433467E-024  0.8093644E+02  0.7818608E-02  0.1326415E+00
          2   -1    0    0  501    0  0.00000000000E+00  0.00000000000E+00  0.15191418940E+04  0.15191418940E+04  0.25500000000E-02 0. -1.
         -1   -1    0    0    0  501 -0.00000000000E+00 -0.00000000000E+00 -0.10780217577E+01  0.10780335392E+01  0.50400000000E-02 0.  1.
         24    2    1    2    0    0  0.35527136788E-14 -0.55511151231E-16  0.15180638723E+04  0.15202199276E+04  0.80936443501E+02 0.  0.
         66    2    3    3    0    0 -0.16238502033E+02  0.25575607425E+00  0.14552010450E+04  0.14552930412E+04  0.19999961330E+01 0.  0.
        -13    1    3    3    0    0  0.16238502033E+02 -0.25575607425E+00  0.62862827258E+02  0.64926886374E+02  0.10566000000E+00 0.  1.
         13    1    4    4    0    0 -0.91361423252E+01  0.50024538542E+00  0.83486538221E+03  0.83491552682E+03  0.10566000000E+00 0. -1.
        -13    1    4    4    0    0 -0.57454989010E+01  0.44830326090E-01  0.53074740999E+03  0.53077851985E+03  0.10566000000E+00 0.  1.
        -14    1    4    4    0    0 -0.13568608065E+01 -0.28931963726E+00  0.89588252809E+02  0.89598994517E+02  0.00000000000E+00 0.  1.
<mgrwt>
<rscale>  0 0.80936444E+02</rscale>
<asrwt>0</asrwt>
<pdfrwt beam="1">  1        2 0.23371342E+00 0.80936444E+02</pdfrwt>
<pdfrwt beam="2">  1       -1 0.16585092E-03 0.80936444E+02</pdfrwt>
<totfact> 0.32102804E+05</totfact>
</mgrwt>
</event>
<event>
 8    1  0.2433467E-024  0.7750247E+02  0.7818608E-02  0.1336292E+00
          2   -1    0    0  501    0  0.00000000000E+00  0.00000000000E+00  0.17481785832E+03  0.17481785834E+03  0.25500000000E-02 0. -1.
         -1   -1    0    0    0  501 -0.00000000000E+00 -0.00000000000E+00 -0.85898438214E+01  0.85898452999E+01  0.50400000000E-02 0.  1.
         24    2    1    2    0    0  0.00000000000E+00  0.00000000000E+00  0.16622801450E+03  0.18340770364E+03  0.77502470604E+02 0.  0.
         66    2    3    3    0    0  0.58408518422E+01  0.35211677941E+02  0.11871958002E+03  0.12398514627E+03  0.20000003663E+01 0.  0.
        -13    1    3    3    0    0 -0.58408518422E+01 -0.35211677941E+02  0.47508434475E+02  0.59422557366E+02  0.10566000000E+00 0.  1.
         13    1    4    4    0    0  0.22126188735E+01  0.11100216564E+02  0.40082065612E+02  0.41649653513E+02  0.10566000000E+00 0. -1.
        -13    1    4    4    0    0  0.34864882164E+01  0.23807708080E+02  0.77647774224E+02  0.81290531860E+02  0.10566000000E+00 0.  1.
        -14    1    4    4    0    0  0.14174475226E+00  0.30375329675E+00  0.98974018513E+00  0.10449608960E+01  0.00000000000E+00 0.  1.
<mgrwt>
<rscale>  0 0.77502471E+02</rscale>
<asrwt>0</asrwt>
<pdfrwt beam="1">  1        2 0.26895054E-01 0.77502471E+02</pdfrwt>
<pdfrwt beam="2">  1       -1 0.13215146E-02 0.77502471E+02</pdfrwt>
<totfact> 0.22905850E+05</totfact>
</mgrwt>
</event>
<event>
 8    1  0.2433467E-024  0.8042667E+02  0.7818608E-02  0.1327845E+00
          2   -1    0    0  501    0  0.00000000000E+00  0.00000000000E+00  0.16520337746E+04  0.16520337746E+04  0.25500000000E-02 0. -1.
         -1   -1    0    0    0  501 -0.00000000000E+00 -0.00000000000E+00 -0.97885501399E+00  0.97886798906E+00  0.50400000000E-02 0.  1.
         24    2    1    2    0    0  0.00000000000E+00  0.00000000000E+00  0.16510549196E+04  0.16530126426E+04  0.80426668938E+02 0.  0.
         66    2    3    3    0    0 -0.85058214665E+01  0.89900268938E+01  0.16118881072E+04  0.16119368597E+04  0.19999985129E+01 0.  0.
        -13    1    3    3    0    0  0.85058214665E+01 -0.89900268938E+01  0.39166812398E+02  0.41075782887E+02  0.10566000000E+00 0.  1.
         13    1    4    4    0    0 -0.15520580867E+01  0.11461064105E+01  0.22643512881E+03  0.22644337298E+03  0.10566000000E+00 0. -1.
        -13    1    4    4    0    0 -0.49613798702E+00  0.67601834025E+00  0.17597801073E+03  0.17598004028E+03  0.10566000000E+00 0.  1.
         14    1    4    4    0    0 -0.64576253928E+01  0.71679021430E+01  0.12094749676E+04  0.12095134464E+04  0.00000000000E+00 0. -1.
<mgrwt>
<rscale>  0 0.80426669E+02</rscale>
<asrwt>0</asrwt>
<pdfrwt beam="1">  1        2 0.25415611E+00 0.80426669E+02</pdfrwt>
<pdfrwt beam="2">  1       -1 0.15059582E-03 0.80426669E+02</pdfrwt>
<totfact> 0.31398666E+05</totfact>
</mgrwt>
</event>
