<event>
 8    1  0.1627221E-013  0.7735849E+02  0.7818608E-02  0.1336719E+00
          2   -1    0    0  501    0  0.00000000000E+00  0.00000000000E+00  0.64783451907E+02  0.64783451957E+02  0.25500000000E-02 0. -1.
         -1   -1    0    0    0  501 -0.00000000000E+00 -0.00000000000E+00 -0.23093611976E+02  0.23093612526E+02  0.50400000000E-02 0.  1.
         24    2    1    2    0    0  0.00000000000E+00  0.00000000000E+00  0.41689839931E+02  0.87877064483E+02  0.77358488278E+02 0.  0.
         66    2    3    3    0    0 -0.38120935572E+02 -0.95351777317E+00  0.28040104583E+02  0.47374702031E+02  0.20000006143E+01 0.  0.
        -13    1    3    3    0    0  0.38120935572E+02  0.95351777317E+00  0.13649735347E+02  0.40502362452E+02  0.10566000000E+00 0.  1.
         13    1    4    4    0    0 -0.20615830721E+02 -0.46263013886E+00  0.15079878812E+02  0.25546827826E+02  0.10566000000E+00 0. -1.
        -13    1    4    4    0    0 -0.77828448665E+01  0.38083693679E+00  0.61148374874E+01  0.99055596774E+01  0.10566000000E+00 0.  1.
        -14    1    4    4    0    0 -0.97222599852E+01 -0.87172457110E+00  0.68453882836E+01  0.11922314528E+02  0.00000000000E+00 0.  1.
<mgrwt>
<rscale>  0 0.77358488E+02</rscale>
<asrwt>0</asrwt>
<pdfrwt beam="1">  1        2 0.99666849E-02 0.77358488E+02</pdfrwt>
<pdfrwt beam="2">  1       -1 0.35528634E-02 0.77358488E+02</pdfrwt>
<totfact> 0.17356584E+05</totfact>
</mgrwt>
</event>
<event>
 8    1  0.1627221E-013  0.8089684E+02  0.7818608E-02  0.1326525E+00
         -1   -1    0    0    0  501 -0.00000000000E+00  0.00000000000E+00  0.15097659592E+02  0.15097660434E+02  0.50400000000E-02 0.  1.
          2   -1    0    0  501    0  0.00000000000E+00 -0.00000000000E+00 -0.10836609986E+03  0.10836609989E+03  0.25500000000E-02 0. -1.
         24    2    1    2    0    0  0.00000000000E+00  0.00000000000E+00 -0.93268440263E+02  0.12346376032E+03  0.80896836545E+02 0.  0.
         66    2    3    3    0    0  0.13673251200E+02 -0.12337913453E+02 -0.10158181963E+03  0.10325719338E+03  0.19999998649E+01 0.  0.
        -13    1    3    3    0    0 -0.13673251200E+02  0.12337913453E+02  0.83133793675E+01  0.20206566934E+02  0.10566000000E+00 0.  1.
         13    1    4    4    0    0  0.51384559612E+01 -0.47059654431E+01 -0.37349809604E+02  0.37994332234E+02  0.10566000000E+00 0. -1.
        -13    1    4    4    0    0  0.34352433322E+01 -0.22812246258E+01 -0.20557569367E+02  0.20967348542E+02  0.10566000000E+00 0.  1.
        -14    1    4    4    0    0  0.50995519062E+01 -0.53507233838E+01 -0.43674440659E+02  0.44295512608E+02  0.00000000000E+00 0.  1.
<mgrwt>
<rscale>  0 0.80896837E+02</rscale>
<asrwt>0</asrwt>
<pdfrwt beam="1">  1        2 0.16671707E-01 0.80896837E+02</pdfrwt>
<pdfrwt beam="2">  1       -1 0.23227170E-02 0.80896837E+02</pdfrwt>
<totfact> 0.17602280E+05</totfact>
</mgrwt>
</event>
<event>
 8    1  0.1627221E-013  0.8096544E+02  0.7818608E-02  0.1326334E+00
          2   -1    0    0  501    0  0.00000000000E+00  0.00000000000E+00  0.79273110644E+01  0.79273114745E+01  0.25500000000E-02 0. -1.
         -1   -1    0    0    0  501 -0.00000000000E+00 -0.00000000000E+00 -0.20673475377E+03  0.20673475383E+03  0.50400000000E-02 0.  1.
         24    2    1    2    0    0  0.35527136788E-14  0.35527136788E-14 -0.19880744271E+03  0.21466206531E+03  0.80965443285E+02 0.  0.
         66    2    3    3    0    0 -0.30701911820E+02  0.20557185281E+02 -0.55767078205E+02  0.66926618318E+02  0.19999929919E+01 0.  0.
        -13    1    3    3    0    0  0.30701911820E+02 -0.20557185281E+02 -0.14304036450E+03  0.14773544699E+03  0.10566000000E+00 0.  1.
         13    1    4    4    0    0 -0.40569288699E+01  0.26849304646E+01 -0.79929253956E+01  0.93576462784E+01  0.10566000000E+00 0. -1.
        -13    1    4    4    0    0 -0.95331602719E+01  0.58461329534E+01 -0.17701010799E+02  0.20937892984E+02  0.10566000000E+00 0.  1.
         14    1    4    4    0    0 -0.17111822678E+02  0.12026121863E+02 -0.30073142010E+02  0.36631079056E+02  0.00000000000E+00 0. -1.
<mgrwt>
<rscale>  0 0.80965443E+02</rscale>
<asrwt>0</asrwt>
<pdfrwt beam="1">  1        2 0.12195865E-02 0.80965443E+02</pdfrwt>
<pdfrwt beam="2">  1       -1 0.31805343E-01 0.80965443E+02</pdfrwt>
<totfact> 0.95632141E+04</totfact>
</mgrwt>
</event>
<event>
 8    1  0.1627221E-013  0.8707168E+02  0.7818608E-02  0.1310102E+00
         -1   -1    0    0    0  501 -0.00000000000E+00  0.00000000000E+00  0.12527856735E+02  0.12527857749E+02  0.50400000000E-02 0.  1.
          2   -1    0    0  501    0  0.00000000000E+00 -0.00000000000E+00 -0.15129239677E+03  0.15129239679E+03  0.25500000000E-02 0. -1.
         24    2    1    2    0    0  0.35527136788E-14  0.00000000000E+00 -0.13876454003E+03  0.16382025454E+03  0.87071684411E+02 0.  0.
         66    2    3    3    0    0 -0.28226859229E+02  0.46009000630E+01 -0.13111859043E+03  0.13421627553E+03  0.19999998782E+01 0.  0.
        -13    1    3    3    0    0  0.28226859229E+02 -0.46009000630E+01 -0.76459496032E+01  0.29603979001E+02  0.10566000000E+00 0.  1.
         13    1    4    4    0    0 -0.87732870946E+01  0.58564668054E+00 -0.40566007776E+02  0.41508140158E+02  0.10566000000E+00 0. -1.
        -13    1    4    4    0    0 -0.61191395745E+01  0.15712816543E+01 -0.28992399716E+02  0.29672937173E+02  0.10566000000E+00 0.  1.
         14    1    4    4    0    0 -0.13334432560E+02  0.24439717282E+01 -0.61560182936E+02  0.63035198204E+02  0.00000000000E+00 0. -1.
<mgrwt>
<rscale>  0 0.87071684E+02</rscale>
<asrwt>0</asrwt>
<pdfrwt beam="1">  1        2 0.23275752E-01 0.87071684E+02</pdfrwt>
<pdfrwt beam="2">  1       -1 0.19273628E-02 0.87071684E+02</pdfrwt>
<totfact> 0.16026424E+05</totfact>
</mgrwt>
</event>
<event>
 8    1  0.1627221E-013  0.7989429E+02  0.7818608E-02  0.1329352E+00
          2   -1    0    0  501    0  0.00000000000E+00  0.00000000000E+00  0.94197950870E+02  0.94197950904E+02  0.25500000000E-02 0. -1.
         -1   -1    0    0    0  501 -0.00000000000E+00 -0.00000000000E+00 -0.16940648084E+02  0.16940648834E+02  0.50400000000E-02 0.  1.
         24    2    1    2    0    0  0.17763568394E-14  0.00000000000E+00  0.77257302786E+02  0.11113859974E+03  0.79894289646E+02 0.  0.
         66    2    3    3    0    0  0.14360600440E+02  0.21027940441E+02  0.81423819770E+02  0.85336038780E+02  0.19999911034E+01 0.  0.
        -13    1    3    3    0    0 -0.14360600440E+02 -0.21027940441E+02 -0.41665169848E+01  0.25802560959E+02  0.10566000000E+00 0.  1.
         13    1    4    4    0    0  0.77360966312E+01  0.10272108037E+02  0.39520244361E+02  0.41559887788E+02  0.10566000000E+00 0. -1.
        -13    1    4    4    0    0  0.64219099861E+00  0.87679108625E+00  0.29067646982E+01  0.31050953180E+01  0.10566000000E+00 0.  1.
        -14    1    4    4    0    0  0.59823128105E+01  0.98790413177E+01  0.38996810711E+02  0.40671055673E+02  0.00000000000E+00 0.  1.
<mgrwt>
<rscale>  0 0.79894290E+02</rscale>
<asrwt>0</asrwt>
<pdfrwt beam="1">  1        2 0.14491992E-01 0.79894290E+02</pdfrwt>
<pdfrwt beam="2">  1       -1 0.26062536E-02 0.79894290E+02</pdfrwt>
<totfact> 0.17496981E+05</totfact>
</mgrwt>
</event>
<event>
 8    1  0.1627221E-013  0.7844263E+02  0.7818608E-02  0.1333530E+00
         -1   -1    0    0    0  501 -0.00000000000E+00  0.00000000000E+00  0.35487985118E+01  0.35488020907E+01  0.50400000000E-02 0.  1.
          2   -1    0    0  501    0  0.00000000000E+00 -0.00000000000E+00 -0.43347364784E+03  0.43347364785E+03  0.25500000000E-02 0. -1.
         24    2    1    2    0    0  0.00000000000E+00 -0.35527136788E-14 -0.42992484933E+03  0.43702244994E+03  0.78442626679E+02 0.  0.
         66    2    3    3    0    0 -0.13475169789E+02  0.28336786029E+02 -0.34596689393E+03  0.34739263859E+03  0.20000022761E+01 0.  0.
        -13    1    3    3    0    0  0.13475169789E+02 -0.28336786029E+02 -0.83957955401E+02  0.89629811349E+02  0.10566000000E+00 0.  1.
         13    1    4    4    0    0 -0.44211607380E+01  0.11182259964E+02 -0.12917155336E+03  0.12973006961E+03  0.10566000000E+00 0. -1.
        -13    1    4    4    0    0 -0.35945866474E+01  0.62816293265E+01 -0.83488908335E+02  0.83802081712E+02  0.10566000000E+00 0.  1.
        -14    1    4    4    0    0 -0.54594224034E+01  0.10872896738E+02 -0.13330643224E+03  0.13386048727E+03  0.00000000000E+00 0.  1.
<mgrwt>
<rscale>  0 0.78442627E+02</rscale>
<asrwt>0</asrwt>
<pdfrwt beam="1">  1        2 0.66688212E-01 0.78442627E+02</pdfrwt>
<pdfrwt beam="2">  1       -1 0.54596962E-03 0.78442627E+02</pdfrwt>
<totfact> 0.30576426E+05</totfact>
</mgrwt>
</event>
<event>
 8    1  0.1627221E-013  0.8028118E+02  0.7818608E-02  0.1328255E+00
         -1   -1    0    0    0  501 -0.00000000000E+00  0.00000000000E+00  0.62849486940E+02  0.62849487142E+02  0.50400000000E-02 0.  1.
          2   -1    0    0  501    0  0.00000000000E+00 -0.00000000000E+00 -0.25636916980E+02  0.25636917107E+02  0.25500000000E-02 0. -1.
         24    2    1    2    0    0  0.35527136788E-14 -0.35527136788E-14  0.37212569960E+02  0.88486404248E+02  0.80281183186E+02 0.  0.
         66    2    3    3    0    0  0.16250750571E+02 -0.26062215144E+02 -0.98254407180E+01  0.32308903727E+02  0.20000056019E+01 0.  0.
        -13    1    3    3    0    0 -0.16250750571E+02  0.26062215144E+02  0.47038010678E+02  0.56177500522E+02  0.10566000000E+00 0.  1.
         13    1    4    4    0    0  0.10278629912E+02 -0.16526053743E+02 -0.70496822176E+01  0.20699513728E+02  0.10566000000E+00 0. -1.
        -13    1    4    4    0    0  0.31708501308E+01 -0.45856528508E+01 -0.15979573363E+01  0.58006149936E+01  0.10566000000E+00 0.  1.
        -14    1    4    4    0    0  0.28012705278E+01 -0.49505085499E+01 -0.11778011641E+01  0.58087750046E+01  0.00000000000E+00 0.  1.
<mgrwt>
<rscale>  0 0.80281183E+02</rscale>
<asrwt>0</asrwt>
<pdfrwt beam="1">  1        2 0.39441411E-02 0.80281183E+02</pdfrwt>
<pdfrwt beam="2">  1       -1 0.96691519E-02 0.80281183E+02</pdfrwt>
<totfact> 0.12916138E+05</totfact>
</mgrwt>
</event>
<event>
 8    1  0.1627221E-013  0.7956432E+02  0.7818608E-02  0.1330292E+00
          2   -1    0    0  501    0  0.00000000000E+00  0.00000000000E+00  0.57708815054E+01  0.57708820688E+01  0.25500000000E-02 0. -1.
         -1   -1    0    0    0  501 -0.00000000000E+00 -0.00000000000E+00 -0.27424236108E+03  0.27424236112E+03  0.50400000000E-02 0.  1.
         24    2    1    2    0    0  0.71054273576E-14 -0.17763568394E-14 -0.26847147957E+03  0.28001324319E+03  0.79564320016E+02 0.  0.
         66    2    3    3    0    0 -0.32439896594E+02 -0.11520974976E+02 -0.64327585339E+02  0.72987108436E+02  0.20000017324E+01 0.  0.
        -13    1    3    3    0    0  0.32439896594E+02  0.11520974976E+02 -0.20414389423E+03  0.20702613475E+03  0.10566000000E+00 0.  1.
         13    1    4    4    0    0 -0.86872708115E+01 -0.34478206930E+01 -0.18444356753E+02  0.20677562761E+02  0.10566000000E+00 0.  1.
        -13    1    4    4    0    0 -0.10856935661E+02 -0.42602376856E+01 -0.20608845344E+02  0.23680336728E+02  0.10566000000E+00 0.  1.
         14    1    4    4    0    0 -0.12895690121E+02 -0.38129165971E+01 -0.25274383242E+02  0.28629208947E+02  0.00000000000E+00 0. -1.
<mgrwt>
<rscale>  0 0.79564320E+02</rscale>
<asrwt>0</asrwt>
<pdfrwt beam="1">  1        2 0.88782818E-03 0.79564320E+02</pdfrwt>
<pdfrwt beam="2">  1       -1 0.42191122E-01 0.79564320E+02</pdfrwt>
<totfact> 0.90786993E+04</totfact>
</mgrwt>
</event>
<event>
 8    1  0.1627221E-013  0.7675908E+02  0.7818608E-02  0.1338509E+00
         -1   -1    0    0    0  501 -0.00000000000E+00  0.00000000000E+00  0.94066917269E+01  0.94066930771E+01  0.50400000000E-02 0.  1.
          2   -1    0    0  501    0  0.00000000000E+00 -0.00000000000E+00 -0.15658948444E+03  0.15658948446E+03  0.25500000000E-02 0. -1.
         24    2    1    2    0    0 -0.35527136788E-14 -0.44408920985E-15 -0.14718279271E+03  0.16599617754E+03  0.76759080807E+02 0.  0.
         66    2    3    3    0    0  0.28527828780E+02  0.23458814090E+01 -0.12884559680E+03  0.13200200020E+03  0.20000173466E+01 0.  0.
        -13    1    3    3    0    0 -0.28527828780E+02 -0.23458814090E+01 -0.18337195916E+02  0.33994177333E+02  0.10566000000E+00 0.  1.
         13    1    4    4    0    0  0.68851284686E+01  0.91336349026E+00 -0.28211092383E+02  0.29053676606E+02  0.10566000000E+00 0. -1.
        -13    1    4    4    0    0  0.41047075058E+01  0.36291943581E+00 -0.17861461471E+02  0.18330938441E+02  0.10566000000E+00 0. -1.
         14    1    4    4    0    0  0.17537992806E+02  0.10695984829E+01 -0.82773042944E+02  0.84617385157E+02  0.00000000000E+00 0. -1.
<mgrwt>
<rscale>  0 0.76759081E+02</rscale>
<asrwt>0</asrwt>
<pdfrwt beam="1">  1        2 0.24090688E-01 0.76759081E+02</pdfrwt>
<pdfrwt beam="2">  1       -1 0.14471836E-02 0.76759081E+02</pdfrwt>
<totfact> 0.22659190E+05</totfact>
</mgrwt>
</event>
<event>
 8    1  0.1627221E-013  0.8078049E+02  0.7818608E-02  0.1326851E+00
         -1   -1    0    0    0  501 -0.00000000000E+00  0.00000000000E+00  0.68311441751E+01  0.68311460343E+01  0.50400000000E-02 0.  1.
          2   -1    0    0  501    0  0.00000000000E+00 -0.00000000000E+00 -0.23881379952E+03  0.23881379953E+03  0.25500000000E-02 0. -1.
         24    2    1    2    0    0  0.00000000000E+00  0.17763568394E-14 -0.23198265534E+03  0.24564494556E+03  0.80780485899E+02 0.  0.
         66    2    3    3    0    0 -0.16395235007E+02  0.14433523463E+02 -0.21928420629E+03  0.22037852313E+03  0.19999990496E+01 0.  0.
        -13    1    3    3    0    0  0.16395235007E+02 -0.14433523463E+02 -0.12698449050E+02  0.25266422438E+02  0.10566000000E+00 0.  1.
         13    1    4    4    0    0 -0.14776028489E+01  0.20763905669E+01 -0.23727632617E+02  0.23864333672E+02  0.10566000000E+00 0. -1.
        -13    1    4    4    0    0 -0.51144391732E+01  0.44039680285E+01 -0.69771263151E+02  0.70097023818E+02  0.10566000000E+00 0.  1.
         14    1    4    4    0    0 -0.98031929848E+01  0.79531648678E+01 -0.12578531052E+03  0.12641716564E+03  0.00000000000E+00 0. -1.
<mgrwt>
<rscale>  0 0.80780486E+02</rscale>
<asrwt>0</asrwt>
<pdfrwt beam="1">  1        2 0.36740578E-01 0.80780486E+02</pdfrwt>
<pdfrwt beam="2">  1       -1 0.10509456E-02 0.80780486E+02</pdfrwt>
<totfact> 0.22888561E+05</totfact>
</mgrwt>
</event>
<event>
 8    1  0.1627221E-013  0.7902464E+02  0.7818608E-02  0.1331842E+00
         -1   -1    0    0    0  501 -0.00000000000E+00  0.00000000000E+00  0.82376986927E+02  0.82376987081E+02  0.50400000000E-02 0.  1.
          2   -1    0    0  501    0  0.00000000000E+00 -0.00000000000E+00 -0.18952179807E+02  0.18952179979E+02  0.25500000000E-02 0. -1.
         24    2    1    2    0    0  0.00000000000E+00  0.00000000000E+00  0.63424807120E+02  0.10132916706E+03  0.79024641339E+02 0.  0.
         66    2    3    3    0    0  0.20058023311E+02 -0.13141284301E+02 -0.84939857667E+01  0.25517943705E+02  0.20000011270E+01 0.  0.
        -13    1    3    3    0    0 -0.20058023311E+02  0.13141284301E+02  0.71918792887E+02  0.75811223355E+02  0.10566000000E+00 0.  1.
         13    1    4    4    0    0  0.48842331260E+01 -0.33176545503E+01 -0.12952168706E+01  0.60457684145E+01  0.10566000000E+00 0. -1.
        -13    1    4    4    0    0  0.32841364016E+01 -0.24594646745E+01 -0.14913994667E+01  0.43669159362E+01  0.10566000000E+00 0.  1.
         14    1    4    4    0    0  0.11889653783E+02 -0.73641650760E+01 -0.57073694294E+01  0.15105259354E+02  0.00000000000E+00 0. -1.
<mgrwt>
<rscale>  0 0.79024641E+02</rscale>
<asrwt>0</asrwt>
<pdfrwt beam="1">  1        2 0.29157200E-02 0.79024641E+02</pdfrwt>
<pdfrwt beam="2">  1       -1 0.12673383E-01 0.79024641E+02</pdfrwt>
<totfact> 0.12722105E+05</totfact>
</mgrwt>
</event>
<event>
 8    1  0.1627221E-013  0.8146932E+02  0.7818608E-02  0.1324933E+00
          2   -1    0    0  501    0  0.00000000000E+00  0.00000000000E+00  0.10028120048E+03  0.10028120052E+03  0.25500000000E-02 0. -1.
         -1   -1    0    0    0  501 -0.00000000000E+00 -0.00000000000E+00 -0.16546596189E+02  0.16546596956E+02  0.50400000000E-02 0.  1.
         24    2    1    2    0    0  0.00000000000E+00  0.17763568394E-14  0.83734604296E+02  0.11682779747E+03  0.81469321256E+02 0.  0.
         66    2    3    3    0    0  0.37370275323E+02 -0.15004429670E+02  0.33331870492E+02  0.52313325249E+02  0.20000051770E+01 0.  0.
        -13    1    3    3    0    0 -0.37370275323E+02  0.15004429670E+02  0.50402733804E+02  0.64514472224E+02  0.10566000000E+00 0.  1.
         13    1    4    4    0    0  0.24452257887E+02 -0.95311143119E+01  0.20756289746E+02  0.33460271724E+02  0.10566000000E+00 0. -1.
        -13    1    4    4    0    0  0.43896517095E+01 -0.16214920236E+01  0.44849795764E+01  0.64826294318E+01  0.10566000000E+00 0.  1.
         14    1    4    4    0    0  0.85283657267E+01 -0.38518233347E+01  0.80906011698E+01  0.12370424094E+02  0.00000000000E+00 0. -1.
<mgrwt>
<rscale>  0 0.81469321E+02</rscale>
<asrwt>0</asrwt>
<pdfrwt beam="1">  1        2 0.15427877E-01 0.81469321E+02</pdfrwt>
<pdfrwt beam="2">  1       -1 0.25456303E-02 0.81469321E+02</pdfrwt>
<totfact> 0.16894809E+05</totfact>
</mgrwt>
</event>
<event>
 8    1  0.1627221E-013  0.8276821E+02  0.7818608E-02  0.1321374E+00
         -1   -1    0    0    0  501 -0.00000000000E+00  0.00000000000E+00  0.58750227724E+01  0.58750249342E+01  0.50400000000E-02 0.  1.
          2   -1    0    0  501    0  0.00000000000E+00 -0.00000000000E+00 -0.29151274200E+03  0.29151274201E+03  0.25500000000E-02 0. -1.
         24    2    1    2    0    0  0.00000000000E+00  0.17763568394E-14 -0.28563771923E+03  0.29738776695E+03  0.82768214208E+02 0.  0.
         66    2    3    3    0    0 -0.24733545495E+02  0.10669947827E+02 -0.25567035235E+03  0.25709322264E+03  0.19999990759E+01 0.  0.
        -13    1    3    3    0    0  0.24733545495E+02 -0.10669947827E+02 -0.29967366881E+02  0.40294544310E+02  0.10566000000E+00 0.  1.
         13    1    4    4    0    0 -0.13621831689E+02  0.50775548095E+01 -0.13513761848E+03  0.13591733868E+03  0.10566000000E+00 0. -1.
        -13    1    4    4    0    0 -0.36926311059E+01  0.22200753206E+01 -0.43869911313E+02  0.44081113207E+02  0.10566000000E+00 0.  1.
         14    1    4    4    0    0 -0.74190827002E+01  0.33723176968E+01 -0.76662822555E+02  0.77094770750E+02  0.00000000000E+00 0. -1.
<mgrwt>
<rscale>  0 0.82768214E+02</rscale>
<asrwt>0</asrwt>
<pdfrwt beam="1">  1        2 0.44848103E-01 0.82768214E+02</pdfrwt>
<pdfrwt beam="2">  1       -1 0.90385005E-03 0.82768214E+02</pdfrwt>
<totfact> 0.23073725E+05</totfact>
</mgrwt>
</event>
<event>
 8    1  0.1627221E-013  0.7756888E+02  0.7818608E-02  0.1336096E+00
          2   -1    0    0  501    0  0.00000000000E+00  0.00000000000E+00  0.40953965076E+02  0.40953965156E+02  0.25500000000E-02 0. -1.
         -1   -1    0    0    0  501 -0.00000000000E+00 -0.00000000000E+00 -0.36729842177E+02  0.36729842523E+02  0.50400000000E-02 0.  1.
         24    2    1    2    0    0  0.00000000000E+00  0.00000000000E+00  0.42241228992E+01  0.77683807679E+02  0.77568877530E+02 0.  0.
         66    2    3    3    0    0  0.36054198351E+02  0.91129157095E+01  0.13051058841E+02  0.39462394654E+02  0.20000008711E+01 0.  0.
        -13    1    3    3    0    0 -0.36054198351E+02 -0.91129157095E+01 -0.88269359418E+01  0.38221413025E+02  0.10566000000E+00 0.  1.
         13    1    4    4    0    0  0.23496871879E+02  0.61849575073E+01  0.93618527453E+01  0.26038666216E+02  0.10566000000E+00 0. -1.
        -13    1    4    4    0    0  0.74284440992E+00  0.23110541490E+00  0.15215274702E+00  0.79971371388E+00  0.10566000000E+00 0.  1.
         14    1    4    4    0    0  0.11814482062E+02  0.26968527873E+01  0.35370533487E+01  0.12624014724E+02  0.00000000000E+00 0. -1.
<mgrwt>
<rscale>  0 0.77568878E+02</rscale>
<asrwt>0</asrwt>
<pdfrwt beam="1">  1        2 0.63006100E-02 0.77568878E+02</pdfrwt>
<pdfrwt beam="2">  1       -1 0.56507450E-02 0.77568878E+02</pdfrwt>
<totfact> 0.15595799E+05</totfact>
</mgrwt>
</event>
<event>
 8    1  0.1627221E-013  0.8072663E+02  0.7818608E-02  0.1327002E+00
         -1   -1    0    0    0  501 -0.00000000000E+00  0.00000000000E+00  0.20290886320E+02  0.20290886946E+02  0.50400000000E-02 0.  1.
          2   -1    0    0  501    0  0.00000000000E+00 -0.00000000000E+00 -0.80292063495E+02  0.80292063535E+02  0.25500000000E-02 0. -1.
         24    2    1    2    0    0  0.00000000000E+00  0.71054273576E-14 -0.60001177174E+02  0.10058295048E+03  0.80726629220E+02 0.  0.
         66    2    3    3    0    0  0.80810869064E+01  0.35843854639E+02 -0.50760002719E+02  0.62695005824E+02  0.19999995725E+01 0.  0.
        -13    1    3    3    0    0 -0.80810869064E+01 -0.35843854639E+02 -0.92411744556E+01  0.37887944657E+02  0.10566000000E+00 0.  1.
         13    1    4    4    0    0  0.36441090528E+01  0.18438265269E+02 -0.24693961746E+02  0.31033080216E+02  0.10566000000E+00 0. -1.
        -13    1    4    4    0    0  0.13126878533E+01  0.63255470535E+01 -0.93784562332E+01  0.11388691772E+02  0.10566000000E+00 0.  1.
         14    1    4    4    0    0  0.31242900003E+01  0.11080042317E+02 -0.16687584739E+02  0.20273233836E+02  0.00000000000E+00 0. -1.
<mgrwt>
<rscale>  0 0.80726629E+02</rscale>
<asrwt>0</asrwt>
<pdfrwt beam="1">  1        2 0.12352625E-01 0.80726629E+02</pdfrwt>
<pdfrwt beam="2">  1       -1 0.31216749E-02 0.80726629E+02</pdfrwt>
<totfact> 0.16308690E+05</totfact>
</mgrwt>
</event>
<event>
 8    1  0.1627221E-013  0.6940240E+02  0.7818608E-02  0.1362137E+00
         -1   -1    0    0    0  501 -0.00000000000E+00  0.00000000000E+00  0.28969034989E+02  0.28969035428E+02  0.50400000000E-02 0.  1.
          2   -1    0    0  501    0  0.00000000000E+00 -0.00000000000E+00 -0.41567602443E+02  0.41567602521E+02  0.25500000000E-02 0. -1.
         24    2    1    2    0    0  0.00000000000E+00  0.00000000000E+00 -0.12598567453E+02  0.70536637949E+02  0.69402401912E+02 0.  0.
         66    2    3    3    0    0  0.72715921543E+00  0.21369147242E+02 -0.34045250970E+02  0.40252308465E+02  0.20000022029E+01 0.  0.
        -13    1    3    3    0    0 -0.72715921543E+00 -0.21369147242E+02  0.21446683517E+02  0.30284329483E+02  0.10566000000E+00 0.  1.
         13    1    4    4    0    0  0.13633121251E+00  0.12212023652E+02 -0.20412280907E+02  0.23787065472E+02  0.10566000000E+00 0. -1.
        -13    1    4    4    0    0  0.83629231034E+00  0.56791511989E+01 -0.87403908117E+01  0.10457425053E+02  0.10566000000E+00 0.  1.
         14    1    4    4    0    0 -0.24546430742E+00  0.34779723908E+01 -0.48925792509E+01  0.60078179403E+01  0.00000000000E+00 0. -1.
<mgrwt>
<rscale>  0 0.69402402E+02</rscale>
<asrwt>0</asrwt>
<pdfrwt beam="1">  1        2 0.63950158E-02 0.69402402E+02</pdfrwt>
<pdfrwt beam="2">  1       -1 0.44567747E-02 0.69402402E+02</pdfrwt>
<totfact> 0.21170407E+05</totfact>
</mgrwt>
</event>
<event>
 8    1  0.1627221E-013  0.7971976E+02  0.7818608E-02  0.1329849E+00
         -1   -1    0    0    0  501 -0.00000000000E+00  0.00000000000E+00  0.39901626176E+01  0.39901658006E+01  0.50400000000E-02 0.  1.
          2   -1    0    0  501    0  0.00000000000E+00 -0.00000000000E+00 -0.39818161429E+03  0.39818161430E+03  0.25500000000E-02 0. -1.
         24    2    1    2    0    0  0.00000000000E+00  0.00000000000E+00 -0.39419145168E+03  0.40217178010E+03  0.79719760011E+02 0.  0.
         66    2    3    3    0    0  0.18661496011E+02  0.27542644808E+02 -0.30774085977E+03  0.30954044242E+03  0.20000008906E+01 0.  0.
        -13    1    3    3    0    0 -0.18661496011E+02 -0.27542644808E+02 -0.86450591906E+02  0.92631337685E+02  0.10566000000E+00 0.  1.
         13    1    4    4    0    0  0.71822520503E+01  0.98695918703E+01 -0.11793296998E+03  0.11856302189E+03  0.10566000000E+00 0. -1.
        -13    1    4    4    0    0  0.33690900329E+01  0.58062651013E+01 -0.57030300118E+02  0.57424121915E+02  0.10566000000E+00 0.  1.
         14    1    4    4    0    0  0.81101539274E+01  0.11866787836E+02 -0.13277758968E+03  0.13355329861E+03  0.00000000000E+00 0. -1.
<mgrwt>
<rscale>  0 0.79719760E+02</rscale>
<asrwt>0</asrwt>
<pdfrwt beam="1">  1        2 0.61258678E-01 0.79719760E+02</pdfrwt>
<pdfrwt beam="2">  1       -1 0.61387174E-03 0.79719760E+02</pdfrwt>
<totfact> 0.28468356E+05</totfact>
</mgrwt>
</event>
<event>
 8    1  0.1627221E-013  0.7893502E+02  0.7818608E-02  0.1332101E+00
         -1   -1    0    0    0  501 -0.00000000000E+00  0.00000000000E+00  0.89784590281E+01  0.89784604426E+01  0.50400000000E-02 0.  1.
          2   -1    0    0  501    0  0.00000000000E+00 -0.00000000000E+00 -0.17349124661E+03  0.17349124663E+03  0.25500000000E-02 0. -1.
         24    2    1    2    0    0  0.71054273576E-14 -0.88817841970E-15 -0.16451278758E+03  0.18246970707E+03  0.78935015808E+02 0.  0.
         66    2    3    3    0    0  0.38071313061E+02 -0.37040606336E+01 -0.10454586045E+03  0.11134173468E+03  0.19999999927E+01 0.  0.
        -13    1    3    3    0    0 -0.38071313061E+02  0.37040606336E+01 -0.59966927128E+02  0.71127972392E+02  0.10566000000E+00 0.  1.
         13    1    4    4    0    0  0.16519845201E+02 -0.88215330330E+00 -0.43897300262E+02  0.46911273850E+02  0.10566000000E+00 0. -1.
        -13    1    4    4    0    0  0.73675558285E+01 -0.10669712092E+01 -0.21806036057E+02  0.23041998155E+02  0.10566000000E+00 0.  1.
        -14    1    4    4    0    0  0.14183912032E+02 -0.17549361210E+01 -0.38842524132E+02  0.41388462670E+02  0.00000000000E+00 0.  1.
<mgrwt>
<rscale>  0 0.78935016E+02</rscale>
<asrwt>0</asrwt>
<pdfrwt beam="1">  1        2 0.26690958E-01 0.78935016E+02</pdfrwt>
<pdfrwt beam="2">  1       -1 0.13813016E-02 0.78935016E+02</pdfrwt>
<totfact> 0.21769532E+05</totfact>
</mgrwt>
</event>
<event>
 8    1  0.1627221E-013  0.7834676E+02  0.7818608E-02  0.1333810E+00
         -1   -1    0    0    0  501 -0.00000000000E+00  0.00000000000E+00  0.20585331960E+01  0.20585393658E+01  0.50400000000E-02 0.  1.
          2   -1    0    0  501    0  0.00000000000E+00 -0.00000000000E+00 -0.74545868486E+03  0.74545868487E+03  0.25500000000E-02 0. -1.
         24    2    1    2    0    0  0.00000000000E+00  0.00000000000E+00 -0.74340015167E+03  0.74751722423E+03  0.78346761431E+02 0.  0.
         66    2    3    3    0    0 -0.17077300238E+02 -0.28505380483E+02 -0.56941272552E+03  0.57038499532E+03  0.19999993800E+01 0.  0.
        -13    1    3    3    0    0  0.17077300238E+02  0.28505380483E+02 -0.17398742614E+03  0.17713222891E+03  0.10566000000E+00 0.  1.
         13    1    4    4    0    0 -0.58362357294E+00 -0.15583853384E+01 -0.31962060460E+02  0.32005525371E+02  0.10566000000E+00 0. -1.
        -13    1    4    4    0    0 -0.39577912121E+01 -0.67339942234E+01 -0.13998572026E+03  0.14020350862E+03  0.10566000000E+00 0.  1.
         14    1    4    4    0    0 -0.12535885453E+02 -0.20213000921E+02 -0.39746494481E+03  0.39817596133E+03  0.00000000000E+00 0. -1.
<mgrwt>
<rscale>  0 0.78346761E+02</rscale>
<asrwt>0</asrwt>
<pdfrwt beam="1">  1        2 0.11468574E+00 0.78346761E+02</pdfrwt>
<pdfrwt beam="2">  1       -1 0.31669848E-03 0.78346761E+02</pdfrwt>
<totfact> 0.35799908E+05</totfact>
</mgrwt>
</event>
<event>
 8    1  0.1627221E-013  0.8164666E+02  0.7818608E-02  0.1324442E+00
          2   -1    0    0  501    0  0.00000000000E+00  0.00000000000E+00  0.12345877793E+02  0.12345878057E+02  0.25500000000E-02 0. -1.
         -1   -1    0    0    0  501 -0.00000000000E+00 -0.00000000000E+00 -0.13498792667E+03  0.13498792677E+03  0.50400000000E-02 0.  1.
         24    2    1    2    0    0  0.00000000000E+00  0.00000000000E+00 -0.12264204888E+03  0.14733380482E+03  0.81646664908E+02 0.  0.
         66    2    3    3    0    0 -0.20693027173E+02 -0.30848577420E+02 -0.30909612169E+02  0.48365692730E+02  0.20000016158E+01 0.  0.
        -13    1    3    3    0    0  0.20693027173E+02  0.30848577420E+02 -0.91732436712E+02  0.98968112094E+02  0.10566000000E+00 0.  1.
         13    1    4    4    0    0 -0.14666433011E+02 -0.21424116130E+02 -0.21415312195E+02  0.33655961874E+02  0.10566000000E+00 0. -1.
        -13    1    4    4    0    0 -0.15415380820E+01 -0.23142410074E+01 -0.29571764087E+01  0.40605550663E+01  0.10566000000E+00 0.  1.
         14    1    4    4    0    0 -0.44850560805E+01 -0.71102202822E+01 -0.65371235646E+01  0.10649175790E+02  0.00000000000E+00 0. -1.
<mgrwt>
<rscale>  0 0.81646665E+02</rscale>
<asrwt>0</asrwt>
<pdfrwt beam="1">  1        2 0.18993659E-02 0.81646665E+02</pdfrwt>
<pdfrwt beam="2">  1       -1 0.20767372E-01 0.81646665E+02</pdfrwt>
<totfact> 0.10519193E+05</totfact>
</mgrwt>
</event>
<event>
 8    1  0.1627221E-013  0.7966614E+02  0.7818608E-02  0.1330002E+00
         -1   -1    0    0    0  501 -0.00000000000E+00  0.00000000000E+00  0.10580148082E+03  0.10580148094E+03  0.50400000000E-02 0.  1.
          2   -1    0    0  501    0  0.00000000000E+00 -0.00000000000E+00 -0.14996704494E+02  0.14996704711E+02  0.25500000000E-02 0. -1.
         24    2    1    2    0    0  0.00000000000E+00  0.00000000000E+00  0.90804776325E+02  0.12079818565E+03  0.79666142451E+02 0.  0.
         66    2    3    3    0    0 -0.22050622388E+02 -0.13712290825E+02 -0.32059901778E+00  0.26045338396E+02  0.20000002667E+01 0.  0.
        -13    1    3    3    0    0  0.22050622388E+02  0.13712290825E+02  0.91125375343E+02  0.94752847254E+02  0.10566000000E+00 0.  1.
         13    1    4    4    0    0 -0.12107772169E+02 -0.68768311280E+01 -0.50811298101E+00  0.13934069617E+02  0.10566000000E+00 0.  1.
        -13    1    4    4    0    0 -0.52480089100E+01 -0.34086334444E+01  0.58024826637E+00  0.62855573789E+01  0.10566000000E+00 0. -1.
        -14    1    4    4    0    0 -0.46948413089E+01 -0.34268262526E+01 -0.39273430314E+00  0.58257113998E+01  0.00000000000E+00 0.  1.
<mgrwt>
<rscale>  0 0.79666142E+02</rscale>
<asrwt>0</asrwt>
<pdfrwt beam="1">  1        2 0.23071853E-02 0.79666142E+02</pdfrwt>
<pdfrwt beam="2">  1       -1 0.16277151E-01 0.79666142E+02</pdfrwt>
<totfact> 0.11832305E+05</totfact>
</mgrwt>
</event>
<event>
 8    1  0.1627221E-013  0.8041644E+02  0.7818608E-02  0.1327874E+00
         -1   -1    0    0    0  501 -0.00000000000E+00  0.00000000000E+00  0.16007984522E+01  0.16008063862E+01  0.50400000000E-02 0.  1.
          2   -1    0    0  501    0  0.00000000000E+00 -0.00000000000E+00 -0.10099314909E+04  0.10099314909E+04  0.25500000000E-02 0. -1.
         24    2    1    2    0    0  0.00000000000E+00  0.00000000000E+00 -0.10083306925E+04  0.10115322973E+04  0.80416435680E+02 0.  0.
         66    2    3    3    0    0 -0.24900559745E+02  0.15193292518E+02 -0.85211729914E+03  0.85261876915E+03  0.20000000524E+01 0.  0.
        -13    1    3    3    0    0  0.24900559745E+02 -0.15193292518E+02 -0.15621339335E+03  0.15891352819E+03  0.10566000000E+00 0.  1.
         13    1    4    4    0    0 -0.10786934578E+02  0.60198419058E+01 -0.38292966843E+03  0.38312887986E+03  0.10566000000E+00 0. -1.
        -13    1    4    4    0    0 -0.36017977394E+01  0.25919632136E+01 -0.11970101180E+03  0.11978328184E+03  0.10566000000E+00 0.  1.
         14    1    4    4    0    0 -0.10511827428E+02  0.65814873981E+01 -0.34948661891E+03  0.34970660744E+03  0.00000000000E+00 0. -1.
<mgrwt>
<rscale>  0 0.80416436E+02</rscale>
<asrwt>0</asrwt>
<pdfrwt beam="1">  1        2 0.15537357E+00 0.80416436E+02</pdfrwt>
<pdfrwt beam="2">  1       -1 0.24627810E-03 0.80416436E+02</pdfrwt>
<totfact> 0.34772523E+05</totfact>
</mgrwt>
</event>
<event>
 8    1  0.1627221E-013  0.8015535E+02  0.7818608E-02  0.1328611E+00
         -1   -1    0    0    0  501 -0.00000000000E+00  0.00000000000E+00  0.25769633778E+02  0.25769634271E+02  0.50400000000E-02 0.  1.
          2   -1    0    0  501    0  0.00000000000E+00 -0.00000000000E+00 -0.62329944023E+02  0.62329944076E+02  0.25500000000E-02 0. -1.
         24    2    1    2    0    0  0.35527136788E-14 -0.35527136788E-14 -0.36560310246E+02  0.88099578346E+02  0.80155345546E+02 0.  0.
         66    2    3    3    0    0 -0.20842101881E+02  0.13515282844E+02 -0.52824547442E+02  0.58407952308E+02  0.19999997971E+01 0.  0.
        -13    1    3    3    0    0  0.20842101881E+02 -0.13515282844E+02  0.16264237197E+02  0.29691626038E+02  0.10566000000E+00 0.  1.
         13    1    4    4    0    0 -0.96893042165E+01  0.67420005722E+01 -0.25170449458E+02  0.27801076919E+02  0.10566000000E+00 0. -1.
        -13    1    4    4    0    0 -0.20923193280E+01  0.73115302349E+00 -0.43197444996E+01  0.48563094518E+01  0.10566000000E+00 0.  1.
        -14    1    4    4    0    0 -0.90604783366E+01  0.60421292478E+01 -0.23334353485E+02  0.25750565937E+02  0.00000000000E+00 0.  1.
<mgrwt>
<rscale>  0 0.80155346E+02</rscale>
<asrwt>0</asrwt>
<pdfrwt beam="1">  1        2 0.95892221E-02 0.80155346E+02</pdfrwt>
<pdfrwt beam="2">  1       -1 0.39645591E-02 0.80155346E+02</pdfrwt>
<totfact> 0.15622114E+05</totfact>
</mgrwt>
</event>
<event>
 8    1  0.1627221E-013  0.8005571E+02  0.7818608E-02  0.1328893E+00
         -1   -1    0    0    0  501 -0.00000000000E+00  0.00000000000E+00  0.64863100072E+02  0.64863100268E+02  0.50400000000E-02 0.  1.
          2   -1    0    0  501    0  0.00000000000E+00 -0.00000000000E+00 -0.24701703879E+02  0.24701704010E+02  0.25500000000E-02 0. -1.
         24    2    1    2    0    0  0.00000000000E+00 -0.35527136788E-14  0.40161396193E+02  0.89564804278E+02  0.80055708236E+02 0.  0.
         66    2    3    3    0    0  0.16418398764E+02 -0.26825203487E+02 -0.75628523057E+01  0.32409135977E+02  0.19999999217E+01 0.  0.
        -13    1    3    3    0    0 -0.16418398764E+02  0.26825203487E+02  0.47724248499E+02  0.57155668301E+02  0.10566000000E+00 0.  1.
         13    1    4    4    0    0  0.88396395577E+01 -0.13017168915E+02 -0.36323779019E+01  0.16149032396E+02  0.10566000000E+00 0. -1.
        -13    1    4    4    0    0  0.50254043809E+00 -0.91247832343E+00 -0.47747662825E+00  0.11507873604E+01  0.10566000000E+00 0.  1.
         14    1    4    4    0    0  0.70762187680E+01 -0.12895556249E+02 -0.34529977756E+01  0.15109316221E+02  0.00000000000E+00 0. -1.
<mgrwt>
<rscale>  0 0.80055708E+02</rscale>
<asrwt>0</asrwt>
<pdfrwt beam="1">  1        2 0.38002622E-02 0.80055708E+02</pdfrwt>
<pdfrwt beam="2">  1       -1 0.99789384E-02 0.80055708E+02</pdfrwt>
<totfact> 0.12924140E+05</totfact>
</mgrwt>
</event>
<event>
 8    1  0.1627221E-013  0.7945342E+02  0.7818608E-02  0.1330610E+00
          2   -1    0    0  501    0  0.00000000000E+00  0.00000000000E+00  0.53024116849E+01  0.53024122981E+01  0.25500000000E-02 0. -1.
         -1   -1    0    0    0  501 -0.00000000000E+00 -0.00000000000E+00 -0.29764027162E+03  0.29764027167E+03  0.50400000000E-02 0.  1.
         24    2    1    2    0    0  0.00000000000E+00  0.00000000000E+00 -0.29233785994E+03  0.30294268396E+03  0.79453416629E+02 0.  0.
         66    2    3    3    0    0  0.36007533488E+02  0.32862039236E+01 -0.83741878873E+02  0.91236198271E+02  0.19999983865E+01 0.  0.
        -13    1    3    3    0    0 -0.36007533488E+02 -0.32862039236E+01 -0.20859598107E+03  0.21170648569E+03  0.10566000000E+00 0.  1.
         13    1    4    4    0    0  0.18672439860E+02  0.23742009796E+01 -0.43878722845E+02  0.47745683817E+02  0.10566000000E+00 0. -1.
        -13    1    4    4    0    0  0.93472225611E+01  0.86709059692E+00 -0.20717624831E+02  0.22745407413E+02  0.10566000000E+00 0.  1.
        -14    1    4    4    0    0  0.79878710671E+01  0.44912347087E-01 -0.19145531197E+02  0.20745107041E+02  0.00000000000E+00 0.  1.
<mgrwt>
<rscale>  0 0.79453417E+02</rscale>
<asrwt>0</asrwt>
<pdfrwt beam="1">  1        2 0.81575592E-03 0.79453417E+02</pdfrwt>
<pdfrwt beam="2">  1       -1 0.45790798E-01 0.79453417E+02</pdfrwt>
<totfact> 0.88245915E+04</totfact>
</mgrwt>
</event>
<event>
 8    1  0.1627221E-013  0.7931494E+02  0.7818608E-02  0.1331007E+00
         -1   -1    0    0    0  501 -0.00000000000E+00  0.00000000000E+00  0.25266197734E+02  0.25266198237E+02  0.50400000000E-02 0.  1.
          2   -1    0    0  501    0  0.00000000000E+00 -0.00000000000E+00 -0.62245805792E+02  0.62245805844E+02  0.25500000000E-02 0. -1.
         24    2    1    2    0    0  0.00000000000E+00  0.00000000000E+00 -0.36979608058E+02  0.87512004081E+02  0.79314938354E+02 0.  0.
         66    2    3    3    0    0  0.10040327052E+02 -0.28810976892E+02 -0.46410556297E+02  0.55577156257E+02  0.20000012623E+01 0.  0.
        -13    1    3    3    0    0 -0.10040327052E+02  0.28810976892E+02  0.94309482390E+01  0.31934847824E+02  0.10566000000E+00 0.  1.
         13    1    4    4    0    0  0.74972266903E+00 -0.25884869068E+01 -0.36236805094E+01  0.45171421293E+01  0.10566000000E+00 0. -1.
        -13    1    4    4    0    0  0.21695062184E+01 -0.49483488949E+01 -0.74624621353E+01  0.92137082205E+01  0.10566000000E+00 0.  1.
         14    1    4    4    0    0  0.71210981649E+01 -0.21274141091E+02 -0.35324413652E+02  0.41846305907E+02  0.00000000000E+00 0. -1.
<mgrwt>
<rscale>  0 0.79314938E+02</rscale>
<asrwt>0</asrwt>
<pdfrwt beam="1">  1        2 0.95762778E-02 0.79314938E+02</pdfrwt>
<pdfrwt beam="2">  1       -1 0.38871074E-02 0.79314938E+02</pdfrwt>
<totfact> 0.16070713E+05</totfact>
</mgrwt>
</event>
<event>
 8    1  0.1627221E-013  0.8212069E+02  0.7818608E-02  0.1323139E+00
         -1   -1    0    0    0  501 -0.00000000000E+00  0.00000000000E+00  0.30934108649E+01  0.30934149706E+01  0.50400000000E-02 0.  1.
          2   -1    0    0  501    0  0.00000000000E+00 -0.00000000000E+00 -0.54501351158E+03  0.54501351159E+03  0.25500000000E-02 0. -1.
         24    2    1    2    0    0  0.00000000000E+00 -0.71054273576E-14 -0.54192010071E+03  0.54810692656E+03  0.82120687894E+02 0.  0.
         66    2    3    3    0    0  0.38117532108E+01 -0.28454780949E+02 -0.46682309748E+03  0.46770932037E+03  0.20000000218E+01 0.  0.
        -13    1    3    3    0    0 -0.38117532108E+01  0.28454780949E+02 -0.75097003235E+02  0.80397606185E+02  0.10566000000E+00 0.  1.
         13    1    4    4    0    0  0.26928027100E+01 -0.23627660884E+02 -0.38561185046E+03  0.38634444208E+03  0.10566000000E+00 0. -1.
        -13    1    4    4    0    0  0.10267062640E+01 -0.47373630654E+01 -0.80005968482E+02  0.80152747247E+02  0.10566000000E+00 0.  1.
        -14    1    4    4    0    0  0.92244236796E-01 -0.89756999065E-01 -0.12052785389E+01  0.12121310467E+01  0.00000000000E+00 0.  1.
<mgrwt>
<rscale>  0 0.82120688E+02</rscale>
<asrwt>0</asrwt>
<pdfrwt beam="1">  1        2 0.83848156E-01 0.82120688E+02</pdfrwt>
<pdfrwt beam="2">  1       -1 0.47591012E-03 0.82120688E+02</pdfrwt>
<totfact> 0.29214463E+05</totfact>
</mgrwt>
</event>
<event>
 8    1  0.1627221E-013  0.7945304E+02  0.7818608E-02  0.1330611E+00
          2   -1    0    0  501    0  0.00000000000E+00  0.00000000000E+00  0.40921954583E+03  0.40921954584E+03  0.25500000000E-02 0. -1.
         -1   -1    0    0    0  501 -0.00000000000E+00 -0.00000000000E+00 -0.38565995043E+01  0.38566027975E+01  0.50400000000E-02 0.  1.
         24    2    1    2    0    0  0.00000000000E+00  0.71054273576E-14  0.40536294633E+03  0.41307614864E+03  0.79453044735E+02 0.  0.
         66    2    3    3    0    0  0.31317379061E+01  0.35492716529E+02  0.29385152493E+03  0.29601057310E+03  0.19999941336E+01 0.  0.
        -13    1    3    3    0    0 -0.31317379061E+01 -0.35492716529E+02  0.11151142140E+03  0.11706557553E+03  0.10566000000E+00 0.  1.
         13    1    4    4    0    0  0.86910890816E+00  0.13221414818E+02  0.10270919387E+03  0.10356037287E+03  0.10566000000E+00 0. -1.
        -13    1    4    4    0    0  0.13600499632E+01  0.10652281732E+02  0.93723295249E+02  0.94336568087E+02  0.10566000000E+00 0.  1.
         14    1    4    4    0    0  0.90257903471E+00  0.11619019979E+02  0.97419035812E+02  0.98113632145E+02  0.00000000000E+00 0. -1.
<mgrwt>
<rscale>  0 0.79453045E+02</rscale>
<asrwt>0</asrwt>
<pdfrwt beam="1">  1        2 0.62956864E-01 0.79453045E+02</pdfrwt>
<pdfrwt beam="2">  1       -1 0.59332315E-03 0.79453045E+02</pdfrwt>
<totfact> 0.28993480E+05</totfact>
</mgrwt>
</event>
<event>
 8    1  0.1627221E-013  0.8086828E+02  0.7818608E-02  0.1326605E+00
         -1   -1    0    0    0  501 -0.00000000000E+00  0.00000000000E+00  0.31324259552E+02  0.31324259957E+02  0.50400000000E-02 0.  1.
          2   -1    0    0  501    0  0.00000000000E+00 -0.00000000000E+00 -0.52193402645E+02  0.52193402707E+02  0.25500000000E-02 0. -1.
         24    2    1    2    0    0  0.00000000000E+00  0.00000000000E+00 -0.20869143093E+02  0.83517662664E+02  0.80868280824E+02 0.  0.
         66    2    3    3    0    0 -0.36612811164E+02  0.88471615023E+00 -0.28077714353E+02  0.46191327087E+02  0.19999976938E+01 0.  0.
        -13    1    3    3    0    0  0.36612811164E+02 -0.88471615023E+00  0.72085712603E+01  0.37326335577E+02  0.10566000000E+00 0.  1.
         13    1    4    4    0    0 -0.17400914826E+02  0.33541676793E+00 -0.12451065272E+02  0.21399638586E+02  0.10566000000E+00 0. -1.
        -13    1    4    4    0    0 -0.52377898263E+01  0.24452436516E+00 -0.37130683231E+01  0.64259065381E+01  0.10566000000E+00 0.  1.
         14    1    4    4    0    0 -0.13974106511E+02  0.30477501714E+00 -0.11913580759E+02  0.18365781962E+02  0.00000000000E+00 0. -1.
<mgrwt>
<rscale>  0 0.80868281E+02</rscale>
<asrwt>0</asrwt>
<pdfrwt beam="1">  1        2 0.80297542E-02 0.80868281E+02</pdfrwt>
<pdfrwt beam="2">  1       -1 0.48191169E-02 0.80868281E+02</pdfrwt>
<totfact> 0.14645080E+05</totfact>
</mgrwt>
</event>
<event>
 8    1  0.1627221E-013  0.7942314E+02  0.7818608E-02  0.1330696E+00
         -1   -1    0    0    0  501 -0.00000000000E+00  0.00000000000E+00  0.23802444290E+02  0.23802444823E+02  0.50400000000E-02 0.  1.
          2   -1    0    0  501    0  0.00000000000E+00 -0.00000000000E+00 -0.66254065457E+02  0.66254065506E+02  0.25500000000E-02 0. -1.
         24    2    1    2    0    0 -0.35527136788E-14 -0.35527136788E-14 -0.42451621168E+02  0.90056510330E+02  0.79423138398E+02 0.  0.
         66    2    3    3    0    0  0.27824620249E+02  0.27718209464E+02 -0.27702875101E+02  0.48103616478E+02  0.20000003868E+01 0.  0.
        -13    1    3    3    0    0 -0.27824620249E+02 -0.27718209464E+02 -0.14748746067E+02  0.41952893851E+02  0.10566000000E+00 0.  1.
         13    1    4    4    0    0  0.14200992764E+02  0.13870985434E+02 -0.12924728430E+02  0.23688229174E+02  0.10566000000E+00 0. -1.
        -13    1    4    4    0    0  0.91400720162E+01  0.89033705792E+01 -0.97980152177E+01  0.16087982794E+02  0.10566000000E+00 0.  1.
        -14    1    4    4    0    0  0.44835554693E+01  0.49438534511E+01 -0.49801314528E+01  0.83274045104E+01  0.00000000000E+00 0.  1.
<mgrwt>
<rscale>  0 0.79423138E+02</rscale>
<asrwt>0</asrwt>
<pdfrwt beam="1">  1        2 0.10192933E-01 0.79423138E+02</pdfrwt>
<pdfrwt beam="2">  1       -1 0.36619146E-02 0.79423138E+02</pdfrwt>
<totfact> 0.16248866E+05</totfact>
</mgrwt>
</event>
<event>
 8    1  0.1627221E-013  0.7668004E+02  0.7818608E-02  0.1338746E+00
         -1   -1    0    0    0  501 -0.00000000000E+00  0.00000000000E+00  0.10002360693E+03  0.10002360706E+03  0.50400000000E-02 0.  1.
          2   -1    0    0  501    0  0.00000000000E+00 -0.00000000000E+00 -0.14696103047E+02  0.14696103268E+02  0.25500000000E-02 0. -1.
         24    2    1    2    0    0  0.00000000000E+00  0.00000000000E+00  0.85327503883E+02  0.11471971033E+03  0.76680043155E+02 0.  0.
         66    2    3    3    0    0 -0.37433732483E+02 -0.80754111593E+01  0.40887598868E+02  0.56056153369E+02  0.19999990779E+01 0.  0.
        -13    1    3    3    0    0  0.37433732483E+02  0.80754111593E+01  0.44439905015E+02  0.58663556956E+02  0.10566000000E+00 0.  1.
         13    1    4    4    0    0 -0.24708698487E+01 -0.63616585308E+00  0.21770435792E+01  0.33556798988E+01  0.10566000000E+00 0. -1.
        -13    1    4    4    0    0 -0.24400181639E+02 -0.49147235414E+01  0.27524192056E+02  0.37109509346E+02  0.10566000000E+00 0.  1.
         14    1    4    4    0    0 -0.10562680995E+02 -0.25245217649E+01  0.11186363233E+02  0.15590964124E+02  0.00000000000E+00 0. -1.
<mgrwt>
<rscale>  0 0.76680043E+02</rscale>
<asrwt>0</asrwt>
<pdfrwt beam="1">  1        2 0.22609390E-02 0.76680043E+02</pdfrwt>
<pdfrwt beam="2">  1       -1 0.15388247E-01 0.76680043E+02</pdfrwt>
<totfact> 0.13173222E+05</totfact>
</mgrwt>
</event>
<event>
 8    1  0.1627221E-013  0.7850125E+02  0.7818608E-02  0.1333359E+00
         -1   -1    0    0    0  501 -0.00000000000E+00  0.00000000000E+00  0.10396639711E+03  0.10396639723E+03  0.50400000000E-02 0.  1.
          2   -1    0    0  501    0  0.00000000000E+00 -0.00000000000E+00 -0.14818359880E+02  0.14818360099E+02  0.25500000000E-02 0. -1.
         24    2    1    2    0    0  0.00000000000E+00 -0.88817841970E-15  0.89148037231E+02  0.11878475733E+03  0.78501248604E+02 0.  0.
         66    2    3    3    0    0  0.25306472766E+02 -0.57454347679E+01  0.94967386468E-01  0.26027612070E+02  0.19999966866E+01 0.  0.
        -13    1    3    3    0    0 -0.25306472766E+02  0.57454347679E+01  0.89053069844E+02  0.92757145262E+02  0.10566000000E+00 0.  1.
         13    1    4    4    0    0  0.36388660827E+01 -0.25755997596E+00  0.22345519138E+00  0.36563341979E+01  0.10566000000E+00 0. -1.
        -13    1    4    4    0    0  0.17808425220E+02 -0.45280413099E+01  0.24517731343E+00  0.18377008540E+02  0.10566000000E+00 0.  1.
        -14    1    4    4    0    0  0.38591814625E+01 -0.95983348213E+00 -0.37366511834E+00  0.39942693318E+01  0.00000000000E+00 0.  1.
<mgrwt>
<rscale>  0 0.78501249E+02</rscale>
<asrwt>0</asrwt>
<pdfrwt beam="1">  1        2 0.22797477E-02 0.78501249E+02</pdfrwt>
<pdfrwt beam="2">  1       -1 0.15994830E-01 0.78501249E+02</pdfrwt>
<totfact> 0.12322281E+05</totfact>
</mgrwt>
</event>
<event>
 8    1  0.1627221E-013  0.8097103E+02  0.7818608E-02  0.1326318E+00
         -1   -1    0    0    0  501 -0.00000000000E+00  0.00000000000E+00  0.26076567151E+03  0.26076567156E+03  0.50400000000E-02 0.  1.
          2   -1    0    0  501    0  0.00000000000E+00 -0.00000000000E+00 -0.62856304626E+01  0.62856309798E+01  0.25500000000E-02 0. -1.
         24    2    1    2    0    0  0.35527136788E-14  0.00000000000E+00  0.25448004104E+03  0.26705130254E+03  0.80971025039E+02 0.  0.
         66    2    3    3    0    0 -0.27653617925E+02 -0.19320272394E+02  0.53637620458E+02  0.63395503255E+02  0.19999986984E+01 0.  0.
        -13    1    3    3    0    0  0.27653617925E+02  0.19320272394E+02  0.20084242059E+03  0.20365579928E+03  0.10566000000E+00 0.  1.
         13    1    4    4    0    0 -0.14288177913E+02 -0.93043896585E+01  0.26165506593E+02  0.31230891667E+02  0.10566000000E+00 0. -1.
        -13    1    4    4    0    0 -0.29137313598E+01 -0.18412173911E+01  0.61571148023E+01  0.70569921810E+01  0.10566000000E+00 0.  1.
        -14    1    4    4    0    0 -0.10451708652E+02 -0.81746653440E+01  0.21314999063E+02  0.25107619407E+02  0.00000000000E+00 0.  1.
<mgrwt>
<rscale>  0 0.80971025E+02</rscale>
<asrwt>0</asrwt>
<pdfrwt beam="1">  1        2 0.96702008E-03 0.80971025E+02</pdfrwt>
<pdfrwt beam="2">  1       -1 0.40117797E-01 0.80971025E+02</pdfrwt>
<totfact> 0.88445546E+04</totfact>
</mgrwt>
</event>
<event>
 8    1  0.1627221E-013  0.7546083E+02  0.7818608E-02  0.1342450E+00
         -1   -1    0    0    0  501 -0.00000000000E+00  0.00000000000E+00  0.24282670673E+03  0.24282670678E+03  0.50400000000E-02 0.  1.
          2   -1    0    0  501    0  0.00000000000E+00 -0.00000000000E+00 -0.58625524200E+01  0.58625529746E+01  0.25500000000E-02 0. -1.
         24    2    1    2    0    0  0.00000000000E+00  0.00000000000E+00  0.23696415431E+03  0.24868925976E+03  0.75460834150E+02 0.  0.
         66    2    3    3    0    0 -0.15353639740E+02 -0.30157115378E+02  0.63775306797E+02  0.72225172963E+02  0.19999978083E+01 0.  0.
        -13    1    3    3    0    0  0.15353639740E+02  0.30157115378E+02  0.17318884751E+03  0.17646408679E+03  0.10566000000E+00 0.  1.
         13    1    4    4    0    0 -0.89261143832E+01 -0.18611357282E+02  0.39555302110E+02  0.44617162918E+02  0.10566000000E+00 0. -1.
        -13    1    4    4    0    0 -0.10439092721E+01 -0.24135616047E+01  0.42554851911E+01  0.50035331952E+01  0.10566000000E+00 0.  1.
         14    1    4    4    0    0 -0.53836160847E+01 -0.91321964919E+01  0.19964519496E+02  0.22604476850E+02  0.00000000000E+00 0. -1.
<mgrwt>
<rscale>  0 0.75460834E+02</rscale>
<asrwt>0</asrwt>
<pdfrwt beam="1">  1        2 0.90193123E-03 0.75460834E+02</pdfrwt>
<pdfrwt beam="2">  1       -1 0.37357953E-01 0.75460834E+02</pdfrwt>
<totfact> 0.10858873E+05</totfact>
</mgrwt>
</event>
<event>
 8    1  0.1627221E-013  0.7763426E+02  0.7818608E-02  0.1335902E+00
         -1   -1    0    0    0  501 -0.00000000000E+00  0.00000000000E+00  0.65083971508E+01  0.65083991023E+01  0.50400000000E-02 0.  1.
          2   -1    0    0  501    0  0.00000000000E+00 -0.00000000000E+00 -0.23151160063E+03  0.23151160064E+03  0.25500000000E-02 0. -1.
         24    2    1    2    0    0  0.17763568394E-14  0.00000000000E+00 -0.22500320348E+03  0.23801999975E+03  0.77634262432E+02 0.  0.
         66    2    3    3    0    0  0.14111009806E+02 -0.33486423215E+02 -0.15419844117E+03  0.15843490901E+03  0.19999992257E+01 0.  0.
        -13    1    3    3    0    0 -0.14111009806E+02  0.33486423215E+02 -0.70804762311E+02  0.79585090736E+02  0.10566000000E+00 0.  1.
         13    1    4    4    0    0  0.41161897627E+01 -0.91554301069E+01 -0.43036794646E+02  0.44192100833E+02  0.10566000000E+00 0.  1.
        -13    1    4    4    0    0  0.55785272408E+01 -0.13269370858E+02 -0.64247441334E+02  0.65840269221E+02  0.10566000000E+00 0. -1.
        -14    1    4    4    0    0  0.44162928027E+01 -0.11061622251E+02 -0.46914205188E+02  0.48402538956E+02  0.00000000000E+00 0.  1.
<mgrwt>
<rscale>  0 0.77634262E+02</rscale>
<asrwt>0</asrwt>
<pdfrwt beam="1">  1        2 0.35617163E-01 0.77634262E+02</pdfrwt>
<pdfrwt beam="2">  1       -1 0.10012922E-02 0.77634262E+02</pdfrwt>
<totfact> 0.25129191E+05</totfact>
</mgrwt>
</event>
<event>
 8    1  0.1627221E-013  0.7631558E+02  0.7818608E-02  0.1339845E+00
          2   -1    0    0  501    0  0.00000000000E+00  0.00000000000E+00  0.30359232805E+02  0.30359232912E+02  0.25500000000E-02 0. -1.
         -1   -1    0    0    0  501 -0.00000000000E+00 -0.00000000000E+00 -0.47959612162E+02  0.47959612427E+02  0.50400000000E-02 0.  1.
         24    2    1    2    0    0 -0.22204460493E-15  0.00000000000E+00 -0.17600379358E+02  0.78318845339E+02  0.76315582823E+02 0.  0.
         66    2    3    3    0    0 -0.13964421335E+01  0.15981142172E+02  0.26694684008E+02  0.31208222775E+02  0.20000146991E+01 0.  0.
        -13    1    3    3    0    0  0.13964421335E+01 -0.15981142172E+02 -0.44295063365E+02  0.47110622563E+02  0.10566000000E+00 0.  1.
         13    1    4    4    0    0 -0.24414615531E+00  0.23203109809E+01  0.47365837047E+01  0.52810831863E+01  0.10566000000E+00 0.  1.
        -13    1    4    4    0    0 -0.50448313725E+00  0.10007828466E+02  0.14955819997E+02  0.18002745614E+02  0.10566000000E+00 0. -1.
         14    1    4    4    0    0 -0.64781284095E+00  0.36530027245E+01  0.70022803064E+01  0.79243939751E+01  0.00000000000E+00 0. -1.
<mgrwt>
<rscale>  0 0.76315583E+02</rscale>
<asrwt>0</asrwt>
<pdfrwt beam="1">  1        2 0.46706512E-02 0.76315583E+02</pdfrwt>
<pdfrwt beam="2">  1       -1 0.73784019E-02 0.76315583E+02</pdfrwt>
<totfact> 0.15383059E+05</totfact>
</mgrwt>
</event>
<event>
 8    1  0.1627221E-013  0.7751621E+02  0.7818608E-02  0.1336252E+00
         -1   -1    0    0    0  501 -0.00000000000E+00  0.00000000000E+00  0.18112683315E+01  0.18112753436E+01  0.50400000000E-02 0.  1.
          2   -1    0    0  501    0  0.00000000000E+00 -0.00000000000E+00 -0.82935692831E+03  0.82935692831E+03  0.25500000000E-02 0. -1.
         24    2    1    2    0    0  0.00000000000E+00 -0.17763568394E-14 -0.82754565998E+03  0.83116820366E+03  0.77516213930E+02 0.  0.
         66    2    3    3    0    0  0.22278184953E+02 -0.13621251009E+02 -0.72078056689E+03  0.72125618307E+03  0.20000009135E+01 0.  0.
        -13    1    3    3    0    0 -0.22278184953E+02  0.13621251009E+02 -0.10676509309E+03  0.10991202059E+03  0.10566000000E+00 0.  1.
         13    1    4    4    0    0  0.10802835551E+02 -0.57980364990E+01 -0.34790425870E+03  0.34812024197E+03  0.10566000000E+00 0. -1.
        -13    1    4    4    0    0  0.67899795117E+01 -0.46675098360E+01 -0.23271263123E+03  0.23285847498E+03  0.10566000000E+00 0.  1.
        -14    1    4    4    0    0  0.46853698907E+01 -0.31557046737E+01 -0.14016367696E+03  0.14027746612E+03  0.00000000000E+00 0.  1.
<mgrwt>
<rscale>  0 0.77516214E+02</rscale>
<asrwt>0</asrwt>
<pdfrwt beam="1">  1        2 0.12759307E+00 0.77516214E+02</pdfrwt>
<pdfrwt beam="2">  1       -1 0.27865787E-03 0.77516214E+02</pdfrwt>
<totfact> 0.37515027E+05</totfact>
</mgrwt>
</event>
<event>
 8    1  0.1627221E-013  0.8137308E+02  0.7818608E-02  0.1325199E+00
          2   -1    0    0  501    0  0.00000000000E+00  0.00000000000E+00  0.29122788529E+02  0.29122788640E+02  0.25500000000E-02 0. -1.
         -1   -1    0    0    0  501 -0.00000000000E+00 -0.00000000000E+00 -0.56841890243E+02  0.56841890467E+02  0.50400000000E-02 0.  1.
         24    2    1    2    0    0  0.00000000000E+00  0.00000000000E+00 -0.27719101715E+02  0.85964679107E+02  0.81373075732E+02 0.  0.
         66    2    3    3    0    0 -0.13176649235E+02  0.27129669503E+02  0.14942662315E+02  0.33718336397E+02  0.19999999870E+01 0.  0.
        -13    1    3    3    0    0  0.13176649235E+02 -0.27129669503E+02 -0.42661764029E+02  0.52246342710E+02  0.10566000000E+00 0.  1.
         13    1    4    4    0    0 -0.77828967406E+01  0.17855771543E+02  0.96611164852E+01  0.21742823985E+02  0.10566000000E+00 0. -1.
        -13    1    4    4    0    0 -0.16705078212E+01  0.25944793606E+01  0.17918806343E+01  0.35698627111E+01  0.10566000000E+00 0.  1.
         14    1    4    4    0    0 -0.37232446735E+01  0.66794185998E+01  0.34896651950E+01  0.84056497014E+01  0.00000000000E+00 0. -1.
<mgrwt>
<rscale>  0 0.81373076E+02</rscale>
<asrwt>0</asrwt>
<pdfrwt beam="1">  1        2 0.44804290E-02 0.81373076E+02</pdfrwt>
<pdfrwt beam="2">  1       -1 0.87449062E-02 0.81373076E+02</pdfrwt>
<totfact> 0.12751782E+05</totfact>
</mgrwt>
</event>
<event>
 8    1  0.1627221E-013  0.7802481E+02  0.7818608E-02  0.1334752E+00
          2   -1    0    0  501    0  0.00000000000E+00  0.00000000000E+00  0.58242831626E+03  0.58242831626E+03  0.25500000000E-02 0. -1.
         -1   -1    0    0    0  501 -0.00000000000E+00 -0.00000000000E+00 -0.26131396061E+01  0.26131444664E+01  0.50400000000E-02 0.  1.
         24    2    1    2    0    0  0.00000000000E+00  0.17763568394E-14  0.57981517665E+03  0.58504146073E+03  0.78024814624E+02 0.  0.
         66    2    3    3    0    0  0.11802632249E+02 -0.11506665869E+02  0.55501219911E+03  0.55526052142E+03  0.19999989421E+01 0.  0.
        -13    1    3    3    0    0 -0.11802632249E+02  0.11506665869E+02  0.24802977545E+02  0.29780939316E+02  0.10566000000E+00 0.  1.
         13    1    4    4    0    0  0.81068631565E+01 -0.82400744188E+01  0.36298501417E+03  0.36316904016E+03  0.10566000000E+00 0. -1.
        -13    1    4    4    0    0  0.76035334861E+00 -0.56115776583E+00  0.45448206472E+02  0.45458152963E+02  0.10566000000E+00 0.  1.
         14    1    4    4    0    0  0.29354157435E+01 -0.27054336845E+01  0.14657897847E+03  0.14663332829E+03  0.00000000000E+00 0. -1.
<mgrwt>
<rscale>  0 0.78024815E+02</rscale>
<asrwt>0</asrwt>
<pdfrwt beam="1">  1        2 0.89604309E-01 0.78024815E+02</pdfrwt>
<pdfrwt beam="2">  1       -1 0.40202207E-03 0.78024815E+02</pdfrwt>
<totfact> 0.34036325E+05</totfact>
</mgrwt>
</event>
<event>
 8    1  0.1627221E-013  0.8049404E+02  0.7818608E-02  0.1327655E+00
          2   -1    0    0  501    0  0.00000000000E+00  0.00000000000E+00  0.17416120143E+02  0.17416120330E+02  0.25500000000E-02 0. -1.
         -1   -1    0    0    0  501 -0.00000000000E+00 -0.00000000000E+00 -0.93007089622E+02  0.93007089759E+02  0.50400000000E-02 0.  1.
         24    2    1    2    0    0  0.35527136788E-14  0.00000000000E+00 -0.75590969479E+02  0.11042321009E+03  0.80494041142E+02 0.  0.
         66    2    3    3    0    0  0.31374544369E+02  0.63278807853E+01 -0.44011425864E+01  0.32369339418E+02  0.19999921628E+01 0.  0.
        -13    1    3    3    0    0 -0.31374544369E+02 -0.63278807853E+01 -0.71189826893E+02  0.78053870671E+02  0.10566000000E+00 0.  1.
         13    1    4    4    0    0  0.12875912685E+02  0.30428367291E+01 -0.25699123159E+01  0.13478263842E+02  0.10566000000E+00 0. -1.
        -13    1    4    4    0    0  0.67894375925E+01  0.15096152798E+01 -0.84151622283E+00  0.70067620700E+01  0.10566000000E+00 0. -1.
         14    1    4    4    0    0  0.11709194091E+02  0.17754287764E+01 -0.98971404768E+00  0.11884313506E+02  0.00000000000E+00 0. -1.
<mgrwt>
<rscale>  0 0.80494041E+02</rscale>
<asrwt>0</asrwt>
<pdfrwt beam="1">  1        2 0.26794032E-02 0.80494041E+02</pdfrwt>
<pdfrwt beam="2">  1       -1 0.14308783E-01 0.80494041E+02</pdfrwt>
<totfact> 0.11853831E+05</totfact>
</mgrwt>
</event>
<event>
 8    1  0.1627221E-013  0.7970982E+02  0.7818608E-02  0.1329877E+00
         -1   -1    0    0    0  501 -0.00000000000E+00  0.00000000000E+00  0.65554982244E+01  0.65555001618E+01  0.50400000000E-02 0.  1.
          2   -1    0    0  501    0  0.00000000000E+00 -0.00000000000E+00 -0.24230249888E+03  0.24230249890E+03  0.25500000000E-02 0. -1.
         24    2    1    2    0    0 -0.17763568394E-14  0.00000000000E+00 -0.23574700066E+03  0.24885799906E+03  0.79709819820E+02 0.  0.
         66    2    3    3    0    0 -0.14995188990E+02 -0.15604744283E+02 -0.22234003766E+03  0.22339976743E+03  0.20000002395E+01 0.  0.
        -13    1    3    3    0    0  0.14995188990E+02  0.15604744283E+02 -0.13406962993E+02  0.25458231630E+02  0.10566000000E+00 0.  1.
         13    1    4    4    0    0 -0.70171642241E+01 -0.81766984235E+01 -0.10647281029E+03  0.10701667854E+03  0.10566000000E+00 0. -1.
        -13    1    4    4    0    0 -0.34266426452E+01 -0.31069498006E+01 -0.54341806181E+02  0.54538409217E+02  0.10566000000E+00 0. -1.
        -14    1    4    4    0    0 -0.45513821207E+01 -0.43210960590E+01 -0.61525421198E+02  0.61844679673E+02  0.00000000000E+00 0.  1.
<mgrwt>
<rscale>  0 0.79709820E+02</rscale>
<asrwt>0</asrwt>
<pdfrwt beam="1">  1        2 0.37277301E-01 0.79709820E+02</pdfrwt>
<pdfrwt beam="2">  1       -1 0.10085385E-02 0.79709820E+02</pdfrwt>
<totfact> 0.23829500E+05</totfact>
</mgrwt>
</event>
<event>
 8    1  0.1627221E-013  0.7996100E+02  0.7818608E-02  0.1329162E+00
         -1   -1    0    0    0  501 -0.00000000000E+00  0.00000000000E+00  0.18182416614E+02  0.18182417312E+02  0.50400000000E-02 0.  1.
          2   -1    0    0  501    0  0.00000000000E+00 -0.00000000000E+00 -0.87911325000E+02  0.87911325037E+02  0.25500000000E-02 0. -1.
         24    2    1    2    0    0  0.00000000000E+00  0.35527136788E-14 -0.69728908387E+02  0.10609374235E+03  0.79960999874E+02 0.  0.
         66    2    3    3    0    0  0.12801297578E+02 -0.28909466649E+02 -0.67299841192E+02  0.74383459899E+02  0.20000001185E+01 0.  0.
        -13    1    3    3    0    0 -0.12801297578E+02  0.28909466649E+02 -0.24290671948E+01  0.31710282450E+02  0.10566000000E+00 0.  1.
         13    1    4    4    0    0  0.36733040642E+01 -0.66081708656E+01 -0.15568816480E+02  0.17307810247E+02  0.10566000000E+00 0.  1.
        -13    1    4    4    0    0  0.38066325375E+01 -0.86293647964E+01 -0.19382363413E+02  0.21555592397E+02  0.10566000000E+00 0. -1.
        -14    1    4    4    0    0  0.53213609760E+01 -0.13671930987E+02 -0.32348661299E+02  0.35520057255E+02  0.00000000000E+00 0.  1.
<mgrwt>
<rscale>  0 0.79961000E+02</rscale>
<asrwt>0</asrwt>
<pdfrwt beam="1">  1        2 0.13524819E-01 0.79961000E+02</pdfrwt>
<pdfrwt beam="2">  1       -1 0.27972950E-02 0.79961000E+02</pdfrwt>
<totfact> 0.17135232E+05</totfact>
</mgrwt>
</event>
<event>
 8    1  0.1627221E-013  0.8148866E+02  0.7818608E-02  0.1324879E+00
         -1   -1    0    0    0  501 -0.00000000000E+00  0.00000000000E+00  0.20166216718E+01  0.20166279698E+01  0.50400000000E-02 0.  1.
          2   -1    0    0  501    0  0.00000000000E+00 -0.00000000000E+00 -0.82320734856E+03  0.82320734856E+03  0.25500000000E-02 0. -1.
         24    2    1    2    0    0 -0.17763568394E-14  0.22204460493E-15 -0.82119072689E+03  0.82522397653E+03  0.81488658836E+02 0.  0.
         66    2    3    3    0    0  0.11614056371E+02 -0.18976039603E+01 -0.80560867683E+03  0.80569710648E+03  0.19999982578E+01 0.  0.
        -13    1    3    3    0    0 -0.11614056371E+02  0.18976039603E+01 -0.15582050053E+02  0.19526870053E+02  0.10566000000E+00 0.  1.
         13    1    4    4    0    0  0.18466452810E+01 -0.29984292461E+00 -0.12744520832E+03  0.12745898278E+03  0.10566000000E+00 0. -1.
        -13    1    4    4    0    0  0.87316438801E+01 -0.92029473665E+00 -0.57100731085E+03  0.57107481888E+03  0.10566000000E+00 0.  1.
        -14    1    4    4    0    0  0.10357672100E+01 -0.67746629906E+00 -0.10715615767E+03  0.10716330482E+03  0.00000000000E+00 0.  1.
<mgrwt>
<rscale>  0 0.81488659E+02</rscale>
<asrwt>0</asrwt>
<pdfrwt beam="1">  1        2 0.12664702E+00 0.81488659E+02</pdfrwt>
<pdfrwt beam="2">  1       -1 0.31025063E-03 0.81488659E+02</pdfrwt>
<totfact> 0.32912674E+05</totfact>
</mgrwt>
</event>
<event>
 8    1  0.1627221E-013  0.8128575E+02  0.7818608E-02  0.1325442E+00
         -1   -1    0    0    0  501 -0.00000000000E+00  0.00000000000E+00  0.24600141861E+02  0.24600142378E+02  0.50400000000E-02 0.  1.
          2   -1    0    0  501    0  0.00000000000E+00 -0.00000000000E+00 -0.67147709291E+02  0.67147709340E+02  0.25500000000E-02 0. -1.
         24    2    1    2    0    0  0.00000000000E+00  0.00000000000E+00 -0.42547567430E+02  0.91747851717E+02  0.81285747832E+02 0.  0.
         66    2    3    3    0    0  0.36283872872E+02  0.58654639609E+01 -0.40801037558E+02  0.54951321599E+02  0.19999954046E+01 0.  0.
        -13    1    3    3    0    0 -0.36283872872E+02 -0.58654639609E+01 -0.17465298717E+01  0.36796530118E+02  0.10566000000E+00 0.  1.
         13    1    4    4    0    0  0.18814362186E+01  0.19662193489E+00 -0.18688374710E+01  0.26612365469E+01  0.10566000000E+00 0. -1.
        -13    1    4    4    0    0  0.91703747221E+01  0.85757326633E+00 -0.97327184095E+01  0.13400305076E+02  0.10566000000E+00 0.  1.
         14    1    4    4    0    0  0.25232061932E+02  0.48112687597E+01 -0.29199481678E+02  0.38889779977E+02  0.00000000000E+00 0. -1.
<mgrwt>
<rscale>  0 0.81285748E+02</rscale>
<asrwt>0</asrwt>
<pdfrwt beam="1">  1        2 0.10330417E-01 0.81285748E+02</pdfrwt>
<pdfrwt beam="2">  1       -1 0.37846373E-02 0.81285748E+02</pdfrwt>
<totfact> 0.15307781E+05</totfact>
</mgrwt>
</event>
<event>
 8    1  0.1627221E-013  0.7875889E+02  0.7818608E-02  0.1332611E+00
          2   -1    0    0  501    0  0.00000000000E+00  0.00000000000E+00  0.11294630545E+03  0.11294630548E+03  0.25500000000E-02 0. -1.
         -1   -1    0    0    0  501 -0.00000000000E+00 -0.00000000000E+00 -0.13729891222E+02  0.13729892147E+02  0.50400000000E-02 0.  1.
         24    2    1    2    0    0  0.11102230246E-15  0.35527136788E-14  0.99216414230E+02  0.12667619763E+03  0.78758886436E+02 0.  0.
         66    2    3    3    0    0  0.64647018525E+00  0.28547508756E+02  0.93196640401E+02  0.97493548315E+02  0.20000003123E+01 0.  0.
        -13    1    3    3    0    0 -0.64647018525E+00 -0.28547508756E+02  0.60197738296E+01  0.29182649312E+02  0.10566000000E+00 0.  1.
         13    1    4    4    0    0 -0.99399825167E-01  0.21416809113E+01  0.71027206315E+01  0.74200055159E+01  0.10566000000E+00 0.  1.
        -13    1    4    4    0    0  0.44716918177E+00  0.21353067799E+02  0.67128089070E+02  0.70443913654E+02  0.10566000000E+00 0. -1.
        -14    1    4    4    0    0  0.29870082864E+00  0.50527600462E+01  0.18965830699E+02  0.19629629145E+02  0.00000000000E+00 0.  1.
<mgrwt>
<rscale>  0 0.78758886E+02</rscale>
<asrwt>0</asrwt>
<pdfrwt beam="1">  1        2 0.17376355E-01 0.78758886E+02</pdfrwt>
<pdfrwt beam="2">  1       -1 0.21122910E-02 0.78758886E+02</pdfrwt>
<totfact> 0.19136532E+05</totfact>
</mgrwt>
</event>
<event>
 8    1  0.1627221E-013  0.7992099E+02  0.7818608E-02  0.1329276E+00
         -1   -1    0    0    0  501 -0.00000000000E+00  0.00000000000E+00  0.47540809970E+01  0.47540836686E+01  0.50400000000E-02 0.  1.
          2   -1    0    0  501    0  0.00000000000E+00 -0.00000000000E+00 -0.33588843200E+03  0.33588843201E+03  0.25500000000E-02 0. -1.
         24    2    1    2    0    0 -0.27755575616E-16  0.00000000000E+00 -0.33113435100E+03  0.34064251567E+03  0.79920992695E+02 0.  0.
         66    2    3    3    0    0 -0.10056648221E+00  0.22594888834E+02 -0.30602048360E+03  0.30686002591E+03  0.20000005804E+01 0.  0.
        -13    1    3    3    0    0  0.10056648221E+00 -0.22594888834E+02 -0.25113867398E+02  0.33782489765E+02  0.10566000000E+00 0.  1.
         13    1    4    4    0    0  0.35800394725E+00  0.12420050083E+02 -0.16445178570E+03  0.16492054692E+03  0.10566000000E+00 0. -1.
        -13    1    4    4    0    0  0.24410125002E+00  0.72848541323E+00 -0.96194973578E+01  0.96507082575E+01  0.10566000000E+00 0. -1.
         14    1    4    4    0    0 -0.70267167947E+00  0.94463533380E+01 -0.13194920054E+03  0.13228877073E+03  0.00000000000E+00 0. -1.
<mgrwt>
<rscale>  0 0.79920993E+02</rscale>
<asrwt>0</asrwt>
<pdfrwt beam="1">  1        2 0.51675125E-01 0.79920993E+02</pdfrwt>
<pdfrwt beam="2">  1       -1 0.73139755E-03 0.79920993E+02</pdfrwt>
<totfact> 0.26624142E+05</totfact>
</mgrwt>
</event>
<event>
 8    1  0.1627221E-013  0.8033657E+02  0.7818608E-02  0.1328099E+00
         -1   -1    0    0    0  501 -0.00000000000E+00  0.00000000000E+00  0.92822829295E+01  0.92822842978E+01  0.50400000000E-02 0.  1.
          2   -1    0    0  501    0  0.00000000000E+00 -0.00000000000E+00 -0.17382480030E+03  0.17382480032E+03  0.25500000000E-02 0. -1.
         24    2    1    2    0    0  0.00000000000E+00  0.35527136788E-14 -0.16454251737E+03  0.18310708462E+03  0.80336569595E+02 0.  0.
         66    2    3    3    0    0  0.33905971095E+02  0.20055365511E+02 -0.64718156538E+02  0.75790977991E+02  0.19999993786E+01 0.  0.
        -13    1    3    3    0    0 -0.33905971095E+02 -0.20055365511E+02 -0.99824360836E+02  0.10731610663E+03  0.10566000000E+00 0.  1.
         13    1    4    4    0    0  0.16529430706E+02  0.98466777904E+01 -0.31371177542E+02  0.36801373444E+02  0.10566000000E+00 0. -1.
        -13    1    4    4    0    0  0.15447092069E+02  0.92719788776E+01 -0.30521433625E+02  0.35442225103E+02  0.10566000000E+00 0.  1.
        -14    1    4    4    0    0  0.19294483200E+01  0.93670884260E+00 -0.28255453714E+01  0.35473794442E+01  0.00000000000E+00 0.  1.
<mgrwt>
<rscale>  0 0.80336570E+02</rscale>
<asrwt>0</asrwt>
<pdfrwt beam="1">  1        2 0.26742275E-01 0.80336570E+02</pdfrwt>
<pdfrwt beam="2">  1       -1 0.14280438E-02 0.80336570E+02</pdfrwt>
<totfact> 0.20792921E+05</totfact>
</mgrwt>
</event>
<event>
 8    1  0.1627221E-013  0.8014552E+02  0.7818608E-02  0.1328639E+00
         -1   -1    0    0    0  501 -0.00000000000E+00  0.00000000000E+00  0.11684843413E+02  0.11684844500E+02  0.50400000000E-02 0.  1.
          2   -1    0    0  501    0  0.00000000000E+00 -0.00000000000E+00 -0.13742812063E+03  0.13742812066E+03  0.25500000000E-02 0. -1.
         24    2    1    2    0    0  0.00000000000E+00  0.00000000000E+00 -0.12574327722E+03  0.14911296516E+03  0.80145521472E+02 0.  0.
         66    2    3    3    0    0  0.29688194652E+02  0.21617381554E+02 -0.92627980955E+02  0.99662645667E+02  0.19999996412E+01 0.  0.
        -13    1    3    3    0    0 -0.29688194652E+02 -0.21617381554E+02 -0.33115296263E+02  0.49450319489E+02  0.10566000000E+00 0.  1.
         13    1    4    4    0    0  0.13946270217E+02  0.10649120033E+02 -0.43426103706E+02  0.46837376715E+02  0.10566000000E+00 0. -1.
        -13    1    4    4    0    0  0.14519803881E+02  0.98038065362E+01 -0.44169394963E+02  0.47517217330E+02  0.10566000000E+00 0.  1.
         14    1    4    4    0    0  0.12221205540E+01  0.11644549848E+01 -0.50324822859E+01  0.53080516217E+01  0.00000000000E+00 0. -1.
<mgrwt>
<rscale>  0 0.80145521E+02</rscale>
<asrwt>0</asrwt>
<pdfrwt beam="1">  1        2 0.21142787E-01 0.80145521E+02</pdfrwt>
<pdfrwt beam="2">  1       -1 0.17976684E-02 0.80145521E+02</pdfrwt>
<totfact> 0.19386272E+05</totfact>
</mgrwt>
</event>
<event>
 8    1  0.1627221E-013  0.7811092E+02  0.7818608E-02  0.1334499E+00
          2   -1    0    0  501    0  0.00000000000E+00  0.00000000000E+00  0.71368093413E+01  0.71368097969E+01  0.25500000000E-02 0. -1.
         -1   -1    0    0    0  501 -0.00000000000E+00 -0.00000000000E+00 -0.21372702404E+03  0.21372702410E+03  0.50400000000E-02 0.  1.
         24    2    1    2    0    0  0.00000000000E+00 -0.17763568394E-14 -0.20659021470E+03  0.22086383389E+03  0.78110923142E+02 0.  0.
         66    2    3    3    0    0 -0.32578111103E+02  0.14255073329E+02 -0.57876265680E+02  0.67957358444E+02  0.19999997253E+01 0.  0.
        -13    1    3    3    0    0  0.32578111103E+02 -0.14255073329E+02 -0.14871394902E+03  0.15290647545E+03  0.10566000000E+00 0.  1.
         13    1    4    4    0    0 -0.75736367044E+01  0.28414781160E+01 -0.12853602772E+02  0.15187502726E+02  0.10566000000E+00 0. -1.
        -13    1    4    4    0    0 -0.98356938877E+01  0.41799045787E+01 -0.16273536340E+02  0.19469248203E+02  0.10566000000E+00 0.  1.
        -14    1    4    4    0    0 -0.15168780510E+02  0.72336906349E+01 -0.28749126569E+02  0.33300607515E+02  0.00000000000E+00 0.  1.
<mgrwt>
<rscale>  0 0.78110923E+02</rscale>
<asrwt>0</asrwt>
<pdfrwt beam="1">  1        2 0.10979709E-02 0.78110923E+02</pdfrwt>
<pdfrwt beam="2">  1       -1 0.32881076E-01 0.78110923E+02</pdfrwt>
<totfact> 0.10370560E+05</totfact>
</mgrwt>
</event>
<event>
 8    1  0.1627221E-013  0.8194993E+02  0.7818608E-02  0.1323607E+00
          2   -1    0    0  501    0  0.00000000000E+00  0.00000000000E+00  0.24983368638E+03  0.24983368639E+03  0.25500000000E-02 0. -1.
         -1   -1    0    0    0  501 -0.00000000000E+00 -0.00000000000E+00 -0.67202607890E+01  0.67202626789E+01  0.50400000000E-02 0.  1.
         24    2    1    2    0    0 -0.35527136788E-14  0.88817841970E-15  0.24311342559E+03  0.25655394907E+03  0.81949930334E+02 0.  0.
         66    2    3    3    0    0  0.27163820801E+02  0.40938723062E+01  0.21670439289E+03  0.21844776685E+03  0.19999986458E+01 0.  0.
        -13    1    3    3    0    0 -0.27163820801E+02 -0.40938723062E+01  0.26409032699E+02  0.38106182216E+02  0.10566000000E+00 0.  1.
         13    1    4    4    0    0  0.16732409070E+02  0.25905863335E+01  0.13826893299E+03  0.13930180776E+03  0.10566000000E+00 0. -1.
        -13    1    4    4    0    0  0.25396115204E+01  0.40142607110E+00  0.16356831707E+02  0.16558015494E+02  0.10566000000E+00 0.  1.
        -14    1    4    4    0    0  0.78918002110E+01  0.11018599016E+01  0.62078628189E+02  0.62587943596E+02  0.00000000000E+00 0.  1.
<mgrwt>
<rscale>  0 0.81949930E+02</rscale>
<asrwt>0</asrwt>
<pdfrwt beam="1">  1        2 0.38435952E-01 0.81949930E+02</pdfrwt>
<pdfrwt beam="2">  1       -1 0.10338864E-02 0.81949930E+02</pdfrwt>
<totfact> 0.22397003E+05</totfact>
</mgrwt>
</event>
<event>
 8    1  0.1627221E-013  0.7019783E+02  0.7818608E-02  0.1359422E+00
          2   -1    0    0  501    0  0.00000000000E+00  0.00000000000E+00  0.83049958368E+02  0.83049958407E+02  0.25500000000E-02 0. -1.
         -1   -1    0    0    0  501 -0.00000000000E+00 -0.00000000000E+00 -0.14833649036E+02  0.14833649892E+02  0.50400000000E-02 0.  1.
         24    2    1    2    0    0  0.17763568394E-14  0.00000000000E+00  0.68216309332E+02  0.97883608299E+02  0.70197834117E+02 0.  0.
         66    2    3    3    0    0  0.13759227929E+02 -0.16716438783E+02  0.72606287452E+02  0.75792009201E+02  0.20000005746E+01 0.  0.
        -13    1    3    3    0    0 -0.13759227929E+02  0.16716438783E+02 -0.43899781201E+01  0.22091599098E+02  0.10566000000E+00 0.  1.
         13    1    4    4    0    0  0.10091897765E+02 -0.12306719240E+02  0.53040170260E+02  0.55376642767E+02  0.10566000000E+00 0. -1.
        -13    1    4    4    0    0  0.13258380509E+00 -0.41323725762E-02  0.40480909665E+00  0.43889632284E+00  0.10566000000E+00 0.  1.
        -14    1    4    4    0    0  0.35347463590E+01 -0.44055871707E+01  0.19161308096E+02  0.19976470111E+02  0.00000000000E+00 0.  1.
<mgrwt>
<rscale>  0 0.70197834E+02</rscale>
<asrwt>0</asrwt>
<pdfrwt beam="1">  1        2 0.12776917E-01 0.70197834E+02</pdfrwt>
<pdfrwt beam="2">  1       -1 0.22821000E-02 0.70197834E+02</pdfrwt>
<totfact> 0.23892202E+05</totfact>
</mgrwt>
</event>
<event>
 8    1  0.1627221E-013  0.7862250E+02  0.7818608E-02  0.1333007E+00
          2   -1    0    0  501    0  0.00000000000E+00  0.00000000000E+00  0.36215384210E+02  0.36215384300E+02  0.25500000000E-02 0. -1.
         -1   -1    0    0    0  501 -0.00000000000E+00 -0.00000000000E+00 -0.42671760129E+02  0.42671760427E+02  0.50400000000E-02 0.  1.
         24    2    1    2    0    0  0.00000000000E+00  0.00000000000E+00 -0.64563759188E+01  0.78887144727E+02  0.78622495592E+02 0.  0.
         66    2    3    3    0    0  0.20963644325E+02 -0.31070234897E+02  0.85794533919E+01  0.38502479233E+02  0.20000016627E+01 0.  0.
        -13    1    3    3    0    0 -0.20963644325E+02  0.31070234897E+02 -0.15035829311E+02  0.40384665494E+02  0.10566000000E+00 0.  1.
         13    1    4    4    0    0  0.70400759393E+01 -0.11078020937E+02  0.23286852939E+01  0.13331134848E+02  0.10566000000E+00 0.  1.
        -13    1    4    4    0    0  0.89986467401E+01 -0.12266876008E+02  0.41996439871E+01  0.15782904162E+02  0.10566000000E+00 0. -1.
        -14    1    4    4    0    0  0.49249216456E+01 -0.77253379522E+01  0.20511241109E+01  0.93884402224E+01  0.00000000000E+00 0.  1.
<mgrwt>
<rscale>  0 0.78622496E+02</rscale>
<asrwt>0</asrwt>
<pdfrwt beam="1">  1        2 0.55715976E-02 0.78622496E+02</pdfrwt>
<pdfrwt beam="2">  1       -1 0.65648862E-02 0.78622496E+02</pdfrwt>
<totfact> 0.14658997E+05</totfact>
</mgrwt>
</event>
<event>
 8    1  0.1627221E-013  0.8008546E+02  0.7818608E-02  0.1328809E+00
         -1   -1    0    0    0  501 -0.00000000000E+00  0.00000000000E+00  0.12498963480E+01  0.12499065095E+01  0.50400000000E-02 0.  1.
          2   -1    0    0  501    0  0.00000000000E+00 -0.00000000000E+00 -0.12828374776E+04  0.12828374776E+04  0.25500000000E-02 0. -1.
         24    2    1    2    0    0  0.00000000000E+00  0.35527136788E-14 -0.12815875812E+04  0.12840873841E+04  0.80085464450E+02 0.  0.
         66    2    3    3    0    0 -0.17974461748E+02  0.14484928847E+02 -0.11653143443E+04  0.11655446861E+04  0.20000001081E+01 0.  0.
        -13    1    3    3    0    0  0.17974461748E+02 -0.14484928847E+02 -0.11627323694E+03  0.11854269793E+03  0.10566000000E+00 0.  1.
         13    1    4    4    0    0 -0.44290109750E+01  0.26268641232E+01 -0.25080819315E+03  0.25086107205E+03  0.10566000000E+00 0. -1.
        -13    1    4    4    0    0 -0.30560008120E+00  0.27306690538E+00 -0.23013924642E+02  0.23017815891E+02  0.10566000000E+00 0. -1.
         14    1    4    4    0    0 -0.13239850692E+02  0.11584997818E+02 -0.89149222648E+03  0.89166579821E+03  0.00000000000E+00 0. -1.
<mgrwt>
<rscale>  0 0.80085464E+02</rscale>
<asrwt>0</asrwt>
<pdfrwt beam="1">  1        2 0.19735856E+00 0.80085464E+02</pdfrwt>
<pdfrwt beam="2">  1       -1 0.19229356E-03 0.80085464E+02</pdfrwt>
<totfact> 0.34606780E+05</totfact>
</mgrwt>
</event>
<event>
 8    1  0.1627221E-013  0.7957262E+02  0.7818608E-02  0.1330269E+00
         -1   -1    0    0    0  501 -0.00000000000E+00  0.00000000000E+00  0.17604892119E+01  0.17604964263E+01  0.50400000000E-02 0.  1.
          2   -1    0    0  501    0  0.00000000000E+00 -0.00000000000E+00 -0.89915192354E+03  0.89915192354E+03  0.25500000000E-02 0. -1.
         24    2    1    2    0    0  0.00000000000E+00  0.00000000000E+00 -0.89739143433E+03  0.90091241997E+03  0.79572621237E+02 0.  0.
         66    2    3    3    0    0  0.18122746414E+02 -0.95806670167E+01 -0.83470809955E+03  0.83496217553E+03  0.20000004758E+01 0.  0.
        -13    1    3    3    0    0 -0.18122746414E+02  0.95806670167E+01 -0.62683334781E+02  0.65950244438E+02  0.10566000000E+00 0.  1.
         13    1    4    4    0    0  0.11046016879E+02 -0.63141774695E+01 -0.52100146112E+03  0.52115680652E+03  0.10566000000E+00 0. -1.
        -13    1    4    4    0    0  0.33631063326E+01 -0.13353845634E+01 -0.12555097989E+03  0.12560315861E+03  0.10566000000E+00 0.  1.
        -14    1    4    4    0    0  0.37136232027E+01 -0.19311049839E+01 -0.18815565853E+03  0.18820221041E+03  0.00000000000E+00 0.  1.
<mgrwt>
<rscale>  0 0.79572621E+02</rscale>
<asrwt>0</asrwt>
<pdfrwt beam="1">  1        2 0.13833070E+00 0.79572621E+02</pdfrwt>
<pdfrwt beam="2">  1       -1 0.27084577E-03 0.79572621E+02</pdfrwt>
<totfact> 0.35432207E+05</totfact>
</mgrwt>
</event>
<event>
 8    1  0.1627221E-013  0.7953655E+02  0.7818608E-02  0.1330372E+00
          2   -1    0    0  501    0  0.00000000000E+00  0.00000000000E+00  0.19764754799E+02  0.19764754964E+02  0.25500000000E-02 0. -1.
         -1   -1    0    0    0  501 -0.00000000000E+00 -0.00000000000E+00 -0.80016956190E+02  0.80016956349E+02  0.50400000000E-02 0.  1.
         24    2    1    2    0    0  0.35527136788E-14 -0.55511151231E-16 -0.60252201391E+02  0.99781711313E+02  0.79536545940E+02 0.  0.
         66    2    3    3    0    0  0.19784191490E+02 -0.17550164548E+00  0.13096769164E+02  0.23811140174E+02  0.20000000293E+01 0.  0.
        -13    1    3    3    0    0 -0.19784191490E+02  0.17550164548E+00 -0.73348970555E+02  0.75970571139E+02  0.10566000000E+00 0.  1.
         13    1    4    4    0    0  0.95763854123E+01 -0.55123213368E-01  0.67812911072E+01  0.11734874062E+02  0.10566000000E+00 0. -1.
        -13    1    4    4    0    0  0.25910039325E+01 -0.59046125118E+00  0.15182056040E+01  0.30623615330E+01  0.10566000000E+00 0.  1.
        -14    1    4    4    0    0  0.76168021450E+01  0.47008281907E+00  0.47972724526E+01  0.90139045788E+01  0.00000000000E+00 0.  1.
<mgrwt>
<rscale>  0 0.79536546E+02</rscale>
<asrwt>0</asrwt>
<pdfrwt beam="1">  1        2 0.30407316E-02 0.79536546E+02</pdfrwt>
<pdfrwt beam="2">  1       -1 0.12310301E-01 0.79536546E+02</pdfrwt>
<totfact> 0.12594482E+05</totfact>
</mgrwt>
</event>
<event>
 8    1  0.1627221E-013  0.8051936E+02  0.7818608E-02  0.1327584E+00
         -1   -1    0    0    0  501 -0.00000000000E+00  0.00000000000E+00  0.50825414193E+01  0.50825439182E+01  0.50400000000E-02 0.  1.
          2   -1    0    0  501    0  0.00000000000E+00 -0.00000000000E+00 -0.31890371817E+03  0.31890371818E+03  0.25500000000E-02 0. -1.
         24    2    1    2    0    0  0.00000000000E+00  0.22204460493E-15 -0.31382117675E+03  0.32398626210E+03  0.80519358240E+02 0.  0.
         66    2    3    3    0    0 -0.34812799370E+02 -0.19068083567E+01 -0.23780951234E+03  0.24036000301E+03  0.19999927488E+01 0.  0.
        -13    1    3    3    0    0  0.34812799370E+02  0.19068083567E+01 -0.76011664410E+02  0.83626259085E+02  0.10566000000E+00 0.  1.
         13    1    4    4    0    0 -0.13649472189E+02  0.18258517100E-01 -0.93300319347E+02  0.94293526706E+02  0.10566000000E+00 0. -1.
        -13    1    4    4    0    0 -0.33404727316E+01 -0.54640442945E+00 -0.24670210620E+02  0.24901561636E+02  0.10566000000E+00 0.  1.
         14    1    4    4    0    0 -0.17822854450E+02 -0.13786624443E+01 -0.11983898237E+03  0.12116491467E+03  0.00000000000E+00 0. -1.
<mgrwt>
<rscale>  0 0.80519358E+02</rscale>
<asrwt>0</asrwt>
<pdfrwt beam="1">  1        2 0.49062095E-01 0.80519358E+02</pdfrwt>
<pdfrwt beam="2">  1       -1 0.78192990E-03 0.80519358E+02</pdfrwt>
<totfact> 0.25625708E+05</totfact>
</mgrwt>
</event>
<event>
 8    1  0.1627221E-013  0.8416044E+02  0.7818608E-02  0.1317643E+00
          2   -1    0    0  501    0  0.00000000000E+00  0.00000000000E+00  0.79238336451E+03  0.79238336451E+03  0.25500000000E-02 0. -1.
         -1   -1    0    0    0  501 -0.00000000000E+00 -0.00000000000E+00 -0.22347043543E+01  0.22347100377E+01  0.50400000000E-02 0.  1.
         24    2    1    2    0    0 -0.17763568394E-14  0.00000000000E+00  0.79014866015E+03  0.79461807455E+03  0.84160437609E+02 0.  0.
         66    2    3    3    0    0 -0.14187392461E+02 -0.27678668388E+02  0.66257364593E+03  0.66330628450E+03  0.19999959915E+01 0.  0.
        -13    1    3    3    0    0  0.14187392461E+02  0.27678668388E+02  0.12757501422E+03  0.13131179005E+03  0.10566000000E+00 0.  1.
         13    1    4    4    0    0 -0.69637296296E+01 -0.14005324530E+02  0.32652458400E+03  0.32689900239E+03  0.10566000000E+00 0. -1.
        -13    1    4    4    0    0 -0.20116295551E+01 -0.50835736366E+01  0.12256581582E+03  0.12268773266E+03  0.10566000000E+00 0.  1.
         14    1    4    4    0    0 -0.52120332765E+01 -0.85897702217E+01  0.21348324612E+03  0.21371954945E+03  0.00000000000E+00 0. -1.
<mgrwt>
<rscale>  0 0.84160438E+02</rscale>
<asrwt>0</asrwt>
<pdfrwt beam="1">  1        2 0.12190519E+00 0.84160438E+02</pdfrwt>
<pdfrwt beam="2">  1       -1 0.34380094E-03 0.84160438E+02</pdfrwt>
<totfact> 0.30064489E+05</totfact>
</mgrwt>
</event>
<event>
 8    1  0.1627221E-013  0.8003972E+02  0.7818608E-02  0.1328939E+00
         -1   -1    0    0    0  501 -0.00000000000E+00  0.00000000000E+00  0.82048674349E+02  0.82048674504E+02  0.50400000000E-02 0.  1.
          2   -1    0    0  501    0  0.00000000000E+00 -0.00000000000E+00 -0.19519989063E+02  0.19519989229E+02  0.25500000000E-02 0. -1.
         24    2    1    2    0    0  0.00000000000E+00  0.00000000000E+00  0.62528685286E+02  0.10156866373E+03  0.80039721195E+02 0.  0.
         66    2    3    3    0    0 -0.22074960061E+02  0.29473637203E+01 -0.10872126501E+02  0.24863506477E+02  0.20000012702E+01 0.  0.
        -13    1    3    3    0    0  0.22074960061E+02 -0.29473637203E+01  0.73400811787E+02  0.76705157256E+02  0.10566000000E+00 0.  1.
         13    1    4    4    0    0 -0.58985264682E+00  0.22437492649E+00 -0.12081822107E+00  0.65117688130E+00  0.10566000000E+00 0.  1.
        -13    1    4    4    0    0 -0.46736815228E+01  0.78155702826E+00 -0.29004551216E+01  0.55567917284E+01  0.10566000000E+00 0.  1.
         14    1    4    4    0    0 -0.16811425892E+02  0.19414317656E+01 -0.78508531584E+01  0.18655537867E+02  0.00000000000E+00 0. -1.
<mgrwt>
<rscale>  0 0.80039721E+02</rscale>
<asrwt>0</asrwt>
<pdfrwt beam="1">  1        2 0.30030752E-02 0.80039721E+02</pdfrwt>
<pdfrwt beam="2">  1       -1 0.12622873E-01 0.80039721E+02</pdfrwt>
<totfact> 0.12337081E+05</totfact>
</mgrwt>
</event>
<event>
 8    1  0.1627221E-013  0.8023011E+02  0.7818608E-02  0.1328400E+00
          2   -1    0    0  501    0  0.00000000000E+00  0.00000000000E+00  0.93087355971E+02  0.93087356006E+02  0.25500000000E-02 0. -1.
         -1   -1    0    0    0  501 -0.00000000000E+00 -0.00000000000E+00 -0.17287178438E+02  0.17287179173E+02  0.50400000000E-02 0.  1.
         24    2    1    2    0    0  0.00000000000E+00  0.35527136788E-14  0.75800177533E+02  0.11037453518E+03  0.80230113435E+02 0.  0.
         66    2    3    3    0    0 -0.21373838807E+02  0.27404891089E+02  0.65415486464E+02  0.74101652559E+02  0.20000004184E+01 0.  0.
        -13    1    3    3    0    0  0.21373838807E+02 -0.27404891089E+02  0.10384691069E+02  0.36272882620E+02  0.10566000000E+00 0.  1.
         13    1    4    4    0    0 -0.13095244467E+01  0.24063930815E+01  0.53511415746E+01  0.60126085958E+01  0.10566000000E+00 0. -1.
        -13    1    4    4    0    0 -0.13555706646E+01  0.13731094553E+01  0.36767825544E+01  0.41536604809E+01  0.10566000000E+00 0.  1.
         14    1    4    4    0    0 -0.18708743695E+02  0.23625388552E+02  0.56387562335E+02  0.63935383482E+02  0.00000000000E+00 0. -1.
<mgrwt>
<rscale>  0 0.80230113E+02</rscale>
<asrwt>0</asrwt>
<pdfrwt beam="1">  1        2 0.14321132E-01 0.80230113E+02</pdfrwt>
<pdfrwt beam="2">  1       -1 0.26595660E-02 0.80230113E+02</pdfrwt>
<totfact> 0.17245173E+05</totfact>
</mgrwt>
</event>
<event>
 8    1  0.1627221E-013  0.7962842E+02  0.7818608E-02  0.1330109E+00
          2   -1    0    0  501    0  0.00000000000E+00  0.00000000000E+00  0.30160315009E+03  0.30160315010E+03  0.25500000000E-02 0. -1.
         -1   -1    0    0    0  501 -0.00000000000E+00 -0.00000000000E+00 -0.52558174189E+01  0.52558198354E+01  0.50400000000E-02 0.  1.
         24    2    1    2    0    0  0.00000000000E+00  0.00000000000E+00  0.29634733267E+03  0.30685896993E+03  0.79628423624E+02 0.  0.
         66    2    3    3    0    0  0.18395350159E+02  0.35251618883E+02  0.15385261355E+03  0.15892039592E+03  0.20000002118E+01 0.  0.
        -13    1    3    3    0    0 -0.18395350159E+02 -0.35251618883E+02  0.14249471911E+03  0.14793857401E+03  0.10566000000E+00 0.  1.
         13    1    4    4    0    0  0.13004123908E+02  0.23616575824E+02  0.10482248224E+03  0.10823406968E+03  0.10566000000E+00 0. -1.
        -13    1    4    4    0    0  0.19606064782E+00  0.86725975393E+00  0.33594911892E+01  0.34767692394E+01  0.10566000000E+00 0.  1.
        -14    1    4    4    0    0  0.51951656035E+01  0.10767783305E+02  0.45670640126E+02  0.47209557004E+02  0.00000000000E+00 0.  1.
<mgrwt>
<rscale>  0 0.79628424E+02</rscale>
<asrwt>0</asrwt>
<pdfrwt beam="1">  1        2 0.46400484E-01 0.79628424E+02</pdfrwt>
<pdfrwt beam="2">  1       -1 0.80858749E-03 0.79628424E+02</pdfrwt>
<totfact> 0.25857322E+05</totfact>
</mgrwt>
</event>
<event>
 8    1  0.1627221E-013  0.8179221E+02  0.7818608E-02  0.1324041E+00
         -1   -1    0    0    0  501 -0.00000000000E+00  0.00000000000E+00  0.21704126188E+03  0.21704126194E+03  0.50400000000E-02 0.  1.
          2   -1    0    0  501    0  0.00000000000E+00 -0.00000000000E+00 -0.77058674035E+01  0.77058678254E+01  0.25500000000E-02 0. -1.
         24    2    1    2    0    0  0.00000000000E+00  0.44408920985E-15  0.20933539447E+03  0.22474712976E+03  0.81792205964E+02 0.  0.
         66    2    3    3    0    0  0.39270869774E+02  0.26360201364E+01  0.74462514160E+02  0.84248536092E+02  0.20000008896E+01 0.  0.
        -13    1    3    3    0    0 -0.39270869774E+02 -0.26360201364E+01  0.13487288031E+03  0.14049859367E+03  0.10566000000E+00 0.  1.
         13    1    4    4    0    0  0.10781261176E+02  0.13610330370E+00  0.21746324076E+02  0.24272780878E+02  0.10566000000E+00 0. -1.
        -13    1    4    4    0    0  0.15905790387E+02  0.13145856831E+01  0.29027573666E+02  0.33126024518E+02  0.10566000000E+00 0.  1.
         14    1    4    4    0    0  0.12583818210E+02  0.11853311496E+01  0.23688616418E+02  0.26849730696E+02  0.00000000000E+00 0. -1.
<mgrwt>
<rscale>  0 0.81792206E+02</rscale>
<asrwt>0</asrwt>
<pdfrwt beam="1">  1        2 0.11855182E-02 0.81792206E+02</pdfrwt>
<pdfrwt beam="2">  1       -1 0.33390961E-01 0.81792206E+02</pdfrwt>
<totfact> 0.91768657E+04</totfact>
</mgrwt>
</event>
<event>
 8    1  0.1627221E-013  0.7997595E+02  0.7818608E-02  0.1329120E+00
         -1   -1    0    0    0  501 -0.00000000000E+00  0.00000000000E+00  0.15487044735E+02  0.15487045555E+02  0.50400000000E-02 0.  1.
          2   -1    0    0  501    0  0.00000000000E+00 -0.00000000000E+00 -0.10325004430E+03  0.10325004433E+03  0.25500000000E-02 0. -1.
         24    2    1    2    0    0  0.00000000000E+00  0.00000000000E+00 -0.87762999568E+02  0.11873708989E+03  0.79975949023E+02 0.  0.
         66    2    3    3    0    0 -0.30394173864E+02  0.30642871007E+01 -0.82161194884E+02  0.87679288291E+02  0.19999975244E+01 0.  0.
        -13    1    3    3    0    0  0.30394173864E+02 -0.30642871007E+01 -0.56018046840E+01  0.31057801598E+02  0.10566000000E+00 0.  1.
         13    1    4    4    0    0 -0.16171147903E+02  0.14022650944E+01 -0.41488882476E+02  0.44551216651E+02  0.10566000000E+00 0. -1.
        -13    1    4    4    0    0 -0.41972331361E+01  0.17465137318E+00 -0.11282656262E+02  0.12039799228E+02  0.10566000000E+00 0.  1.
        -14    1    4    4    0    0 -0.10025792825E+02  0.14873706332E+01 -0.29389656146E+02  0.31088272412E+02  0.00000000000E+00 0.  1.
<mgrwt>
<rscale>  0 0.79975949E+02</rscale>
<asrwt>0</asrwt>
<pdfrwt beam="1">  1        2 0.15884622E-01 0.79975949E+02</pdfrwt>
<pdfrwt beam="2">  1       -1 0.23826224E-02 0.79975949E+02</pdfrwt>
<totfact> 0.17900606E+05</totfact>
</mgrwt>
</event>
<event>
 8    1  0.1627221E-013  0.7975105E+02  0.7818608E-02  0.1329759E+00
         -1   -1    0    0    0  501 -0.00000000000E+00  0.00000000000E+00  0.14811341816E+02  0.14811342674E+02  0.50400000000E-02 0.  1.
          2   -1    0    0  501    0  0.00000000000E+00 -0.00000000000E+00 -0.10735404229E+03  0.10735404232E+03  0.25500000000E-02 0. -1.
         24    2    1    2    0    0  0.00000000000E+00  0.00000000000E+00 -0.92542700477E+02  0.12216538500E+03  0.79751049398E+02 0.  0.
         66    2    3    3    0    0  0.10285706000E+02 -0.26907728018E+02 -0.88480946088E+02  0.93073623488E+02  0.19999984105E+01 0.  0.
        -13    1    3    3    0    0 -0.10285706000E+02  0.26907728018E+02 -0.40617543896E+01  0.29091761510E+02  0.10566000000E+00 0.  1.
         13    1    4    4    0    0  0.11920471779E+01 -0.32541378457E+01 -0.11945600758E+02  0.12438606478E+02  0.10566000000E+00 0. -1.
        -13    1    4    4    0    0  0.16153796563E+01 -0.42954624316E+01 -0.15713063610E+02  0.16369849754E+02  0.10566000000E+00 0. -1.
         14    1    4    4    0    0  0.74782791654E+01 -0.19358127740E+02 -0.60822281720E+02  0.64265167256E+02  0.00000000000E+00 0. -1.
<mgrwt>
<rscale>  0 0.79751049E+02</rscale>
<asrwt>0</asrwt>
<pdfrwt beam="1">  1        2 0.16516006E-01 0.79751049E+02</pdfrwt>
<pdfrwt beam="2">  1       -1 0.22786681E-02 0.79751049E+02</pdfrwt>
<totfact> 0.18237562E+05</totfact>
</mgrwt>
</event>
<event>
 8    1  0.1627221E-013  0.8008499E+02  0.7818608E-02  0.1328810E+00
          2   -1    0    0  501    0  0.00000000000E+00  0.00000000000E+00  0.22268479946E+03  0.22268479947E+03  0.25500000000E-02 0. -1.
         -1   -1    0    0    0  501 -0.00000000000E+00 -0.00000000000E+00 -0.72003170100E+01  0.72003187739E+01  0.50400000000E-02 0.  1.
         24    2    1    2    0    0  0.00000000000E+00 -0.35527136788E-14  0.21548448245E+03  0.22988511824E+03  0.80084988701E+02 0.  0.
         66    2    3    3    0    0  0.28422902147E+02 -0.28131768999E+02  0.11200707640E+03  0.11894890901E+03  0.19999992960E+01 0.  0.
        -13    1    3    3    0    0 -0.28422902147E+02  0.28131768999E+02  0.10347740604E+03  0.11093620923E+03  0.10566000000E+00 0.  1.
         13    1    4    4    0    0  0.14339194848E+02 -0.13460717430E+02  0.57116150725E+02  0.60407526520E+02  0.10566000000E+00 0. -1.
        -13    1    4    4    0    0  0.39975245419E+01 -0.40221478499E+01  0.14501646383E+02  0.15571345081E+02  0.10566000000E+00 0.  1.
         14    1    4    4    0    0  0.10086182758E+02 -0.10648903720E+02  0.40389279297E+02  0.42970037412E+02  0.00000000000E+00 0. -1.
<mgrwt>
<rscale>  0 0.80084989E+02</rscale>
<asrwt>0</asrwt>
<pdfrwt beam="1">  1        2 0.34259201E-01 0.80084989E+02</pdfrwt>
<pdfrwt beam="2">  1       -1 0.11077412E-02 0.80084989E+02</pdfrwt>
<totfact> 0.22841167E+05</totfact>
</mgrwt>
</event>
<event>
 8    1  0.1627221E-013  0.8336037E+02  0.7818608E-02  0.1319777E+00
         -1   -1    0    0    0  501 -0.00000000000E+00  0.00000000000E+00  0.33886922095E+01  0.33886959575E+01  0.50400000000E-02 0.  1.
          2   -1    0    0  501    0  0.00000000000E+00 -0.00000000000E+00 -0.51265703046E+03  0.51265703047E+03  0.25500000000E-02 0. -1.
         24    2    1    2    0    0  0.00000000000E+00 -0.17763568394E-14 -0.50926833825E+03  0.51604572643E+03  0.83360370776E+02 0.  0.
         66    2    3    3    0    0 -0.22423996103E+02 -0.13983735328E+02 -0.45411691957E+03  0.45488960979E+03  0.20000005984E+01 0.  0.
        -13    1    3    3    0    0  0.22423996103E+02  0.13983735328E+02 -0.55151418685E+02  0.61156116636E+02  0.10566000000E+00 0.  1.
         13    1    4    4    0    0 -0.10822783140E+02 -0.57192857744E+01 -0.21530065921E+03  0.21564838948E+03  0.10566000000E+00 0. -1.
        -13    1    4    4    0    0 -0.32129883215E+01 -0.25509800062E+01 -0.69293384505E+02  0.69414804567E+02  0.10566000000E+00 0.  1.
         14    1    4    4    0    0 -0.83882246420E+01 -0.57134695477E+01 -0.16952287585E+03  0.16982641574E+03  0.00000000000E+00 0. -1.
<mgrwt>
<rscale>  0 0.83360371E+02</rscale>
<asrwt>0</asrwt>
<pdfrwt beam="1">  1        2 0.78870251E-01 0.83360371E+02</pdfrwt>
<pdfrwt beam="2">  1       -1 0.52133796E-03 0.83360371E+02</pdfrwt>
<totfact> 0.27566717E+05</totfact>
</mgrwt>
</event>
<event>
 8    1  0.1627221E-013  0.8114693E+02  0.7818608E-02  0.1325828E+00
          2   -1    0    0  501    0  0.00000000000E+00  0.00000000000E+00  0.73631049478E+03  0.73631049479E+03  0.25500000000E-02 0. -1.
         -1   -1    0    0    0  501 -0.00000000000E+00 -0.00000000000E+00 -0.22357467498E+01  0.22357524306E+01  0.50400000000E-02 0.  1.
         24    2    1    2    0    0 -0.17763568394E-14  0.00000000000E+00  0.73407474803E+03  0.73854624722E+03  0.81146925880E+02 0.  0.
         66    2    3    3    0    0  0.97571338842E+01  0.13681735703E+02  0.70312396325E+03  0.70332759028E+03  0.20000014187E+01 0.  0.
        -13    1    3    3    0    0 -0.97571338842E+01 -0.13681735703E+02  0.30950784785E+02  0.35218656935E+02  0.10566000000E+00 0.  1.
         13    1    4    4    0    0  0.17712786624E+01  0.23260905404E+01  0.12366635247E+03  0.12370095401E+03  0.10566000000E+00 0. -1.
        -13    1    4    4    0    0  0.69236960697E+01  0.88457391542E+01  0.44845388297E+03  0.44859456192E+03  0.10566000000E+00 0.  1.
        -14    1    4    4    0    0  0.10621591521E+01  0.25099060081E+01  0.13100372780E+03  0.13103207435E+03  0.00000000000E+00 0.  1.
<mgrwt>
<rscale>  0 0.81146926E+02</rscale>
<asrwt>0</asrwt>
<pdfrwt beam="1">  1        2 0.11327845E+00 0.81146926E+02</pdfrwt>
<pdfrwt beam="2">  1       -1 0.34396176E-03 0.81146926E+02</pdfrwt>
<totfact> 0.32595260E+05</totfact>
</mgrwt>
</event>
<event>
 8    1  0.1627221E-013  0.8141877E+02  0.7818608E-02  0.1325073E+00
         -1   -1    0    0    0  501 -0.00000000000E+00  0.00000000000E+00  0.33753531475E+01  0.33753569103E+01  0.50400000000E-02 0.  1.
          2   -1    0    0  501    0  0.00000000000E+00 -0.00000000000E+00 -0.49098652254E+03  0.49098652255E+03  0.25500000000E-02 0. -1.
         24    2    1    2    0    0  0.00000000000E+00  0.00000000000E+00 -0.48761116939E+03  0.49436187946E+03  0.81418765306E+02 0.  0.
         66    2    3    3    0    0 -0.53633090684E+01  0.30988270905E+02 -0.40067296896E+03  0.40191027116E+03  0.19999982091E+01 0.  0.
        -13    1    3    3    0    0  0.53633090684E+01 -0.30988270905E+02 -0.86938200436E+02  0.92451608299E+02  0.10566000000E+00 0.  1.
         13    1    4    4    0    0 -0.90951047394E+00  0.76842745488E+01 -0.97289750604E+02  0.97597038999E+02  0.10566000000E+00 0. -1.
        -13    1    4    4    0    0 -0.10643302153E+00  0.25178198696E+01 -0.35693480676E+02  0.35782488338E+02  0.10566000000E+00 0.  1.
        -14    1    4    4    0    0 -0.43473655729E+01  0.20786176486E+02 -0.26768973768E+03  0.26853074382E+03  0.00000000000E+00 0.  1.
<mgrwt>
<rscale>  0 0.81418765E+02</rscale>
<asrwt>0</asrwt>
<pdfrwt beam="1">  1        2 0.75536331E-01 0.81418765E+02</pdfrwt>
<pdfrwt beam="2">  1       -1 0.51928578E-03 0.81418765E+02</pdfrwt>
<totfact> 0.28917323E+05</totfact>
</mgrwt>
</event>
<event>
 8    1  0.1627221E-013  0.8148296E+02  0.7818608E-02  0.1324895E+00
          2   -1    0    0  501    0  0.00000000000E+00  0.00000000000E+00  0.27655755511E+03  0.27655755512E+03  0.25500000000E-02 0. -1.
         -1   -1    0    0    0  501 -0.00000000000E+00 -0.00000000000E+00 -0.60018890114E+01  0.60018911276E+01  0.50400000000E-02 0.  1.
         24    2    1    2    0    0  0.00000000000E+00  0.00000000000E+00  0.27055566610E+03  0.28255944625E+03  0.81482956541E+02 0.  0.
         66    2    3    3    0    0  0.33983611782E+02  0.65569371151E+00  0.21309677281E+03  0.21579979237E+03  0.20000003493E+01 0.  0.
        -13    1    3    3    0    0 -0.33983611782E+02 -0.65569371151E+00  0.57458893291E+02  0.66759653880E+02  0.10566000000E+00 0.  1.
         13    1    4    4    0    0  0.24012478205E+02  0.32095217987E-01  0.15135596706E+03  0.15324894802E+03  0.10566000000E+00 0. -1.
        -13    1    4    4    0    0  0.44890726985E+01  0.45043667820E+00  0.25243838090E+02  0.25644047895E+02  0.10566000000E+00 0.  1.
         14    1    4    4    0    0  0.54820608788E+01  0.17316181532E+00  0.36496967660E+02  0.36906796459E+02  0.00000000000E+00 0. -1.
<mgrwt>
<rscale>  0 0.81482957E+02</rscale>
<asrwt>0</asrwt>
<pdfrwt beam="1">  1        2 0.42547312E-01 0.81482957E+02</pdfrwt>
<pdfrwt beam="2">  1       -1 0.92336779E-03 0.81482957E+02</pdfrwt>
<totfact> 0.23587870E+05</totfact>
</mgrwt>
</event>
<event>
 8    1  0.1627221E-013  0.7732502E+02  0.7818608E-02  0.1336819E+00
         -1   -1    0    0    0  501 -0.00000000000E+00  0.00000000000E+00  0.34197758034E+02  0.34197758406E+02  0.50400000000E-02 0.  1.
          2   -1    0    0  501    0  0.00000000000E+00 -0.00000000000E+00 -0.43710171052E+02  0.43710171127E+02  0.25500000000E-02 0. -1.
         24    2    1    2    0    0  0.00000000000E+00  0.88817841970E-15 -0.95124130181E+01  0.77907929532E+02  0.77325024944E+02 0.  0.
         66    2    3    3    0    0  0.13592689844E+02 -0.51204369981E+01 -0.40831572874E+02  0.43384299504E+02  0.20000019750E+01 0.  0.
        -13    1    3    3    0    0 -0.13592689844E+02  0.51204369981E+01  0.31319159856E+02  0.34523630028E+02  0.10566000000E+00 0.  1.
         13    1    4    4    0    0  0.28867298188E+01 -0.97629461197E+00 -0.72617431297E+01  0.78759404221E+01  0.10566000000E+00 0. -1.
        -13    1    4    4    0    0  0.13835131215E+01 -0.66000250890E-01 -0.44623194821E+01  0.46735343999E+01  0.10566000000E+00 0.  1.
        -14    1    4    4    0    0  0.93224469033E+01 -0.40781421352E+01 -0.29107510262E+02  0.30834824682E+02  0.00000000000E+00 0.  1.
<mgrwt>
<rscale>  0 0.77325025E+02</rscale>
<asrwt>0</asrwt>
<pdfrwt beam="1">  1        2 0.67246417E-02 0.77325025E+02</pdfrwt>
<pdfrwt beam="2">  1       -1 0.52611936E-02 0.77325025E+02</pdfrwt>
<totfact> 0.15941960E+05</totfact>
</mgrwt>
</event>
<event>
 8    1  0.1627221E-013  0.7845375E+02  0.7818608E-02  0.1333498E+00
         -1   -1    0    0    0  501 -0.00000000000E+00  0.00000000000E+00  0.12109767930E+01  0.12109872810E+01  0.50400000000E-02 0.  1.
          2   -1    0    0  501    0  0.00000000000E+00 -0.00000000000E+00 -0.12706610311E+04  0.12706610311E+04  0.25500000000E-02 0. -1.
         24    2    1    2    0    0  0.00000000000E+00  0.17763568394E-14 -0.12694500543E+04  0.12718720184E+04  0.78453749222E+02 0.  0.
         66    2    3    3    0    0  0.83832834831E+00  0.15599415786E+02 -0.12180151976E+04  0.12181170166E+04  0.19999998261E+01 0.  0.
        -13    1    3    3    0    0 -0.83832834831E+00 -0.15599415786E+02 -0.51434856696E+02  0.53755001764E+02  0.10566000000E+00 0.  1.
         13    1    4    4    0    0 -0.11811470709E+00  0.57517667892E+01 -0.39403190571E+03  0.39407391521E+03  0.10566000000E+00 0.  1.
        -13    1    4    4    0    0  0.84438957809E+00  0.78270198719E+01 -0.62757140179E+03  0.62762078578E+03  0.10566000000E+00 0. -1.
         14    1    4    4    0    0  0.11205347731E+00  0.20206291248E+01 -0.19641189009E+03  0.19642231560E+03  0.00000000000E+00 0. -1.
<mgrwt>
<rscale>  0 0.78453749E+02</rscale>
<asrwt>0</asrwt>
<pdfrwt beam="1">  1        2 0.19548525E+00 0.78453749E+02</pdfrwt>
<pdfrwt beam="2">  1       -1 0.18630595E-03 0.78453749E+02</pdfrwt>
<totfact> 0.36565714E+05</totfact>
</mgrwt>
</event>
<event>
 8    1  0.1627221E-013  0.7981298E+02  0.7818608E-02  0.1329583E+00
         -1   -1    0    0    0  501 -0.00000000000E+00  0.00000000000E+00  0.13758203953E+02  0.13758204876E+02  0.50400000000E-02 0.  1.
          2   -1    0    0  501    0  0.00000000000E+00 -0.00000000000E+00 -0.11575113945E+03  0.11575113947E+03  0.25500000000E-02 0. -1.
         24    2    1    2    0    0  0.00000000000E+00  0.00000000000E+00 -0.10199293549E+03  0.12950934435E+03  0.79812977538E+02 0.  0.
         66    2    3    3    0    0 -0.11312520393E+02  0.27445469688E+02 -0.94244080086E+02  0.98829011102E+02  0.19999700551E+01 0.  0.
        -13    1    3    3    0    0  0.11312520393E+02 -0.27445469688E+02 -0.77488554065E+01  0.30680333247E+02  0.10566000000E+00 0.  1.
         13    1    4    4    0    0 -0.38065739164E+01  0.75201389241E+01 -0.28411713542E+02  0.29635774409E+02  0.10566000000E+00 0. -1.
        -13    1    4    4    0    0 -0.34173284247E+00  0.81979366859E+00 -0.25181441400E+01  0.26722756108E+01  0.10566000000E+00 0. -1.
         14    1    4    4    0    0 -0.71642136339E+01  0.19105537095E+02 -0.63314222404E+02  0.66520961082E+02  0.00000000000E+00 0. -1.
<mgrwt>
<rscale>  0 0.79812978E+02</rscale>
<asrwt>0</asrwt>
<pdfrwt beam="1">  1        2 0.17807867E-01 0.79812978E+02</pdfrwt>
<pdfrwt beam="2">  1       -1 0.21166469E-02 0.79812978E+02</pdfrwt>
<totfact> 0.18603259E+05</totfact>
</mgrwt>
</event>
<event>
 8    1  0.1627221E-013  0.7842687E+02  0.7818608E-02  0.1333576E+00
          2   -1    0    0  501    0  0.00000000000E+00  0.00000000000E+00  0.68221882867E+03  0.68221882867E+03  0.25500000000E-02 0. -1.
         -1   -1    0    0    0  501 -0.00000000000E+00 -0.00000000000E+00 -0.22539567494E+01  0.22539623843E+01  0.50400000000E-02 0.  1.
         24    2    1    2    0    0 -0.17763568394E-14 -0.35527136788E-14  0.67996487192E+03  0.68447279106E+03  0.78426874566E+02 0.  0.
         66    2    3    3    0    0 -0.97431690886E+01  0.26079661461E+02  0.58090091664E+03  0.58157110747E+03  0.20000009265E+01 0.  0.
        -13    1    3    3    0    0  0.97431690886E+01 -0.26079661461E+02  0.99063955280E+02  0.10290168359E+03  0.10566000000E+00 0.  1.
         13    1    4    4    0    0 -0.18625469306E+00  0.40858634171E+00  0.67468027445E+01  0.67625546148E+01  0.10566000000E+00 0.  1.
        -13    1    4    4    0    0 -0.20682448652E+01  0.69152811234E+01  0.14553327017E+03  0.14571219111E+03  0.10566000000E+00 0. -1.
         14    1    4    4    0    0 -0.74886695303E+01  0.18755793996E+02  0.42862084373E+03  0.42909636174E+03  0.00000000000E+00 0. -1.
<mgrwt>
<rscale>  0 0.78426875E+02</rscale>
<asrwt>0</asrwt>
<pdfrwt beam="1">  1        2 0.10495692E+00 0.78426875E+02</pdfrwt>
<pdfrwt beam="2">  1       -1 0.34676243E-03 0.78426875E+02</pdfrwt>
<totfact> 0.35011541E+05</totfact>
</mgrwt>
</event>
<event>
 8    1  0.1627221E-013  0.7579989E+02  0.7818608E-02  0.1341412E+00
          2   -1    0    0  501    0  0.00000000000E+00  0.00000000000E+00  0.82931661673E+03  0.82931661673E+03  0.25500000000E-02 0. -1.
         -1   -1    0    0    0  501 -0.00000000000E+00 -0.00000000000E+00 -0.17320317266E+01  0.17320390595E+01  0.50400000000E-02 0.  1.
         24    2    1    2    0    0  0.17763568394E-14  0.00000000000E+00  0.82758458500E+03  0.83104865579E+03  0.75799887605E+02 0.  0.
         66    2    3    3    0    0 -0.13810456482E+02 -0.63308066076E+01  0.79444208823E+03  0.79458985607E+03  0.20000010828E+01 0.  0.
        -13    1    3    3    0    0  0.13810456482E+02  0.63308066076E+01  0.33142496772E+02  0.36458799718E+02  0.10566000000E+00 0.  1.
         13    1    4    4    0    0 -0.42406586359E+01 -0.13525857635E+01  0.25478881157E+03  0.25482771109E+03  0.10566000000E+00 0. -1.
        -13    1    4    4    0    0 -0.29494979698E+01 -0.17271354655E+01  0.14882698626E+03  0.14886626729E+03  0.10566000000E+00 0.  1.
         14    1    4    4    0    0 -0.66202998764E+01 -0.32510853785E+01  0.39082629041E+03  0.39089587769E+03  0.00000000000E+00 0. -1.
<mgrwt>
<rscale>  0 0.75799888E+02</rscale>
<asrwt>0</asrwt>
<pdfrwt beam="1">  1        2 0.12758717E+00 0.75799888E+02</pdfrwt>
<pdfrwt beam="2">  1       -1 0.26646699E-03 0.75799888E+02</pdfrwt>
<totfact> 0.39751001E+05</totfact>
</mgrwt>
</event>
<event>
 8    1  0.1627221E-013  0.8033655E+02  0.7818608E-02  0.1328099E+00
          2   -1    0    0  501    0  0.00000000000E+00  0.00000000000E+00  0.20947775980E+03  0.20947775982E+03  0.25500000000E-02 0. -1.
         -1   -1    0    0    0  501 -0.00000000000E+00 -0.00000000000E+00 -0.77024419846E+01  0.77024436335E+01  0.50400000000E-02 0.  1.
         24    2    1    2    0    0  0.71054273576E-14  0.17763568394E-14  0.20177531782E+03  0.21718020345E+03  0.80336553889E+02 0.  0.
         66    2    3    3    0    0  0.32982900971E+02  0.10636323534E+02  0.15572146945E+03  0.15954365907E+03  0.19999916642E+01 0.  0.
        -13    1    3    3    0    0 -0.32982900971E+02 -0.10636323534E+02  0.46053848364E+02  0.57636544379E+02  0.10566000000E+00 0.  1.
         13    1    4    4    0    0  0.11287346621E+02  0.31968757178E+01  0.49618908889E+02  0.50986973743E+02  0.10566000000E+00 0. -1.
        -13    1    4    4    0    0  0.18802119422E+02  0.63797693317E+01  0.93156397551E+02  0.95248867291E+02  0.10566000000E+00 0.  1.
         14    1    4    4    0    0  0.28934349277E+01  0.10596784845E+01  0.12946163012E+02  0.13307818037E+02  0.00000000000E+00 0. -1.
<mgrwt>
<rscale>  0 0.80336554E+02</rscale>
<asrwt>0</asrwt>
<pdfrwt beam="1">  1        2 0.32227346E-01 0.80336554E+02</pdfrwt>
<pdfrwt beam="2">  1       -1 0.11849913E-02 0.80336554E+02</pdfrwt>
<totfact> 0.22170812E+05</totfact>
</mgrwt>
</event>
<event>
 8    1  0.1627221E-013  0.7439095E+02  0.7818608E-02  0.1345768E+00
         -1   -1    0    0    0  501 -0.00000000000E+00  0.00000000000E+00  0.39136921159E+02  0.39136921483E+02  0.50400000000E-02 0.  1.
          2   -1    0    0  501    0  0.00000000000E+00 -0.00000000000E+00 -0.35350334210E+02  0.35350334302E+02  0.25500000000E-02 0. -1.
         24    2    1    2    0    0  0.00000000000E+00 -0.35527136788E-14  0.37865869492E+01  0.74487255785E+02  0.74390947256E+02 0.  0.
         66    2    3    3    0    0  0.27280068002E+01 -0.19562834604E+02 -0.29631845215E+02  0.35667811028E+02  0.19999934651E+01 0.  0.
        -13    1    3    3    0    0 -0.27280068002E+01  0.19562834604E+02  0.33418432164E+02  0.38819444756E+02  0.10566000000E+00 0.  1.
         13    1    4    4    0    0  0.19243144572E+01 -0.12278241843E+02 -0.20015117223E+02  0.23560014652E+02  0.10566000000E+00 0. -1.
        -13    1    4    4    0    0  0.71411517078E+00 -0.39242561709E+01 -0.54370892957E+01  0.67440974946E+01  0.10566000000E+00 0.  1.
         14    1    4    4    0    0  0.89577172160E-01 -0.33603365901E+01 -0.41796386957E+01  0.53636988819E+01  0.00000000000E+00 0. -1.
<mgrwt>
<rscale>  0 0.74390947E+02</rscale>
<asrwt>0</asrwt>
<pdfrwt beam="1">  1        2 0.54385130E-02 0.74390947E+02</pdfrwt>
<pdfrwt beam="2">  1       -1 0.60210648E-02 0.74390947E+02</pdfrwt>
<totfact> 0.16994115E+05</totfact>
</mgrwt>
</event>
<event>
 8    1  0.1627221E-013  0.8025416E+02  0.7818608E-02  0.1328332E+00
         -1   -1    0    0    0  501 -0.00000000000E+00  0.00000000000E+00  0.36693992176E+02  0.36693992522E+02  0.50400000000E-02 0.  1.
          2   -1    0    0  501    0  0.00000000000E+00 -0.00000000000E+00 -0.43881365858E+02  0.43881365933E+02  0.25500000000E-02 0. -1.
         24    2    1    2    0    0 -0.17763568394E-14  0.17763568394E-14 -0.71873736821E+01  0.80575358455E+02  0.80254159080E+02 0.  0.
         66    2    3    3    0    0  0.11683520776E+02 -0.90818328493E+01 -0.41016966996E+02  0.43650612099E+02  0.20000023755E+01 0.  0.
        -13    1    3    3    0    0 -0.11683520776E+02  0.90818328493E+01  0.33829593314E+02  0.36924746356E+02  0.10566000000E+00 0.  1.
         13    1    4    4    0    0  0.71507124033E+01 -0.62431944354E+01 -0.25561581177E+02  0.27267485416E+02  0.10566000000E+00 0. -1.
        -13    1    4    4    0    0  0.18415772800E+01 -0.11242814600E+01 -0.76914709454E+01  0.79890741027E+01  0.10566000000E+00 0.  1.
        -14    1    4    4    0    0  0.26912310927E+01 -0.17143569540E+01 -0.77639148732E+01  0.83940525802E+01  0.00000000000E+00 0.  1.
<mgrwt>
<rscale>  0 0.80254159E+02</rscale>
<asrwt>0</asrwt>
<pdfrwt beam="1">  1        2 0.67509794E-02 0.80254159E+02</pdfrwt>
<pdfrwt beam="2">  1       -1 0.56452296E-02 0.80254159E+02</pdfrwt>
<totfact> 0.14405591E+05</totfact>
</mgrwt>
</event>
<event>
 8    1  0.1627221E-013  0.8336068E+02  0.7818608E-02  0.1319776E+00
          2   -1    0    0  501    0  0.00000000000E+00  0.00000000000E+00  0.73821213503E+02  0.73821213547E+02  0.25500000000E-02 0. -1.
         -1   -1    0    0    0  501 -0.00000000000E+00 -0.00000000000E+00 -0.23533218156E+02  0.23533218696E+02  0.50400000000E-02 0.  1.
         24    2    1    2    0    0 -0.88817841970E-15  0.00000000000E+00  0.50287995347E+02  0.97354432242E+02  0.83360680187E+02 0.  0.
         66    2    3    3    0    0  0.73847086211E+01  0.36070144564E+02  0.47914114604E+02  0.60459504080E+02  0.20000012495E+01 0.  0.
        -13    1    3    3    0    0 -0.73847086211E+01 -0.36070144564E+02  0.23738807430E+01  0.36894928163E+02  0.10566000000E+00 0.  1.
         13    1    4    4    0    0  0.49308860911E+01  0.22600319233E+02  0.31065746673E+02  0.38732155213E+02  0.10566000000E+00 0. -1.
        -13    1    4    4    0    0  0.10384135799E+01  0.40778831222E+01  0.55920392143E+01  0.69992499692E+01  0.10566000000E+00 0.  1.
        -14    1    4    4    0    0  0.14154089501E+01  0.93919422096E+01  0.11256328716E+02  0.14728098898E+02  0.00000000000E+00 0.  1.
<mgrwt>
<rscale>  0 0.83360680E+02</rscale>
<asrwt>0</asrwt>
<pdfrwt beam="1">  1        2 0.11357110E-01 0.83360680E+02</pdfrwt>
<pdfrwt beam="2">  1       -1 0.36204952E-02 0.83360680E+02</pdfrwt>
<totfact> 0.14633528E+05</totfact>
</mgrwt>
</event>
<event>
 8    1  0.1627221E-013  0.7377481E+02  0.7818608E-02  0.1347708E+00
         -1   -1    0    0    0  501 -0.00000000000E+00  0.00000000000E+00  0.71111575469E+02  0.71111575648E+02  0.50400000000E-02 0.  1.
          2   -1    0    0  501    0  0.00000000000E+00 -0.00000000000E+00 -0.19134447094E+02  0.19134447264E+02  0.25500000000E-02 0. -1.
         24    2    1    2    0    0  0.00000000000E+00  0.00000000000E+00  0.51977128375E+02  0.90246022912E+02  0.73774811266E+02 0.  0.
         66    2    3    3    0    0  0.38805135378E+01  0.21353255455E+02 -0.10437753746E+02  0.24165401108E+02  0.20000008972E+01 0.  0.
        -13    1    3    3    0    0 -0.38805135378E+01 -0.21353255455E+02  0.62414882121E+02  0.66080621804E+02  0.10566000000E+00 0.  1.
         13    1    4    4    0    0  0.28197039136E+01  0.11779938508E+02 -0.55826465516E+01  0.13337720494E+02  0.10566000000E+00 0. -1.
        -13    1    4    4    0    0  0.28497098681E+00  0.11396017705E+01 -0.32728562288E+00  0.12240018682E+01  0.10566000000E+00 0.  1.
         14    1    4    4    0    0  0.77583863744E+00  0.84337151763E+01 -0.45278215714E+01  0.96036787456E+01  0.00000000000E+00 0. -1.
<mgrwt>
<rscale>  0 0.73774811E+02</rscale>
<asrwt>0</asrwt>
<pdfrwt beam="1">  1        2 0.29437611E-02 0.73774811E+02</pdfrwt>
<pdfrwt beam="2">  1       -1 0.10940242E-01 0.73774811E+02</pdfrwt>
<totfact> 0.15507447E+05</totfact>
</mgrwt>
</event>
<event>
 8    1  0.1627221E-013  0.8063410E+02  0.7818608E-02  0.1327262E+00
          2   -1    0    0  501    0  0.00000000000E+00  0.00000000000E+00  0.30938650831E+02  0.30938650937E+02  0.25500000000E-02 0. -1.
         -1   -1    0    0    0  501 -0.00000000000E+00 -0.00000000000E+00 -0.52538313748E+02  0.52538313990E+02  0.50400000000E-02 0.  1.
         24    2    1    2    0    0  0.00000000000E+00  0.00000000000E+00 -0.21599662917E+02  0.83476964927E+02  0.80634100945E+02 0.  0.
         66    2    3    3    0    0  0.29602941940E+02 -0.27291026614E+02 -0.12385106639E+02  0.42172564235E+02  0.20000006347E+01 0.  0.
        -13    1    3    3    0    0 -0.29602941940E+02  0.27291026614E+02 -0.92145562778E+01  0.41304400692E+02  0.10566000000E+00 0.  1.
         13    1    4    4    0    0  0.82037544177E+01 -0.75027865115E+01 -0.36667090700E+01  0.11706806201E+02  0.10566000000E+00 0. -1.
        -13    1    4    4    0    0  0.49508675421E+01 -0.55033341022E+01 -0.23981560726E+01  0.77820365100E+01  0.10566000000E+00 0.  1.
         14    1    4    4    0    0  0.16448319980E+02 -0.14284906000E+02 -0.63202414966E+01  0.22683721524E+02  0.00000000000E+00 0. -1.
<mgrwt>
<rscale>  0 0.80634101E+02</rscale>
<asrwt>0</asrwt>
<pdfrwt beam="1">  1        2 0.47597924E-02 0.80634101E+02</pdfrwt>
<pdfrwt beam="2">  1       -1 0.80828176E-02 0.80634101E+02</pdfrwt>
<totfact> 0.13241388E+05</totfact>
</mgrwt>
</event>
<event>
 8    1  0.1627221E-013  0.7835543E+02  0.7818608E-02  0.1333784E+00
         -1   -1    0    0    0  501 -0.00000000000E+00  0.00000000000E+00  0.31662229978E+02  0.31662230379E+02  0.50400000000E-02 0.  1.
          2   -1    0    0  501    0  0.00000000000E+00 -0.00000000000E+00 -0.48477104092E+02  0.48477104159E+02  0.25500000000E-02 0. -1.
         24    2    1    2    0    0 -0.71054273576E-14  0.88817841970E-15 -0.16814874114E+02  0.80139334538E+02  0.78355427053E+02 0.  0.
         66    2    3    3    0    0 -0.29260781298E+02  0.71688858728E+01 -0.33988248864E+02  0.45461932513E+02  0.20000000229E+01 0.  0.
        -13    1    3    3    0    0  0.29260781298E+02 -0.71688858728E+01  0.17173374750E+02  0.34677402025E+02  0.10566000000E+00 0.  1.
         13    1    4    4    0    0 -0.16565546732E+02  0.36853376534E+01 -0.19222600403E+02  0.25642125155E+02  0.10566000000E+00 0. -1.
        -13    1    4    4    0    0 -0.49397275971E+01  0.12345554766E+01 -0.48571060632E+01  0.70375904473E+01  0.10566000000E+00 0.  1.
         14    1    4    4    0    0 -0.77555069691E+01  0.22489927428E+01 -0.99085423976E+01  0.12782216911E+02  0.00000000000E+00 0. -1.
<mgrwt>
<rscale>  0 0.78355427E+02</rscale>
<asrwt>0</asrwt>
<pdfrwt beam="1">  1        2 0.74580161E-02 0.78355427E+02</pdfrwt>
<pdfrwt beam="2">  1       -1 0.48711123E-02 0.78355427E+02</pdfrwt>
<totfact> 0.15711956E+05</totfact>
</mgrwt>
</event>
<event>
 8    1  0.1627221E-013  0.7812795E+02  0.7818608E-02  0.1334450E+00
          2   -1    0    0  501    0  0.00000000000E+00  0.00000000000E+00  0.15252182845E+03  0.15252182847E+03  0.25500000000E-02 0. -1.
         -1   -1    0    0    0  501 -0.00000000000E+00 -0.00000000000E+00 -0.10005085909E+02  0.10005087179E+02  0.50400000000E-02 0.  1.
         24    2    1    2    0    0  0.00000000000E+00  0.00000000000E+00  0.14251674254E+03  0.16252691565E+03  0.78127948943E+02 0.  0.
         66    2    3    3    0    0 -0.31286945481E+02 -0.18037071225E+02  0.10214485645E+03  0.10835949697E+03  0.19999971307E+01 0.  0.
        -13    1    3    3    0    0  0.31286945481E+02  0.18037071225E+02  0.40371886093E+02  0.54167418682E+02  0.10566000000E+00 0.  1.
         13    1    4    4    0    0 -0.40592535681E+01 -0.24658463390E+01  0.13597010746E+02  0.14403048392E+02  0.10566000000E+00 0. -1.
        -13    1    4    4    0    0 -0.14856103019E+02 -0.92391043518E+01  0.51204002427E+02  0.54110312093E+02  0.10566000000E+00 0.  1.
        -14    1    4    4    0    0 -0.12371588893E+02 -0.63321205339E+01  0.37343843272E+02  0.39846136482E+02  0.00000000000E+00 0.  1.
<mgrwt>
<rscale>  0 0.78127949E+02</rscale>
<asrwt>0</asrwt>
<pdfrwt beam="1">  1        2 0.23464896E-01 0.78127949E+02</pdfrwt>
<pdfrwt beam="2">  1       -1 0.15392442E-02 0.78127949E+02</pdfrwt>
<totfact> 0.21441882E+05</totfact>
</mgrwt>
</event>
<event>
 8    1  0.1627221E-013  0.7983163E+02  0.7818608E-02  0.1329530E+00
          2   -1    0    0  501    0  0.00000000000E+00  0.00000000000E+00  0.94526522525E+03  0.94526522526E+03  0.25500000000E-02 0. -1.
         -1   -1    0    0    0  501 -0.00000000000E+00 -0.00000000000E+00 -0.16855256930E+01  0.16855332282E+01  0.50400000000E-02 0.  1.
         24    2    1    2    0    0  0.00000000000E+00 -0.17763568394E-14  0.94357969956E+03  0.94695075848E+03  0.79831632658E+02 0.  0.
         66    2    3    3    0    0 -0.29657248435E+02 -0.10095169801E+02  0.76500378309E+03  0.76564760367E+03  0.20000069704E+01 0.  0.
        -13    1    3    3    0    0  0.29657248435E+02  0.10095169801E+02  0.17857591647E+03  0.18130315481E+03  0.10566000000E+00 0.  1.
         13    1    4    4    0    0 -0.23877021755E+00 -0.51906200035E-02  0.56875421604E+01  0.56935347563E+01  0.10566000000E+00 0.  1.
        -13    1    4    4    0    0 -0.13570729504E+02 -0.53526792326E+01  0.35515306226E+03  0.35545256318E+03  0.10566000000E+00 0.  1.
         14    1    4    4    0    0 -0.15847748713E+02 -0.47372999486E+01  0.40416317867E+03  0.40450150573E+03  0.00000000000E+00 0. -1.
<mgrwt>
<rscale>  0 0.79831633E+02</rscale>
<asrwt>0</asrwt>
<pdfrwt beam="1">  1        2 0.14542533E+00 0.79831633E+02</pdfrwt>
<pdfrwt beam="2">  1       -1 0.25931239E-03 0.79831633E+02</pdfrwt>
<totfact> 0.35302660E+05</totfact>
</mgrwt>
</event>
<event>
 8    1  0.1627221E-013  0.7904211E+02  0.7818608E-02  0.1331792E+00
          2   -1    0    0  501    0  0.00000000000E+00  0.00000000000E+00  0.31087798951E+01  0.31087809410E+01  0.25500000000E-02 0. -1.
         -1   -1    0    0    0  501 -0.00000000000E+00 -0.00000000000E+00 -0.50242010318E+03  0.50242010321E+03  0.50400000000E-02 0.  1.
         24    2    1    2    0    0  0.00000000000E+00  0.00000000000E+00 -0.49931132329E+03  0.50552888415E+03  0.79042109952E+02 0.  0.
         66    2    3    3    0    0  0.37144183355E+02  0.55437448187E+01 -0.32801146445E+03  0.33016048259E+03  0.19999973183E+01 0.  0.
        -13    1    3    3    0    0 -0.37144183355E+02 -0.55437448187E+01 -0.17129985884E+03  0.17536840156E+03  0.10566000000E+00 0.  1.
         13    1    4    4    0    0  0.29422760321E+02  0.43861456715E+01 -0.26638827992E+03  0.26804414551E+03  0.10566000000E+00 0. -1.
        -13    1    4    4    0    0  0.58732867839E+01  0.89927926311E+00 -0.46161431646E+02  0.46542380004E+02  0.10566000000E+00 0.  1.
         14    1    4    4    0    0  0.18481362506E+01  0.25831988410E+00 -0.15461752882E+02  0.15573957075E+02  0.00000000000E+00 0. -1.
<mgrwt>
<rscale>  0 0.79042110E+02</rscale>
<asrwt>0</asrwt>
<pdfrwt beam="1">  1        2 0.47827431E-03 0.79042110E+02</pdfrwt>
<pdfrwt beam="2">  1       -1 0.77295336E-01 0.79042110E+02</pdfrwt>
<totfact> 0.68689811E+04</totfact>
</mgrwt>
</event>
<event>
 8    1  0.1627221E-013  0.8013936E+02  0.7818608E-02  0.1328656E+00
          2   -1    0    0  501    0  0.00000000000E+00  0.00000000000E+00  0.17685252694E+03  0.17685252696E+03  0.25500000000E-02 0. -1.
         -1   -1    0    0    0  501 -0.00000000000E+00 -0.00000000000E+00 -0.90786322862E+01  0.90786336852E+01  0.50400000000E-02 0.  1.
         24    2    1    2    0    0 -0.35527136788E-14 -0.17763568394E-14  0.16777389466E+03  0.18593116065E+03  0.80139358440E+02 0.  0.
         66    2    3    3    0    0 -0.16658086672E+02 -0.14234647833E+02  0.16170412109E+03  0.16319417831E+03  0.20000016278E+01 0.  0.
        -13    1    3    3    0    0  0.16658086672E+02  0.14234647833E+02  0.60697735646E+01  0.22736982334E+02  0.10566000000E+00 0.  1.
         13    1    4    4    0    0 -0.49844910313E+01 -0.44227243878E+01  0.47452382870E+02  0.47918111878E+02  0.10566000000E+00 0. -1.
        -13    1    4    4    0    0 -0.11046233247E+02 -0.87186077744E+01  0.10486981998E+03  0.10580984688E+03  0.10566000000E+00 0.  1.
        -14    1    4    4    0    0 -0.62736239365E+00 -0.10933156706E+01  0.93819182460E+01  0.94662195571E+01  0.00000000000E+00 0.  1.
<mgrwt>
<rscale>  0 0.80139358E+02</rscale>
<asrwt>0</asrwt>
<pdfrwt beam="1">  1        2 0.27208081E-01 0.80139358E+02</pdfrwt>
<pdfrwt beam="2">  1       -1 0.13967128E-02 0.80139358E+02</pdfrwt>
<totfact> 0.21050509E+05</totfact>
</mgrwt>
</event>
<event>
 8    1  0.1627221E-013  0.8013208E+02  0.7818608E-02  0.1328677E+00
         -1   -1    0    0    0  501 -0.00000000000E+00  0.00000000000E+00  0.17838466980E+02  0.17838467692E+02  0.50400000000E-02 0.  1.
          2   -1    0    0  501    0  0.00000000000E+00 -0.00000000000E+00 -0.89990216103E+02  0.89990216139E+02  0.25500000000E-02 0. -1.
         24    2    1    2    0    0  0.00000000000E+00 -0.88817841970E-15 -0.72151749123E+02  0.10782868383E+03  0.80132079438E+02 0.  0.
         66    2    3    3    0    0  0.38604424175E+02 -0.43780516807E+01 -0.49131782112E+02  0.62668978920E+02  0.20000007289E+01 0.  0.
        -13    1    3    3    0    0 -0.38604424175E+02  0.43780516807E+01 -0.23019967011E+02  0.45159704911E+02  0.10566000000E+00 0.  1.
         13    1    4    4    0    0  0.24140069876E+02 -0.30513978546E+01 -0.30211893227E+02  0.38792056647E+02  0.10566000000E+00 0. -1.
        -13    1    4    4    0    0  0.23538874738E+01 -0.57908861538E+00 -0.29171711106E+01  0.37943617630E+01  0.10566000000E+00 0.  1.
         14    1    4    4    0    0  0.12110466825E+02 -0.74756521071E+00 -0.16002717774E+02  0.20082560510E+02  0.00000000000E+00 0. -1.
<mgrwt>
<rscale>  0 0.80132079E+02</rscale>
<asrwt>0</asrwt>
<pdfrwt beam="1">  1        2 0.13844648E-01 0.80132079E+02</pdfrwt>
<pdfrwt beam="2">  1       -1 0.27443796E-02 0.80132079E+02</pdfrwt>
<totfact> 0.17144056E+05</totfact>
</mgrwt>
</event>
<event>
 8    1  0.1627221E-013  0.7798743E+02  0.7818608E-02  0.1334862E+00
          2   -1    0    0  501    0  0.00000000000E+00  0.00000000000E+00  0.90884928086E+02  0.90884928121E+02  0.25500000000E-02 0. -1.
         -1   -1    0    0    0  501 -0.00000000000E+00 -0.00000000000E+00 -0.16730054158E+02  0.16730054917E+02  0.50400000000E-02 0.  1.
         24    2    1    2    0    0  0.00000000000E+00  0.00000000000E+00  0.74154873927E+02  0.10761498304E+03  0.77987430060E+02 0.  0.
         66    2    3    3    0    0  0.19736436146E+02  0.11214067871E+02  0.80808331050E+02  0.83959922573E+02  0.20000003232E+01 0.  0.
        -13    1    3    3    0    0 -0.19736436146E+02 -0.11214067871E+02 -0.66534571231E+01  0.23655060466E+02  0.10566000000E+00 0.  1.
         13    1    4    4    0    0  0.40208325517E+01  0.25011373612E+01  0.16190960706E+02  0.16869533340E+02  0.10566000000E+00 0. -1.
        -13    1    4    4    0    0  0.65133126109E+01  0.27524483914E+01  0.26529053186E+02  0.27455437354E+02  0.10566000000E+00 0.  1.
        -14    1    4    4    0    0  0.92022909831E+01  0.59604821180E+01  0.38088317158E+02  0.39634951878E+02  0.00000000000E+00 0.  1.
<mgrwt>
<rscale>  0 0.77987430E+02</rscale>
<asrwt>0</asrwt>
<pdfrwt beam="1">  1        2 0.13982296E-01 0.77987430E+02</pdfrwt>
<pdfrwt beam="2">  1       -1 0.25738546E-02 0.77987430E+02</pdfrwt>
<totfact> 0.18487079E+05</totfact>
</mgrwt>
</event>
<event>
 8    1  0.1627221E-013  0.7996150E+02  0.7818608E-02  0.1329161E+00
         -1   -1    0    0    0  501 -0.00000000000E+00  0.00000000000E+00  0.43458027023E+01  0.43458056248E+01  0.50400000000E-02 0.  1.
          2   -1    0    0  501    0  0.00000000000E+00 -0.00000000000E+00 -0.36781690052E+03  0.36781690052E+03  0.25500000000E-02 0. -1.
         24    2    1    2    0    0  0.17763568394E-14 -0.44408920985E-15 -0.36347109781E+03  0.37216270615E+03  0.79961496376E+02 0.  0.
         66    2    3    3    0    0  0.97488828347E+01 -0.31955081752E+01 -0.36157883821E+03  0.36172988297E+03  0.20000004728E+01 0.  0.
        -13    1    3    3    0    0 -0.97488828347E+01  0.31955081752E+01 -0.18922595997E+01  0.10432823177E+02  0.10566000000E+00 0.  1.
         13    1    4    4    0    0  0.52622504346E+01 -0.14162126569E+01 -0.21015943050E+03  0.21023009854E+03  0.10566000000E+00 0.  1.
        -13    1    4    4    0    0  0.35015357275E+01 -0.18209589703E+01 -0.12172545788E+03  0.12178946960E+03  0.10566000000E+00 0. -1.
        -14    1    4    4    0    0  0.98509667253E+00  0.41663451915E-01 -0.29693949827E+02  0.29710314836E+02  0.00000000000E+00 0.  1.
<mgrwt>
<rscale>  0 0.79961496E+02</rscale>
<asrwt>0</asrwt>
<pdfrwt beam="1">  1        2 0.56587191E-01 0.79961496E+02</pdfrwt>
<pdfrwt beam="2">  1       -1 0.66858555E-03 0.79961496E+02</pdfrwt>
<totfact> 0.27464242E+05</totfact>
</mgrwt>
</event>
<event>
 8    1  0.1627221E-013  0.7776040E+02  0.7818608E-02  0.1335530E+00
         -1   -1    0    0    0  501 -0.00000000000E+00  0.00000000000E+00  0.48335838880E+01  0.48335865157E+01  0.50400000000E-02 0.  1.
          2   -1    0    0  501    0  0.00000000000E+00 -0.00000000000E+00 -0.31274304092E+03  0.31274304093E+03  0.25500000000E-02 0. -1.
         24    2    1    2    0    0  0.00000000000E+00 -0.71054273576E-14 -0.30790945703E+03  0.31757662745E+03  0.77760404901E+02 0.  0.
         66    2    3    3    0    0  0.14754861225E+02  0.25569735090E+02 -0.25722564046E+03  0.25892189440E+03  0.20000019051E+01 0.  0.
        -13    1    3    3    0    0 -0.14754861225E+02 -0.25569735090E+02 -0.50683816572E+02  0.58654733046E+02  0.10566000000E+00 0.  1.
         13    1    4    4    0    0  0.44583810053E+00  0.61636557329E+00 -0.53303091720E+01  0.53853540307E+01  0.10566000000E+00 0.  1.
        -13    1    4    4    0    0  0.30766715151E+01  0.51492066333E+01 -0.47675384412E+02  0.48051365011E+02  0.10566000000E+00 0.  1.
         14    1    4    4    0    0  0.11232351609E+02  0.19804162883E+02 -0.20421994688E+03  0.20548517536E+03  0.00000000000E+00 0. -1.
<mgrwt>
<rscale>  0 0.77760405E+02</rscale>
<asrwt>0</asrwt>
<pdfrwt beam="1">  1        2 0.48114298E-01 0.77760405E+02</pdfrwt>
<pdfrwt beam="2">  1       -1 0.74362874E-03 0.77760405E+02</pdfrwt>
<totfact> 0.27877126E+05</totfact>
</mgrwt>
</event>
<event>
 8    1  0.1627221E-013  0.8391286E+02  0.7818608E-02  0.1318300E+00
          2   -1    0    0  501    0  0.00000000000E+00  0.00000000000E+00  0.65392733232E+02  0.65392733281E+02  0.25500000000E-02 0. -1.
         -1   -1    0    0    0  501 -0.00000000000E+00 -0.00000000000E+00 -0.26919534771E+02  0.26919535242E+02  0.50400000000E-02 0.  1.
         24    2    1    2    0    0  0.00000000000E+00  0.00000000000E+00  0.38473198461E+02  0.92312268524E+02  0.83912859087E+02 0.  0.
         66    2    3    3    0    0 -0.22836106160E+01 -0.41331024583E+02  0.26616379026E+02  0.49253427368E+02  0.20000011479E+01 0.  0.
        -13    1    3    3    0    0  0.22836106160E+01  0.41331024583E+02  0.11856819435E+02  0.43058841155E+02  0.10566000000E+00 0.  1.
         13    1    4    4    0    0 -0.15128651989E+01 -0.15008196543E+02  0.93409820849E+01  0.17742599441E+02  0.10566000000E+00 0. -1.
        -13    1    4    4    0    0  0.14693779569E+00 -0.25560143312E+01  0.18876483832E+01  0.31826373389E+01  0.10566000000E+00 0.  1.
         14    1    4    4    0    0 -0.91768321274E+00 -0.23766813709E+02  0.15387748558E+02  0.28328190589E+02  0.00000000000E+00 0. -1.
<mgrwt>
<rscale>  0 0.83912859E+02</rscale>
<asrwt>0</asrwt>
<pdfrwt beam="1">  1        2 0.10060420E-01 0.83912859E+02</pdfrwt>
<pdfrwt beam="2">  1       -1 0.41414669E-02 0.83912859E+02</pdfrwt>
<totfact> 0.13947916E+05</totfact>
</mgrwt>
</event>
<event>
 8    1  0.1627221E-013  0.7892436E+02  0.7818608E-02  0.1332132E+00
          2   -1    0    0  501    0  0.00000000000E+00  0.00000000000E+00  0.28660445346E+03  0.28660445347E+03  0.25500000000E-02 0. -1.
         -1   -1    0    0    0  501 -0.00000000000E+00 -0.00000000000E+00 -0.54334935290E+01  0.54334958665E+01  0.50400000000E-02 0.  1.
         24    2    1    2    0    0  0.00000000000E+00  0.00000000000E+00  0.28117095993E+03  0.29203794934E+03  0.78924363443E+02 0.  0.
         66    2    3    3    0    0  0.11682578373E+02 -0.42103506997E+01  0.27917713638E+03  0.27946034278E+03  0.20000042991E+01 0.  0.
        -13    1    3    3    0    0 -0.11682578373E+02  0.42103506997E+01  0.19938235535E+01  0.12577606563E+02  0.10566000000E+00 0.  1.
         13    1    4    4    0    0  0.56788639944E+01 -0.13131204417E+01  0.11788355491E+03  0.11802761314E+03  0.10566000000E+00 0. -1.
        -13    1    4    4    0    0  0.27606451297E+01 -0.10604638463E+01  0.76779892418E+02  0.76836897314E+02  0.10566000000E+00 0.  1.
         14    1    4    4    0    0  0.32430692494E+01 -0.18367664117E+01  0.84513689053E+02  0.84595832322E+02  0.00000000000E+00 0. -1.
<mgrwt>
<rscale>  0 0.78924363E+02</rscale>
<asrwt>0</asrwt>
<pdfrwt beam="1">  1        2 0.44092991E-01 0.78924363E+02</pdfrwt>
<pdfrwt beam="2">  1       -1 0.83592230E-03 0.78924363E+02</pdfrwt>
<totfact> 0.25982010E+05</totfact>
</mgrwt>
</event>
<event>
 8    1  0.1627221E-013  0.8754280E+02  0.7818608E-02  0.1308914E+00
         -1   -1    0    0    0  501 -0.00000000000E+00  0.00000000000E+00  0.33747650223E+01  0.33747687858E+01  0.50400000000E-02 0.  1.
          2   -1    0    0  501    0  0.00000000000E+00 -0.00000000000E+00 -0.56772375290E+03  0.56772375291E+03  0.25500000000E-02 0. -1.
         24    2    1    2    0    0  0.00000000000E+00  0.00000000000E+00 -0.56434898788E+03  0.57109852169E+03  0.87542797303E+02 0.  0.
         66    2    3    3    0    0  0.12904113819E+02 -0.34747387904E+02 -0.43392192910E+03  0.43550675961E+03  0.19999976434E+01 0.  0.
        -13    1    3    3    0    0 -0.12904113819E+02  0.34747387904E+02 -0.13042705878E+03  0.13559176208E+03  0.10566000000E+00 0.  1.
         13    1    4    4    0    0  0.27114368662E+01 -0.70395913298E+01 -0.89471214481E+02  0.89788736046E+02  0.10566000000E+00 0. -1.
        -13    1    4    4    0    0  0.71023322719E+01 -0.16874879401E+02 -0.21431918593E+03  0.21509981241E+03  0.10566000000E+00 0.  1.
        -14    1    4    4    0    0  0.30903446807E+01 -0.10832917173E+02 -0.13013152869E+03  0.13061821115E+03  0.00000000000E+00 0.  1.
<mgrwt>
<rscale>  0 0.87542797E+02</rscale>
<asrwt>0</asrwt>
<pdfrwt beam="1">  1        2 0.87342040E-01 0.87542797E+02</pdfrwt>
<pdfrwt beam="2">  1       -1 0.51919536E-03 0.87542797E+02</pdfrwt>
<totfact> 0.25014081E+05</totfact>
</mgrwt>
</event>
<event>
 8    1  0.1627221E-013  0.8108022E+02  0.7818608E-02  0.1326014E+00
          2   -1    0    0  501    0  0.00000000000E+00  0.00000000000E+00  0.68454316688E+03  0.68454316689E+03  0.25500000000E-02 0. -1.
         -1   -1    0    0    0  501 -0.00000000000E+00 -0.00000000000E+00 -0.24008695343E+01  0.24008748244E+01  0.50400000000E-02 0.  1.
         24    2    1    2    0    0  0.00000000000E+00 -0.35527136788E-14  0.68214229735E+03  0.68694404171E+03  0.81080223308E+02 0.  0.
         66    2    3    3    0    0 -0.13823726429E+02 -0.25116522003E+02  0.58382568322E+03  0.58453260257E+03  0.19999968102E+01 0.  0.
        -13    1    3    3    0    0  0.13823726429E+02  0.25116522003E+02  0.98316614130E+02  0.10241143915E+03  0.10566000000E+00 0.  1.
         13    1    4    4    0    0 -0.13500198429E+01 -0.21275063698E+01  0.60065425761E+02  0.60118344728E+02  0.10566000000E+00 0. -1.
        -13    1    4    4    0    0 -0.22548881203E+01 -0.43905468919E+01  0.10801792911E+03  0.10813068758E+03  0.10566000000E+00 0.  1.
         14    1    4    4    0    0 -0.10218818465E+02 -0.18598468741E+02  0.41574232835E+03  0.41628357026E+03  0.00000000000E+00 0. -1.
<mgrwt>
<rscale>  0 0.81080223E+02</rscale>
<asrwt>0</asrwt>
<pdfrwt beam="1">  1        2 0.10531437E+00 0.81080223E+02</pdfrwt>
<pdfrwt beam="2">  1       -1 0.36936484E-03 0.81080223E+02</pdfrwt>
<totfact> 0.32137023E+05</totfact>
</mgrwt>
</event>
<event>
 8    1  0.1627221E-013  0.8201158E+02  0.7818608E-02  0.1323438E+00
         -1   -1    0    0    0  501 -0.00000000000E+00  0.00000000000E+00  0.28634054173E+01  0.28634098528E+01  0.50400000000E-02 0.  1.
          2   -1    0    0  501    0  0.00000000000E+00 -0.00000000000E+00 -0.58722853322E+03  0.58722853323E+03  0.25500000000E-02 0. -1.
         24    2    1    2    0    0  0.00000000000E+00  0.00000000000E+00 -0.58436512780E+03  0.59009194308E+03  0.82011576586E+02 0.  0.
         66    2    3    3    0    0  0.24577318168E+02 -0.22243348696E+02 -0.46573821580E+03  0.46692065363E+03  0.19999995669E+01 0.  0.
        -13    1    3    3    0    0 -0.24577318168E+02  0.22243348696E+02 -0.11862691200E+03  0.12317128945E+03  0.10566000000E+00 0.  1.
         13    1    4    4    0    0  0.80827072620E+01 -0.75680752335E+01 -0.14766476713E+03  0.14807937242E+03  0.10566000000E+00 0. -1.
        -13    1    4    4    0    0  0.12958687092E+02 -0.11703196966E+02 -0.25842107917E+03  0.25901034287E+03  0.10566000000E+00 0.  1.
         14    1    4    4    0    0  0.35359238142E+01 -0.29720764973E+01 -0.59652369494E+02  0.59830938336E+02  0.00000000000E+00 0. -1.
<mgrwt>
<rscale>  0 0.82011577E+02</rscale>
<asrwt>0</asrwt>
<pdfrwt beam="1">  1        2 0.90342755E-01 0.82011577E+02</pdfrwt>
<pdfrwt beam="2">  1       -1 0.44052472E-03 0.82011577E+02</pdfrwt>
<totfact> 0.29966224E+05</totfact>
</mgrwt>
</event>
<event>
 8    1  0.1627221E-013  0.8346353E+02  0.7818608E-02  0.1319500E+00
          2   -1    0    0  501    0  0.00000000000E+00  0.00000000000E+00  0.51021294645E+03  0.51021294646E+03  0.25500000000E-02 0. -1.
         -1   -1    0    0    0  501 -0.00000000000E+00 -0.00000000000E+00 -0.34133577508E+01  0.34133614717E+01  0.50400000000E-02 0.  1.
         24    2    1    2    0    0  0.00000000000E+00 -0.11102230246E-15  0.50679958870E+03  0.51362630793E+03  0.83463531498E+02 0.  0.
         66    2    3    3    0    0  0.12105272487E+02 -0.97095117846E+00  0.49908900246E+03  0.49924073626E+03  0.19999975614E+01 0.  0.
        -13    1    3    3    0    0 -0.12105272487E+02  0.97095117846E+00  0.77105862354E+01  0.14385571671E+02  0.10566000000E+00 0.  1.
         13    1    4    4    0    0  0.43416816051E+01 -0.12651687127E+00  0.15649686923E+03  0.15655716990E+03  0.10566000000E+00 0. -1.
        -13    1    4    4    0    0  0.61415824503E+01 -0.20570850600E+00  0.27788143358E+03  0.27794939043E+03  0.10566000000E+00 0.  1.
        -14    1    4    4    0    0  0.16220084311E+01 -0.63872580119E+00  0.64710699658E+02  0.64734175922E+02  0.00000000000E+00 0.  1.
<mgrwt>
<rscale>  0 0.83463531E+02</rscale>
<asrwt>0</asrwt>
<pdfrwt beam="1">  1        2 0.78494277E-01 0.83463531E+02</pdfrwt>
<pdfrwt beam="2">  1       -1 0.52513240E-03 0.83463531E+02</pdfrwt>
<totfact> 0.27436280E+05</totfact>
</mgrwt>
</event>
<event>
 8    1  0.1627221E-013  0.7934242E+02  0.7818608E-02  0.1330928E+00
         -1   -1    0    0    0  501 -0.00000000000E+00  0.00000000000E+00  0.10499649554E+02  0.10499650764E+02  0.50400000000E-02 0.  1.
          2   -1    0    0  501    0  0.00000000000E+00 -0.00000000000E+00 -0.14989118888E+03  0.14989118890E+03  0.25500000000E-02 0. -1.
         24    2    1    2    0    0  0.00000000000E+00  0.35527136788E-14 -0.13939153932E+03  0.16039083966E+03  0.79342423789E+02 0.  0.
         66    2    3    3    0    0  0.28066165804E+02  0.18616075560E+02 -0.11202422588E+03  0.11699442344E+03  0.19999996552E+01 0.  0.
        -13    1    3    3    0    0 -0.28066165804E+02 -0.18616075560E+02 -0.27367313440E+02  0.43396416225E+02  0.10566000000E+00 0.  1.
         13    1    4    4    0    0  0.81779979541E+01  0.53523255611E+01 -0.32612748816E+02  0.34045992258E+02  0.10566000000E+00 0. -1.
        -13    1    4    4    0    0  0.50312975865E+01  0.31542974775E+01 -0.17404003271E+02  0.18389509017E+02  0.10566000000E+00 0.  1.
        -14    1    4    4    0    0  0.14856870263E+02  0.10109452522E+02 -0.62007473793E+02  0.64558922161E+02  0.00000000000E+00 0.  1.
<mgrwt>
<rscale>  0 0.79342424E+02</rscale>
<asrwt>0</asrwt>
<pdfrwt beam="1">  1        2 0.23060181E-01 0.79342424E+02</pdfrwt>
<pdfrwt beam="2">  1       -1 0.16153309E-02 0.79342424E+02</pdfrwt>
<totfact> 0.20468546E+05</totfact>
</mgrwt>
</event>
<event>
 8    1  0.1627221E-013  0.7984529E+02  0.7818608E-02  0.1329491E+00
         -1   -1    0    0    0  501 -0.00000000000E+00  0.00000000000E+00  0.53580832260E+01  0.53580855964E+01  0.50400000000E-02 0.  1.
          2   -1    0    0  501    0  0.00000000000E+00 -0.00000000000E+00 -0.29746035781E+03  0.29746035782E+03  0.25500000000E-02 0. -1.
         24    2    1    2    0    0  0.00000000000E+00  0.11102230246E-15 -0.29210227459E+03  0.30281844342E+03  0.79845293265E+02 0.  0.
         66    2    3    3    0    0 -0.25171902374E+02  0.45538714664E+00 -0.26352718787E+03  0.26473460444E+03  0.19999986281E+01 0.  0.
        -13    1    3    3    0    0  0.25171902374E+02 -0.45538714664E+00 -0.28575086715E+02  0.38083838979E+02  0.10566000000E+00 0.  1.
         13    1    4    4    0    0 -0.79505454289E+01  0.56097108620E+00 -0.81096972759E+02  0.81487766050E+02  0.10566000000E+00 0. -1.
        -13    1    4    4    0    0 -0.15834021985E+02 -0.32432146045E+00 -0.16387067232E+03  0.16463423049E+03  0.10566000000E+00 0.  1.
        -14    1    4    4    0    0 -0.13873349597E+01  0.21873752089E+00 -0.18559542791E+02  0.18612607904E+02  0.00000000000E+00 0.  1.
<mgrwt>
<rscale>  0 0.79845293E+02</rscale>
<asrwt>0</asrwt>
<pdfrwt beam="1">  1        2 0.45763119E-01 0.79845293E+02</pdfrwt>
<pdfrwt beam="2">  1       -1 0.82432091E-03 0.79845293E+02</pdfrwt>
<totfact> 0.25545443E+05</totfact>
</mgrwt>
</event>
<event>
 8    1  0.1627221E-013  0.8291230E+02  0.7818608E-02  0.1320984E+00
          2   -1    0    0  501    0  0.00000000000E+00  0.00000000000E+00  0.65754315667E+02  0.65754315716E+02  0.25500000000E-02 0. -1.
         -1   -1    0    0    0  501 -0.00000000000E+00 -0.00000000000E+00 -0.26136874508E+02  0.26136874994E+02  0.50400000000E-02 0.  1.
         24    2    1    2    0    0  0.88817841970E-15  0.00000000000E+00  0.39617441159E+02  0.91891190710E+02  0.82912298762E+02 0.  0.
         66    2    3    3    0    0  0.54006497332E+01  0.40555461441E+02  0.12578478544E+02  0.42850094336E+02  0.19999979741E+01 0.  0.
        -13    1    3    3    0    0 -0.54006497332E+01 -0.40555461441E+02  0.27038962615E+02  0.49041096374E+02  0.10566000000E+00 0.  1.
         13    1    4    4    0    0  0.22494386015E+01  0.13923293992E+02  0.42052557540E+01  0.14717792959E+02  0.10566000000E+00 0. -1.
        -13    1    4    4    0    0  0.26243441519E+01  0.21292112310E+02  0.60931559102E+01  0.22301994122E+02  0.10566000000E+00 0.  1.
        -14    1    4    4    0    0  0.52686697980E+00  0.53400551392E+01  0.22800668798E+01  0.58303072544E+01  0.00000000000E+00 0.  1.
<mgrwt>
<rscale>  0 0.82912299E+02</rscale>
<asrwt>0</asrwt>
<pdfrwt beam="1">  1        2 0.10116049E-01 0.82912299E+02</pdfrwt>
<pdfrwt beam="2">  1       -1 0.40210577E-02 0.82912299E+02</pdfrwt>
<totfact> 0.14431097E+05</totfact>
</mgrwt>
</event>
<event>
 8    1  0.1627221E-013  0.7881637E+02  0.7818608E-02  0.1332444E+00
         -1   -1    0    0    0  501 -0.00000000000E+00  0.00000000000E+00  0.72997777106E+01  0.72997794505E+01  0.50400000000E-02 0.  1.
          2   -1    0    0  501    0  0.00000000000E+00 -0.00000000000E+00 -0.21274685175E+03  0.21274685176E+03  0.25500000000E-02 0. -1.
         24    2    1    2    0    0  0.00000000000E+00 -0.17763568394E-14 -0.20544707404E+03  0.22004663121E+03  0.78816366815E+02 0.  0.
         66    2    3    3    0    0 -0.16561690776E+02 -0.69331826979E+01 -0.20065077411E+03  0.20146238302E+03  0.19999998938E+01 0.  0.
        -13    1    3    3    0    0  0.16561690776E+02  0.69331826979E+01 -0.47962999269E+01  0.18584248188E+02  0.10566000000E+00 0.  1.
         13    1    4    4    0    0 -0.11688559094E+02 -0.49336762943E+01 -0.13959985903E+03  0.14017523098E+03  0.10566000000E+00 0. -1.
        -13    1    4    4    0    0 -0.37549772499E+01 -0.15022270614E+01 -0.51397335224E+02  0.51556316513E+02  0.10566000000E+00 0.  1.
        -14    1    4    4    0    0 -0.11181544320E+01 -0.49727934217E+00 -0.96535798550E+01  0.97308355292E+01  0.00000000000E+00 0.  1.
<mgrwt>
<rscale>  0 0.78816367E+02</rscale>
<asrwt>0</asrwt>
<pdfrwt beam="1">  1        2 0.32730280E-01 0.78816367E+02</pdfrwt>
<pdfrwt beam="2">  1       -1 0.11230430E-02 0.78816367E+02</pdfrwt>
<totfact> 0.23442182E+05</totfact>
</mgrwt>
</event>
<event>
 8    1  0.1627221E-013  0.7839316E+02  0.7818608E-02  0.1333674E+00
         -1   -1    0    0    0  501 -0.00000000000E+00  0.00000000000E+00  0.94959454149E+01  0.94959467524E+01  0.50400000000E-02 0.  1.
          2   -1    0    0  501    0  0.00000000000E+00 -0.00000000000E+00 -0.16179237996E+03  0.16179237998E+03  0.25500000000E-02 0. -1.
         24    2    1    2    0    0  0.00000000000E+00  0.00000000000E+00 -0.15229643455E+03  0.17128832674E+03  0.78393155950E+02 0.  0.
         66    2    3    3    0    0  0.27236909357E+00  0.34677176474E+02 -0.11599723899E+03  0.12108649893E+03  0.20000039690E+01 0.  0.
        -13    1    3    3    0    0 -0.27236909357E+00 -0.34677176474E+02 -0.36299195557E+02  0.50201827808E+02  0.10566000000E+00 0.  1.
         13    1    4    4    0    0  0.28438830526E+00  0.30186071894E+02 -0.99831124783E+02  0.10429546708E+03  0.10566000000E+00 0. -1.
        -13    1    4    4    0    0 -0.16438093427E+00  0.57992255623E+00 -0.26377940434E+01  0.27078502015E+01  0.10566000000E+00 0.  1.
         14    1    4    4    0    0  0.15236172258E+00  0.39111820240E+01 -0.13528320165E+02  0.14083181651E+02  0.00000000000E+00 0. -1.
<mgrwt>
<rscale>  0 0.78393156E+02</rscale>
<asrwt>0</asrwt>
<pdfrwt beam="1">  1        2 0.24891133E-01 0.78393156E+02</pdfrwt>
<pdfrwt beam="2">  1       -1 0.14609149E-02 0.78393156E+02</pdfrwt>
<totfact> 0.21662464E+05</totfact>
</mgrwt>
</event>
<event>
 8    1  0.1627221E-013  0.8271680E+02  0.7818608E-02  0.1321514E+00
         -1   -1    0    0    0  501 -0.00000000000E+00  0.00000000000E+00  0.13132795190E+02  0.13132796157E+02  0.50400000000E-02 0.  1.
          2   -1    0    0  501    0  0.00000000000E+00 -0.00000000000E+00 -0.13024775932E+03  0.13024775935E+03  0.25500000000E-02 0. -1.
         24    2    1    2    0    0  0.00000000000E+00  0.00000000000E+00 -0.11711496413E+03  0.14338055551E+03  0.82716799220E+02 0.  0.
         66    2    3    3    0    0  0.11856212165E+02 -0.25320695319E+02 -0.11136205642E+03  0.11483559992E+03  0.20000050474E+01 0.  0.
        -13    1    3    3    0    0 -0.11856212165E+02  0.25320695319E+02 -0.57529077142E+01  0.28544955588E+02  0.10566000000E+00 0.  1.
         13    1    4    4    0    0  0.10586344683E+02 -0.22195505607E+02 -0.97901251572E+02  0.10094244591E+03  0.10566000000E+00 0. -1.
        -13    1    4    4    0    0  0.45308697245E+00 -0.18660993883E+01 -0.69118453743E+01  0.71744257781E+01  0.10566000000E+00 0.  1.
         14    1    4    4    0    0  0.81678051005E+00 -0.12590903233E+01 -0.65489594727E+01  0.67187282293E+01  0.00000000000E+00 0. -1.
<mgrwt>
<rscale>  0 0.82716799E+02</rscale>
<asrwt>0</asrwt>
<pdfrwt beam="1">  1        2 0.20038116E-01 0.82716799E+02</pdfrwt>
<pdfrwt beam="2">  1       -1 0.20204302E-02 0.82716799E+02</pdfrwt>
<totfact> 0.17525508E+05</totfact>
</mgrwt>
</event>
<event>
 8    1  0.1627221E-013  0.8068410E+02  0.7818608E-02  0.1327121E+00
          2   -1    0    0  501    0  0.00000000000E+00  0.00000000000E+00  0.57978407050E+03  0.57978407050E+03  0.25500000000E-02 0. -1.
         -1   -1    0    0    0  501 -0.00000000000E+00 -0.00000000000E+00 -0.28070445914E+01  0.28070491160E+01  0.50400000000E-02 0.  1.
         24    2    1    2    0    0  0.00000000000E+00  0.00000000000E+00  0.57697702591E+03  0.58259111962E+03  0.80684101504E+02 0.  0.
         66    2    3    3    0    0  0.65358304585E+01 -0.25136319082E+02  0.51132871426E+03  0.51199180233E+03  0.20000003006E+01 0.  0.
        -13    1    3    3    0    0 -0.65358304585E+01  0.25136319082E+02  0.65648311644E+02  0.70599317295E+02  0.10566000000E+00 0.  1.
         13    1    4    4    0    0  0.31555909674E+01 -0.11080025293E+02  0.20991419982E+03  0.21023012907E+03  0.10566000000E+00 0. -1.
        -13    1    4    4    0    0  0.12621065260E+00 -0.10158653570E+01  0.22450121419E+02  0.22473696343E+02  0.10566000000E+00 0.  1.
         14    1    4    4    0    0  0.32540288385E+01 -0.13040428433E+02  0.27896439302E+03  0.27928797692E+03  0.00000000000E+00 0. -1.
<mgrwt>
<rscale>  0 0.80684102E+02</rscale>
<asrwt>0</asrwt>
<pdfrwt beam="1">  1        2 0.89197660E-01 0.80684102E+02</pdfrwt>
<pdfrwt beam="2">  1       -1 0.43185283E-03 0.80684102E+02</pdfrwt>
<totfact> 0.31154668E+05</totfact>
</mgrwt>
</event>
<event>
 8    1  0.1627221E-013  0.7871626E+02  0.7818608E-02  0.1332734E+00
          2   -1    0    0  501    0  0.00000000000E+00  0.00000000000E+00  0.83598346164E+02  0.83598346203E+02  0.25500000000E-02 0. -1.
         -1   -1    0    0    0  501 -0.00000000000E+00 -0.00000000000E+00 -0.18529819058E+02  0.18529819744E+02  0.50400000000E-02 0.  1.
         24    2    1    2    0    0  0.00000000000E+00  0.00000000000E+00  0.65068527106E+02  0.10212816595E+03  0.78716256644E+02 0.  0.
         66    2    3    3    0    0  0.10732500596E+02  0.16839772176E+02  0.76520242778E+02  0.79108229982E+02  0.20000000087E+01 0.  0.
        -13    1    3    3    0    0 -0.10732500596E+02 -0.16839772176E+02 -0.11451715672E+02  0.23019935965E+02  0.10566000000E+00 0.  1.
         13    1    4    4    0    0  0.19705529760E+01  0.41194674429E+01  0.16388456094E+02  0.17013105191E+02  0.10566000000E+00 0.  1.
        -13    1    4    4    0    0  0.20135558806E+01  0.35481202060E+01  0.14422518420E+02  0.14988788006E+02  0.10566000000E+00 0.  1.
         14    1    4    4    0    0  0.67483917394E+01  0.91721845267E+01  0.45709268264E+02  0.47106336785E+02  0.00000000000E+00 0. -1.
<mgrwt>
<rscale>  0 0.78716257E+02</rscale>
<asrwt>0</asrwt>
<pdfrwt beam="1">  1        2 0.12861284E-01 0.78716257E+02</pdfrwt>
<pdfrwt beam="2">  1       -1 0.28507414E-02 0.78716257E+02</pdfrwt>
<totfact> 0.17637941E+05</totfact>
</mgrwt>
</event>
<event>
 8    1  0.1627221E-013  0.7852576E+02  0.7818608E-02  0.1333288E+00
          2   -1    0    0  501    0  0.00000000000E+00  0.00000000000E+00  0.11723297541E+03  0.11723297544E+03  0.25500000000E-02 0. -1.
         -1   -1    0    0    0  501 -0.00000000000E+00 -0.00000000000E+00 -0.13149660350E+02  0.13149661316E+02  0.50400000000E-02 0.  1.
         24    2    1    2    0    0  0.88817841970E-15  0.00000000000E+00  0.10408331506E+03  0.13038263675E+03  0.78525763242E+02 0.  0.
         66    2    3    3    0    0  0.75042520829E+01 -0.25776341136E+02  0.99587604272E+02  0.10316212718E+03  0.19999996826E+01 0.  0.
        -13    1    3    3    0    0 -0.75042520829E+01  0.25776341136E+02  0.44957107876E+01  0.27220509569E+02  0.10566000000E+00 0.  1.
         13    1    4    4    0    0  0.36168985007E+01 -0.15092323001E+02  0.55808698466E+02  0.57926523777E+02  0.10566000000E+00 0. -1.
        -13    1    4    4    0    0  0.13452950891E+01 -0.32096566738E+01  0.12517209733E+02  0.12992436968E+02  0.10566000000E+00 0.  1.
         14    1    4    4    0    0  0.25420584931E+01 -0.74743614607E+01  0.31261696073E+02  0.32243166439E+02  0.00000000000E+00 0. -1.
<mgrwt>
<rscale>  0 0.78525763E+02</rscale>
<asrwt>0</asrwt>
<pdfrwt beam="1">  1        2 0.18035842E-01 0.78525763E+02</pdfrwt>
<pdfrwt beam="2">  1       -1 0.20230248E-02 0.78525763E+02</pdfrwt>
<totfact> 0.19500368E+05</totfact>
</mgrwt>
</event>
<event>
 8    1  0.1627221E-013  0.7978160E+02  0.7818608E-02  0.1329672E+00
          2   -1    0    0  501    0  0.00000000000E+00  0.00000000000E+00  0.33273854579E+03  0.33273854580E+03  0.25500000000E-02 0. -1.
         -1   -1    0    0    0  501 -0.00000000000E+00 -0.00000000000E+00 -0.47823604520E+01  0.47823631078E+01  0.50400000000E-02 0.  1.
         24    2    1    2    0    0 -0.17763568394E-14  0.17763568394E-14  0.32795618534E+03  0.33752090891E+03  0.79781604699E+02 0.  0.
         66    2    3    3    0    0 -0.94391968669E+01  0.13079330400E+02  0.31831387589E+03  0.31872855364E+03  0.19999990955E+01 0.  0.
        -13    1    3    3    0    0  0.94391968669E+01 -0.13079330400E+02  0.96423094482E+01  0.18792355274E+02  0.10566000000E+00 0.  1.
         13    1    4    4    0    0 -0.13504093524E+01  0.22580856093E+01  0.50926184513E+02  0.50994215252E+02  0.10566000000E+00 0.  1.
        -13    1    4    4    0    0 -0.27005745494E+01  0.30772221568E+01  0.67493720285E+02  0.67617866285E+02  0.10566000000E+00 0. -1.
         14    1    4    4    0    0 -0.53882129651E+01  0.77440226338E+01  0.19989397109E+03  0.20011647210E+03  0.00000000000E+00 0. -1.
<mgrwt>
<rscale>  0 0.79781605E+02</rscale>
<asrwt>0</asrwt>
<pdfrwt beam="1">  1        2 0.51190546E-01 0.79781605E+02</pdfrwt>
<pdfrwt beam="2">  1       -1 0.73574796E-03 0.79781605E+02</pdfrwt>
<totfact> 0.26655724E+05</totfact>
</mgrwt>
</event>
<event>
 8    1  0.1627221E-013  0.7999088E+02  0.7818608E-02  0.1329077E+00
         -1   -1    0    0    0  501 -0.00000000000E+00  0.00000000000E+00  0.18713984908E+02  0.18713985586E+02  0.50400000000E-02 0.  1.
          2   -1    0    0  501    0  0.00000000000E+00 -0.00000000000E+00 -0.85478067917E+02  0.85478067955E+02  0.25500000000E-02 0. -1.
         24    2    1    2    0    0  0.35527136788E-14  0.00000000000E+00 -0.66764083009E+02  0.10419205354E+03  0.79990882237E+02 0.  0.
         66    2    3    3    0    0  0.19582882966E+02 -0.21429041161E+02 -0.69191849352E+02  0.75061342534E+02  0.20000039937E+01 0.  0.
        -13    1    3    3    0    0 -0.19582882966E+02  0.21429041161E+02  0.24277663427E+01  0.29130711007E+02  0.10566000000E+00 0.  1.
         13    1    4    4    0    0  0.39845992254E+01 -0.39122927303E+01 -0.11773884305E+02  0.13031445855E+02  0.10566000000E+00 0. -1.
        -13    1    4    4    0    0  0.93476154303E+01 -0.11070612941E+02 -0.35024677031E+02  0.37903503140E+02  0.10566000000E+00 0.  1.
        -14    1    4    4    0    0  0.62506683101E+01 -0.64461354898E+01 -0.22393288015E+02  0.24126393539E+02  0.00000000000E+00 0.  1.
<mgrwt>
<rscale>  0 0.79990882E+02</rscale>
<asrwt>0</asrwt>
<pdfrwt beam="1">  1        2 0.13150472E-01 0.79990882E+02</pdfrwt>
<pdfrwt beam="2">  1       -1 0.28790747E-02 0.79990882E+02</pdfrwt>
<totfact> 0.16991127E+05</totfact>
</mgrwt>
</event>
<event>
 8    1  0.1627221E-013  0.8068371E+02  0.7818608E-02  0.1327122E+00
          2   -1    0    0  501    0  0.00000000000E+00  0.00000000000E+00  0.65347693827E+03  0.65347693828E+03  0.25500000000E-02 0. -1.
         -1   -1    0    0    0  501 -0.00000000000E+00 -0.00000000000E+00 -0.24904679932E+01  0.24904730930E+01  0.50400000000E-02 0.  1.
         24    2    1    2    0    0 -0.88817841970E-15  0.35527136788E-14  0.65098647028E+03  0.65596741137E+03  0.80683705253E+02 0.  0.
         66    2    3    3    0    0  0.60231213506E+01  0.23992394699E+02  0.58452493406E+03  0.58505154605E+03  0.19999993324E+01 0.  0.
        -13    1    3    3    0    0 -0.60231213506E+01 -0.23992394699E+02  0.66461536216E+02  0.70915865322E+02  0.10566000000E+00 0.  1.
         13    1    4    4    0    0  0.42108738698E+01  0.13642168346E+02  0.34093582459E+03  0.34123465221E+03  0.10566000000E+00 0. -1.
        -13    1    4    4    0    0  0.78277032632E+00  0.32840634214E+01  0.85079187929E+02  0.85146210630E+02  0.10566000000E+00 0. -1.
        -14    1    4    4    0    0  0.10294771545E+01  0.70661629310E+01  0.15850992154E+03  0.15867068321E+03  0.00000000000E+00 0.  1.
<mgrwt>
<rscale>  0 0.80683705E+02</rscale>
<asrwt>0</asrwt>
<pdfrwt beam="1">  1        2 0.10053507E+00 0.80683705E+02</pdfrwt>
<pdfrwt beam="2">  1       -1 0.38314871E-03 0.80683705E+02</pdfrwt>
<totfact> 0.32181358E+05</totfact>
</mgrwt>
</event>
<event>
 8    1  0.1627221E-013  0.7982775E+02  0.7818608E-02  0.1329541E+00
          2   -1    0    0  501    0  0.00000000000E+00  0.00000000000E+00  0.64002585505E+02  0.64002585555E+02  0.25500000000E-02 0. -1.
         -1   -1    0    0    0  501 -0.00000000000E+00 -0.00000000000E+00 -0.24891454820E+02  0.24891455330E+02  0.50400000000E-02 0.  1.
         24    2    1    2    0    0  0.00000000000E+00 -0.17763568394E-14  0.39111130684E+02  0.88894040886E+02  0.79827751826E+02 0.  0.
         66    2    3    3    0    0  0.19498582764E+02 -0.89820564660E+01  0.57005076449E+02  0.60946294515E+02  0.20000015206E+01 0.  0.
        -13    1    3    3    0    0 -0.19498582764E+02  0.89820564660E+01 -0.17893945764E+02  0.27947746370E+02  0.10566000000E+00 0.  1.
         13    1    4    4    0    0  0.93915185191E+01 -0.40804765976E+01  0.24764503245E+02  0.26798184535E+02  0.10566000000E+00 0. -1.
        -13    1    4    4    0    0  0.61355717792E+01 -0.33287633269E+01  0.20173549497E+02  0.21347345729E+02  0.10566000000E+00 0.  1.
        -14    1    4    4    0    0  0.39714924652E+01 -0.15728165415E+01  0.12067023707E+02  0.12800764251E+02  0.00000000000E+00 0.  1.
<mgrwt>
<rscale>  0 0.79827752E+02</rscale>
<asrwt>0</asrwt>
<pdfrwt beam="1">  1        2 0.98465516E-02 0.79827752E+02</pdfrwt>
<pdfrwt beam="2">  1       -1 0.38294546E-02 0.79827752E+02</pdfrwt>
<totfact> 0.15895528E+05</totfact>
</mgrwt>
</event>
<event>
 8    1  0.1627221E-013  0.8397558E+02  0.7818608E-02  0.1318133E+00
         -1   -1    0    0    0  501 -0.00000000000E+00  0.00000000000E+00  0.90421055227E+01  0.90421069274E+01  0.50400000000E-02 0.  1.
          2   -1    0    0  501    0  0.00000000000E+00 -0.00000000000E+00 -0.19497385966E+03  0.19497385968E+03  0.25500000000E-02 0. -1.
         24    2    1    2    0    0  0.00000000000E+00  0.35527136788E-14 -0.18593175414E+03  0.20401596661E+03  0.83975576407E+02 0.  0.
         66    2    3    3    0    0 -0.19890948087E+02  0.30820717795E+02 -0.14253450343E+03  0.14719256479E+03  0.19999997046E+01 0.  0.
        -13    1    3    3    0    0  0.19890948087E+02 -0.30820717795E+02 -0.43397250706E+02  0.56823401817E+02  0.10566000000E+00 0.  1.
         13    1    4    4    0    0 -0.11999704851E+02  0.18739013035E+02 -0.87091297986E+02  0.89889092080E+02  0.10566000000E+00 0. -1.
        -13    1    4    4    0    0 -0.20125735681E+01  0.25936831149E+01 -0.10984050726E+02  0.11464649094E+02  0.10566000000E+00 0.  1.
        -14    1    4    4    0    0 -0.58786696679E+01  0.94880216453E+01 -0.44459154722E+02  0.45838823615E+02  0.00000000000E+00 0.  1.
<mgrwt>
<rscale>  0 0.83975576E+02</rscale>
<asrwt>0</asrwt>
<pdfrwt beam="1">  1        2 0.29995975E-01 0.83975576E+02</pdfrwt>
<pdfrwt beam="2">  1       -1 0.13910934E-02 0.83975576E+02</pdfrwt>
<totfact> 0.19231091E+05</totfact>
</mgrwt>
</event>
<event>
 8    1  0.1627221E-013  0.8020065E+02  0.7818608E-02  0.1328483E+00
          2   -1    0    0  501    0  0.00000000000E+00  0.00000000000E+00  0.59959787651E+03  0.59959787651E+03  0.25500000000E-02 0. -1.
         -1   -1    0    0    0  501 -0.00000000000E+00 -0.00000000000E+00 -0.26818552147E+01  0.26818599505E+01  0.50400000000E-02 0.  1.
         24    2    1    2    0    0  0.00000000000E+00  0.00000000000E+00  0.59691602129E+03  0.60227973646E+03  0.80200651359E+02 0.  0.
         66    2    3    3    0    0 -0.34884090618E+02  0.17820284684E+02  0.36217360242E+03  0.36429134030E+03  0.20000014541E+01 0.  0.
        -13    1    3    3    0    0  0.34884090618E+02 -0.17820284684E+02  0.23474241887E+03  0.23798839616E+03  0.10566000000E+00 0.  1.
         13    1    4    4    0    0 -0.19486946365E+02  0.10145239425E+02  0.20514037688E+03  0.20631348079E+03  0.10566000000E+00 0. -1.
        -13    1    4    4    0    0 -0.12129666175E+02  0.64049474398E+01  0.12134153518E+03  0.12211441961E+03  0.10566000000E+00 0.  1.
         14    1    4    4    0    0 -0.32674780780E+01  0.12700978198E+01  0.35691690356E+02  0.35863439907E+02  0.00000000000E+00 0. -1.
<mgrwt>
<rscale>  0 0.80200651E+02</rscale>
<asrwt>0</asrwt>
<pdfrwt beam="1">  1        2 0.92245758E-01 0.80200651E+02</pdfrwt>
<pdfrwt beam="2">  1       -1 0.41259378E-03 0.80200651E+02</pdfrwt>
<totfact> 0.31948556E+05</totfact>
</mgrwt>
</event>
<event>
 8    1  0.1627221E-013  0.8052930E+02  0.7818608E-02  0.1327556E+00
         -1   -1    0    0    0  501 -0.00000000000E+00  0.00000000000E+00  0.25769021631E+02  0.25769022123E+02  0.50400000000E-02 0.  1.
          2   -1    0    0  501    0  0.00000000000E+00 -0.00000000000E+00 -0.62914384437E+02  0.62914384488E+02  0.25500000000E-02 0. -1.
         24    2    1    2    0    0  0.00000000000E+00  0.00000000000E+00 -0.37145362806E+02  0.88683406612E+02  0.80529302929E+02 0.  0.
         66    2    3    3    0    0 -0.11575868258E+02 -0.36644814130E+02 -0.31725285148E+02  0.49873207766E+02  0.20000016404E+01 0.  0.
        -13    1    3    3    0    0  0.11575868258E+02  0.36644814130E+02 -0.54200776580E+01  0.38810198846E+02  0.10566000000E+00 0.  1.
         13    1    4    4    0    0 -0.46536865002E+01 -0.14696147635E+02 -0.11860692074E+02  0.19450468731E+02  0.10566000000E+00 0. -1.
        -13    1    4    4    0    0 -0.41139865056E+00 -0.21563889536E+01 -0.16560485540E+01  0.27518944416E+01  0.10566000000E+00 0.  1.
         14    1    4    4    0    0 -0.65107831075E+01 -0.19792277542E+02 -0.18208544520E+02  0.27670844593E+02  0.00000000000E+00 0. -1.
<mgrwt>
<rscale>  0 0.80529303E+02</rscale>
<asrwt>0</asrwt>
<pdfrwt beam="1">  1        2 0.96791360E-02 0.80529303E+02</pdfrwt>
<pdfrwt beam="2">  1       -1 0.39644649E-02 0.80529303E+02</pdfrwt>
<totfact> 0.15459551E+05</totfact>
</mgrwt>
</event>
<event>
 8    1  0.1627221E-013  0.7794005E+02  0.7818608E-02  0.1335001E+00
         -1   -1    0    0    0  501 -0.00000000000E+00  0.00000000000E+00  0.28789182708E+01  0.28789226825E+01  0.50400000000E-02 0.  1.
          2   -1    0    0  501    0  0.00000000000E+00 -0.00000000000E+00 -0.52751121381E+03  0.52751121382E+03  0.25500000000E-02 0. -1.
         24    2    1    2    0    0  0.00000000000E+00  0.35527136788E-14 -0.52463229554E+03  0.53039013650E+03  0.77940049861E+02 0.  0.
         66    2    3    3    0    0 -0.70099172394E+01 -0.28144078081E+02 -0.43934646449E+03  0.44030732897E+03  0.20000032688E+01 0.  0.
        -13    1    3    3    0    0  0.70099172394E+01  0.28144078081E+02 -0.85285831052E+02  0.90082807533E+02  0.10566000000E+00 0.  1.
         13    1    4    4    0    0 -0.44008273218E+01 -0.19732532640E+02 -0.31543615092E+03  0.31608340134E+03  0.10566000000E+00 0. -1.
        -13    1    4    4    0    0 -0.22289492249E+01 -0.73520134460E+01 -0.11016549654E+03  0.11043309336E+03  0.10566000000E+00 0.  1.
         14    1    4    4    0    0 -0.38014069260E+00 -0.10595319946E+01 -0.13744817026E+02  0.13790834277E+02  0.00000000000E+00 0. -1.
<mgrwt>
<rscale>  0 0.77940050E+02</rscale>
<asrwt>0</asrwt>
<pdfrwt beam="1">  1        2 0.81155495E-01 0.77940050E+02</pdfrwt>
<pdfrwt beam="2">  1       -1 0.44291126E-03 0.77940050E+02</pdfrwt>
<totfact> 0.33141654E+05</totfact>
</mgrwt>
</event>
<event>
 8    1  0.1627221E-013  0.7890678E+02  0.7818608E-02  0.1332183E+00
          2   -1    0    0  501    0  0.00000000000E+00  0.00000000000E+00  0.12379080601E+02  0.12379080864E+02  0.25500000000E-02 0. -1.
         -1   -1    0    0    0  501 -0.00000000000E+00 -0.00000000000E+00 -0.12574198227E+03  0.12574198237E+03  0.50400000000E-02 0.  1.
         24    2    1    2    0    0  0.00000000000E+00  0.00000000000E+00 -0.11336290166E+03  0.13812106323E+03  0.78906784463E+02 0.  0.
         66    2    3    3    0    0  0.18341588999E+02  0.14169393717E+02 -0.88526258527E+00  0.23280233984E+02  0.19999997910E+01 0.  0.
        -13    1    3    3    0    0 -0.18341588999E+02 -0.14169393717E+02 -0.11247763908E+03  0.11484082925E+03  0.10566000000E+00 0.  1.
         13    1    4    4    0    0  0.25670478183E+01  0.20148789202E+01 -0.55672210021E+00  0.33121858488E+01  0.10566000000E+00 0.  1.
        -13    1    4    4    0    0  0.19198685404E+00  0.18514123304E+00 -0.13755387519E+00  0.31815300167E+00  0.10566000000E+00 0.  1.
         14    1    4    4    0    0  0.15582554327E+02  0.11969373564E+02 -0.19098660987E+00  0.19649895133E+02  0.00000000000E+00 0. -1.
<mgrwt>
<rscale>  0 0.78906784E+02</rscale>
<asrwt>0</asrwt>
<pdfrwt beam="1">  1        2 0.19044740E-02 0.78906784E+02</pdfrwt>
<pdfrwt beam="2">  1       -1 0.19344920E-01 0.78906784E+02</pdfrwt>
<totfact> 0.11658171E+05</totfact>
</mgrwt>
</event>
<event>
 8    1  0.1627221E-013  0.8238233E+02  0.7818608E-02  0.1322424E+00
         -1   -1    0    0    0  501 -0.00000000000E+00  0.00000000000E+00  0.13456924849E+01  0.13457019229E+01  0.50400000000E-02 0.  1.
          2   -1    0    0  501    0  0.00000000000E+00 -0.00000000000E+00 -0.12608422658E+04  0.12608422658E+04  0.25500000000E-02 0. -1.
         24    2    1    2    0    0  0.35527136788E-14  0.00000000000E+00 -0.12594965733E+04  0.12621879677E+04  0.82382326249E+02 0.  0.
         66    2    3    3    0    0 -0.25484883331E+02 -0.15098753485E+01 -0.11249088442E+04  0.11252002785E+04  0.20000037239E+01 0.  0.
        -13    1    3    3    0    0  0.25484883331E+02  0.15098753485E+01 -0.13458772908E+03  0.13698768918E+03  0.10566000000E+00 0.  1.
         13    1    4    4    0    0 -0.82767955015E+01 -0.19943228446E+00 -0.35349395785E+03  0.35359091408E+03  0.10566000000E+00 0. -1.
        -13    1    4    4    0    0 -0.10763587905E+02 -0.15357115907E+01 -0.47946819076E+03  0.47959146192E+03  0.10566000000E+00 0.  1.
        -14    1    4    4    0    0 -0.64444999237E+01  0.22526852660E+00 -0.29194669559E+03  0.29201790252E+03  0.00000000000E+00 0.  1.
<mgrwt>
<rscale>  0 0.82382326E+02</rscale>
<asrwt>0</asrwt>
<pdfrwt beam="1">  1        2 0.19397479E+00 0.82382326E+02</pdfrwt>
<pdfrwt beam="2">  1       -1 0.20703135E-03 0.82382326E+02</pdfrwt>
<totfact> 0.32247599E+05</totfact>
</mgrwt>
</event>
<event>
 8    1  0.1627221E-013  0.8039477E+02  0.7818608E-02  0.1327935E+00
          2   -1    0    0  501    0  0.00000000000E+00  0.00000000000E+00  0.42042780784E+03  0.42042780785E+03  0.25500000000E-02 0. -1.
         -1   -1    0    0    0  501 -0.00000000000E+00 -0.00000000000E+00 -0.38432971509E+01  0.38433004555E+01  0.50400000000E-02 0.  1.
         24    2    1    2    0    0  0.00000000000E+00  0.00000000000E+00  0.41658451069E+03  0.42427110830E+03  0.80394768454E+02 0.  0.
         66    2    3    3    0    0 -0.28587196103E+02  0.40557331126E+01  0.35582307021E+03  0.35699822696E+03  0.20000002438E+01 0.  0.
        -13    1    3    3    0    0  0.28587196103E+02 -0.40557331126E+01  0.60761440476E+02  0.67272881348E+02  0.10566000000E+00 0.  1.
         13    1    4    4    0    0 -0.11606848135E+02  0.14050172156E+01  0.14784550174E+03  0.14830710214E+03  0.10566000000E+00 0. -1.
        -13    1    4    4    0    0 -0.46640237546E+01  0.35083336111E+00  0.50800480482E+02  0.51015450433E+02  0.10566000000E+00 0.  1.
         14    1    4    4    0    0 -0.12316324214E+02  0.22998825358E+01  0.15717708799E+03  0.15767567438E+03  0.00000000000E+00 0. -1.
<mgrwt>
<rscale>  0 0.80394768E+02</rscale>
<asrwt>0</asrwt>
<pdfrwt beam="1">  1        2 0.64681250E-01 0.80394768E+02</pdfrwt>
<pdfrwt beam="2">  1       -1 0.59127629E-03 0.80394768E+02</pdfrwt>
<totfact> 0.28379022E+05</totfact>
</mgrwt>
</event>
<event>
 8    1  0.1627221E-013  0.8004229E+02  0.7818608E-02  0.1328931E+00
          2   -1    0    0  501    0  0.00000000000E+00  0.00000000000E+00  0.85554887949E+02  0.85554887987E+02  0.25500000000E-02 0. -1.
         -1   -1    0    0    0  501 -0.00000000000E+00 -0.00000000000E+00 -0.18721222902E+02  0.18721223581E+02  0.50400000000E-02 0.  1.
         24    2    1    2    0    0  0.00000000000E+00  0.00000000000E+00  0.66833665046E+02  0.10427611157E+03  0.80042292946E+02 0.  0.
         66    2    3    3    0    0 -0.20146901613E+02 -0.48063281606E+01  0.78012091817E+02  0.80739611741E+02  0.19999998572E+01 0.  0.
        -13    1    3    3    0    0  0.20146901613E+02  0.48063281606E+01 -0.11178426771E+02  0.23536499827E+02  0.10566000000E+00 0.  1.
         13    1    4    4    0    0 -0.16508290621E+02 -0.38414836245E+01  0.63215460352E+02  0.65448347933E+02  0.10566000000E+00 0. -1.
        -13    1    4    4    0    0 -0.28602638567E+01 -0.45647621214E+00  0.10330010144E+02  0.10728921356E+02  0.10566000000E+00 0.  1.
         14    1    4    4    0    0 -0.77834713524E+00 -0.50836832393E+00  0.44666213209E+01  0.45623424510E+01  0.00000000000E+00 0. -1.
<mgrwt>
<rscale>  0 0.80042293E+02</rscale>
<asrwt>0</asrwt>
<pdfrwt beam="1">  1        2 0.13162290E-01 0.80042293E+02</pdfrwt>
<pdfrwt beam="2">  1       -1 0.28801882E-02 0.80042293E+02</pdfrwt>
<totfact> 0.16965803E+05</totfact>
</mgrwt>
</event>
<event>
 8    1  0.1627221E-013  0.8993384E+02  0.7818608E-02  0.1303012E+00
         -1   -1    0    0    0  501 -0.00000000000E+00  0.00000000000E+00  0.29885582199E+01  0.29885624697E+01  0.50400000000E-02 0.  1.
          2   -1    0    0  501    0  0.00000000000E+00 -0.00000000000E+00 -0.67658791194E+03  0.67658791194E+03  0.25500000000E-02 0. -1.
         24    2    1    2    0    0  0.00000000000E+00  0.00000000000E+00 -0.67359935372E+03  0.67957647441E+03  0.89933838156E+02 0.  0.
         66    2    3    3    0    0 -0.14748696219E+01 -0.28838626760E+02 -0.59721531906E+03  0.59791636452E+03  0.20000002032E+01 0.  0.
        -13    1    3    3    0    0  0.14748696219E+01  0.28838626760E+02 -0.76384034656E+02  0.81660109895E+02  0.10566000000E+00 0.  1.
         13    1    4    4    0    0 -0.78313169851E+00 -0.17398278934E+02 -0.34624306599E+03  0.34668081187E+03  0.10566000000E+00 0. -1.
        -13    1    4    4    0    0 -0.33217328262E+00 -0.29598777717E+01 -0.57483021145E+02  0.57560230190E+02  0.10566000000E+00 0.  1.
        -14    1    4    4    0    0 -0.35956464080E+00 -0.84804700547E+01 -0.19348923192E+03  0.19367532246E+03  0.00000000000E+00 0.  1.
<mgrwt>
<rscale>  0 0.89933838E+02</rscale>
<asrwt>0</asrwt>
<pdfrwt beam="1">  1        2 0.10409033E+00 0.89933838E+02</pdfrwt>
<pdfrwt beam="2">  1       -1 0.45977906E-03 0.89933838E+02</pdfrwt>
<totfact> 0.24435323E+05</totfact>
</mgrwt>
</event>
<event>
 8    1  0.1627221E-013  0.7617754E+02  0.7818608E-02  0.1340263E+00
          2   -1    0    0  501    0  0.00000000000E+00  0.00000000000E+00  0.85891402828E+02  0.85891402866E+02  0.25500000000E-02 0. -1.
         -1   -1    0    0    0  501 -0.00000000000E+00 -0.00000000000E+00 -0.16890564678E+02  0.16890565430E+02  0.50400000000E-02 0.  1.
         24    2    1    2    0    0  0.17763568394E-14 -0.35527136788E-14  0.69000838151E+02  0.10278196830E+03  0.76177538299E+02 0.  0.
         66    2    3    3    0    0  0.11152935467E+02  0.19164634049E+02  0.76265217660E+02  0.79448440027E+02  0.20000075674E+01 0.  0.
        -13    1    3    3    0    0 -0.11152935467E+02 -0.19164634049E+02 -0.72643795096E+01  0.23333528268E+02  0.10566000000E+00 0.  1.
         13    1    4    4    0    0  0.31009090542E+01  0.44442709438E+01  0.17950227280E+02  0.18750706777E+02  0.10566000000E+00 0. -1.
        -13    1    4    4    0    0  0.17774686701E+01  0.40819134127E+01  0.13775178788E+02  0.14477158791E+02  0.10566000000E+00 0.  1.
         14    1    4    4    0    0  0.62745577424E+01  0.10638449693E+02  0.44539811592E+02  0.46220574459E+02  0.00000000000E+00 0. -1.
<mgrwt>
<rscale>  0 0.76177538E+02</rscale>
<asrwt>0</asrwt>
<pdfrwt beam="1">  1        2 0.13214062E-01 0.76177538E+02</pdfrwt>
<pdfrwt beam="2">  1       -1 0.25985485E-02 0.76177538E+02</pdfrwt>
<totfact> 0.19393944E+05</totfact>
</mgrwt>
</event>
<event>
 8    1  0.1627221E-013  0.7826866E+02  0.7818608E-02  0.1334038E+00
          2   -1    0    0  501    0  0.00000000000E+00  0.00000000000E+00  0.16242740602E+03  0.16242740604E+03  0.25500000000E-02 0. -1.
         -1   -1    0    0    0  501 -0.00000000000E+00 -0.00000000000E+00 -0.94287999863E+01  0.94288013333E+01  0.50400000000E-02 0.  1.
         24    2    1    2    0    0 -0.88817841970E-15  0.00000000000E+00  0.15299860604E+03  0.17185620738E+03  0.78268656336E+02 0.  0.
         66    2    3    3    0    0 -0.61761144728E+01 -0.36182434302E+02  0.10618548522E+03  0.11236845749E+03  0.20000063022E+01 0.  0.
        -13    1    3    3    0    0  0.61761144728E+01  0.36182434302E+02  0.46813120818E+02  0.59487749888E+02  0.10566000000E+00 0.  1.
         13    1    4    4    0    0 -0.31449273419E+01 -0.14887646147E+02  0.45107646090E+02  0.47605078254E+02  0.10566000000E+00 0. -1.
        -13    1    4    4    0    0 -0.20150654968E+01 -0.12344698571E+02  0.34131248205E+02  0.36351139457E+02  0.10566000000E+00 0.  1.
        -14    1    4    4    0    0 -0.10161216341E+01 -0.89500895829E+01  0.26946590923E+02  0.28412239776E+02  0.00000000000E+00 0.  1.
<mgrwt>
<rscale>  0 0.78268656E+02</rscale>
<asrwt>0</asrwt>
<pdfrwt beam="1">  1        2 0.24988832E-01 0.78268656E+02</pdfrwt>
<pdfrwt beam="2">  1       -1 0.14505847E-02 0.78268656E+02</pdfrwt>
<totfact> 0.21781659E+05</totfact>
</mgrwt>
</event>
<event>
 8    1  0.1627221E-013  0.8085634E+02  0.7818608E-02  0.1326639E+00
          2   -1    0    0  501    0  0.00000000000E+00  0.00000000000E+00  0.20858563297E+03  0.20858563298E+03  0.25500000000E-02 0. -1.
         -1   -1    0    0    0  501 -0.00000000000E+00 -0.00000000000E+00 -0.78358069755E+01  0.78358085964E+01  0.50400000000E-02 0.  1.
         24    2    1    2    0    0  0.35527136788E-14  0.35527136788E-14  0.20074982599E+03  0.21642144158E+03  0.80856340132E+02 0.  0.
         66    2    3    3    0    0  0.26548362592E+02  0.22755867098E+02  0.15461942898E+03  0.15853647172E+03  0.20000004849E+01 0.  0.
        -13    1    3    3    0    0 -0.26548362592E+02 -0.22755867098E+02  0.46130397011E+02  0.57884969864E+02  0.10566000000E+00 0.  1.
         13    1    4    4    0    0  0.81300782449E+01  0.79143628128E+01  0.49538323245E+02  0.50821176147E+02  0.10566000000E+00 0. -1.
        -13    1    4    4    0    0  0.37950376414E+01  0.33479225871E+01  0.20969366717E+02  0.21571657352E+02  0.10566000000E+00 0.  1.
        -14    1    4    4    0    0  0.14623246706E+02  0.11493581698E+02  0.84111739020E+02  0.86143638218E+02  0.00000000000E+00 0.  1.
<mgrwt>
<rscale>  0 0.80856340E+02</rscale>
<asrwt>0</asrwt>
<pdfrwt beam="1">  1        2 0.32090099E-01 0.80856340E+02</pdfrwt>
<pdfrwt beam="2">  1       -1 0.12055088E-02 0.80856340E+02</pdfrwt>
<totfact> 0.21764144E+05</totfact>
</mgrwt>
</event>
<event>
 8    1  0.1627221E-013  0.7883784E+02  0.7818608E-02  0.1332382E+00
          2   -1    0    0  501    0  0.00000000000E+00  0.00000000000E+00  0.75974265195E+03  0.75974265196E+03  0.25500000000E-02 0. -1.
         -1   -1    0    0    0  501 -0.00000000000E+00 -0.00000000000E+00 -0.20452307315E+01  0.20452369414E+01  0.50400000000E-02 0.  1.
         24    2    1    2    0    0 -0.71054273576E-14  0.00000000000E+00  0.75769742122E+03  0.76178788890E+03  0.78837843368E+02 0.  0.
         66    2    3    3    0    0 -0.26208504146E+02 -0.23795192746E+02  0.54610587597E+03  0.54725563008E+03  0.19999998088E+01 0.  0.
        -13    1    3    3    0    0  0.26208504146E+02  0.23795192746E+02  0.21159154526E+03  0.21453225882E+03  0.10566000000E+00 0.  1.
         13    1    4    4    0    0 -0.15561441492E+02 -0.14512445982E+02  0.33128110151E+03  0.33196377653E+03  0.10566000000E+00 0. -1.
        -13    1    4    4    0    0 -0.20616232635E+01 -0.17709525061E+01  0.48653105475E+02  0.48729071401E+02  0.10566000000E+00 0.  1.
        -14    1    4    4    0    0 -0.85854393906E+01 -0.75117942578E+01  0.16617166898E+03  0.16656278214E+03  0.00000000000E+00 0.  1.
<mgrwt>
<rscale>  0 0.78837843E+02</rscale>
<asrwt>0</asrwt>
<pdfrwt beam="1">  1        2 0.11688357E+00 0.78837843E+02</pdfrwt>
<pdfrwt beam="2">  1       -1 0.31465112E-03 0.78837843E+02</pdfrwt>
<totfact> 0.35358250E+05</totfact>
</mgrwt>
</event>
<event>
 8    1  0.1627221E-013  0.8056328E+02  0.7818608E-02  0.1327460E+00
         -1   -1    0    0    0  501 -0.00000000000E+00  0.00000000000E+00  0.20048653519E+01  0.20048716869E+01  0.50400000000E-02 0.  1.
          2   -1    0    0  501    0  0.00000000000E+00 -0.00000000000E+00 -0.80933508487E+03  0.80933508487E+03  0.25500000000E-02 0. -1.
         24    2    1    2    0    0  0.88817841970E-15  0.17763568394E-14 -0.80733021952E+03  0.81133995656E+03  0.80563278019E+02 0.  0.
         66    2    3    3    0    0 -0.66005945709E+01 -0.15759857905E+02 -0.77100390703E+03  0.77119580241E+03  0.20000053589E+01 0.  0.
        -13    1    3    3    0    0  0.66005945709E+01  0.15759857905E+02 -0.36326312486E+02  0.40144154154E+02  0.10566000000E+00 0.  1.
         13    1    4    4    0    0 -0.52706085412E+00 -0.89242608024E+00 -0.51120053003E+02  0.51130667906E+02  0.10566000000E+00 0. -1.
        -13    1    4    4    0    0 -0.23756181705E+00 -0.21270969342E+01 -0.94100344828E+02  0.94124741900E+02  0.10566000000E+00 0.  1.
         14    1    4    4    0    0 -0.58359718998E+01 -0.12740334890E+02 -0.62578350920E+03  0.62594039260E+03  0.00000000000E+00 0. -1.
<mgrwt>
<rscale>  0 0.80563278E+02</rscale>
<asrwt>0</asrwt>
<pdfrwt beam="1">  1        2 0.12451283E+00 0.80563278E+02</pdfrwt>
<pdfrwt beam="2">  1       -1 0.30844196E-03 0.80563278E+02</pdfrwt>
<totfact> 0.33811262E+05</totfact>
</mgrwt>
</event>
<event>
 8    1  0.1627221E-013  0.7980333E+02  0.7818608E-02  0.1329610E+00
          2   -1    0    0  501    0  0.00000000000E+00  0.00000000000E+00  0.10544347547E+03  0.10544347550E+03  0.25500000000E-02 0. -1.
         -1   -1    0    0    0  501 -0.00000000000E+00 -0.00000000000E+00 -0.15099490900E+02  0.15099491741E+02  0.50400000000E-02 0.  1.
         24    2    1    2    0    0  0.88817841970E-15 -0.35527136788E-14  0.90343984571E+02  0.12054296724E+03  0.79803329528E+02 0.  0.
         66    2    3    3    0    0 -0.30512303885E+01  0.23161556761E+02  0.94014700802E+02  0.96894435785E+02  0.20000001811E+01 0.  0.
        -13    1    3    3    0    0  0.30512303885E+01 -0.23161556761E+02 -0.36707162309E+01  0.23648531459E+02  0.10566000000E+00 0.  1.
         13    1    4    4    0    0 -0.81407169817E+00  0.59564121505E+01  0.21166420546E+02  0.22003865142E+02  0.10566000000E+00 0. -1.
        -13    1    4    4    0    0 -0.40449942313E+00  0.18394851360E+01  0.71831332555E+01  0.74267013371E+01  0.10566000000E+00 0. -1.
         14    1    4    4    0    0 -0.18326592672E+01  0.15365659474E+02  0.65665147001E+02  0.67463869306E+02  0.00000000000E+00 0. -1.
<mgrwt>
<rscale>  0 0.79803330E+02</rscale>
<asrwt>0</asrwt>
<pdfrwt beam="1">  1        2 0.16222073E-01 0.79803330E+02</pdfrwt>
<pdfrwt beam="2">  1       -1 0.23229987E-02 0.79803330E+02</pdfrwt>
<totfact> 0.18112301E+05</totfact>
</mgrwt>
</event>
<event>
 8    1  0.1627221E-013  0.8028431E+02  0.7818608E-02  0.1328247E+00
          2   -1    0    0  501    0  0.00000000000E+00  0.00000000000E+00  0.13441983133E+03  0.13441983135E+03  0.25500000000E-02 0. -1.
         -1   -1    0    0    0  501 -0.00000000000E+00 -0.00000000000E+00 -0.11987759214E+02  0.11987760274E+02  0.50400000000E-02 0.  1.
         24    2    1    2    0    0  0.00000000000E+00  0.00000000000E+00  0.12243207211E+03  0.14640759162E+03  0.80284311066E+02 0.  0.
         66    2    3    3    0    0 -0.28090155973E+02 -0.19321655685E+02  0.22698198256E+02  0.41007212121E+02  0.20000002168E+01 0.  0.
        -13    1    3    3    0    0  0.28090155973E+02  0.19321655685E+02  0.99733873855E+02  0.10540037950E+03  0.10566000000E+00 0.  1.
         13    1    4    4    0    0 -0.16592751979E+02 -0.10980967711E+02  0.13594435529E+02  0.24098151619E+02  0.10566000000E+00 0. -1.
        -13    1    4    4    0    0 -0.32443072379E+01 -0.29665146366E+01  0.29748036680E+01  0.53090827308E+01  0.10566000000E+00 0.  1.
        -14    1    4    4    0    0 -0.82530967562E+01 -0.53741733378E+01  0.61289590596E+01  0.11599977771E+02  0.00000000000E+00 0.  1.
<mgrwt>
<rscale>  0 0.80284311E+02</rscale>
<asrwt>0</asrwt>
<pdfrwt beam="1">  1        2 0.20679976E-01 0.80284311E+02</pdfrwt>
<pdfrwt beam="2">  1       -1 0.18442705E-02 0.80284311E+02</pdfrwt>
<totfact> 0.19164151E+05</totfact>
</mgrwt>
</event>
<event>
 8    1  0.1627221E-013  0.8047758E+02  0.7818608E-02  0.1327702E+00
         -1   -1    0    0    0  501 -0.00000000000E+00  0.00000000000E+00  0.30245760442E+02  0.30245760862E+02  0.50400000000E-02 0.  1.
          2   -1    0    0  501    0  0.00000000000E+00 -0.00000000000E+00 -0.53533456484E+02  0.53533456545E+02  0.25500000000E-02 0. -1.
         24    2    1    2    0    0  0.17763568394E-14  0.00000000000E+00 -0.23287696042E+02  0.83779217407E+02  0.80477577513E+02 0.  0.
         66    2    3    3    0    0  0.14552906891E+02 -0.36198952040E+02 -0.21797891274E+02  0.44735883660E+02  0.19999987524E+01 0.  0.
        -13    1    3    3    0    0 -0.14552906891E+02  0.36198952040E+02 -0.14898047681E+01  0.39043333747E+02  0.10566000000E+00 0.  1.
         13    1    4    4    0    0  0.15025855436E+01 -0.32988646578E+01 -0.15225079881E+01  0.39331241979E+01  0.10566000000E+00 0. -1.
        -13    1    4    4    0    0  0.80274891198E+01 -0.20297108104E+02 -0.11933794527E+02  0.24876490805E+02  0.10566000000E+00 0.  1.
         14    1    4    4    0    0  0.50228322280E+01 -0.12602979278E+02 -0.83415887594E+01  0.15926268656E+02  0.00000000000E+00 0. -1.
<mgrwt>
<rscale>  0 0.80477578E+02</rscale>
<asrwt>0</asrwt>
<pdfrwt beam="1">  1        2 0.82359164E-02 0.80477578E+02</pdfrwt>
<pdfrwt beam="2">  1       -1 0.46531940E-02 0.80477578E+02</pdfrwt>
<totfact> 0.14924352E+05</totfact>
</mgrwt>
</event>
<event>
 8    1  0.1627221E-013  0.7817157E+02  0.7818608E-02  0.1334322E+00
         -1   -1    0    0    0  501 -0.00000000000E+00  0.00000000000E+00  0.12418011453E+03  0.12418011463E+03  0.50400000000E-02 0.  1.
          2   -1    0    0  501    0  0.00000000000E+00 -0.00000000000E+00 -0.12302280158E+02  0.12302280422E+02  0.25500000000E-02 0. -1.
         24    2    1    2    0    0  0.00000000000E+00  0.00000000000E+00  0.11187783437E+03  0.13648239505E+03  0.78171569868E+02 0.  0.
         66    2    3    3    0    0  0.19732015651E+02  0.18339257468E+02  0.65925667870E+01  0.27805444689E+02  0.20000028441E+01 0.  0.
        -13    1    3    3    0    0 -0.19732015651E+02 -0.18339257468E+02  0.10528526758E+03  0.10867695036E+03  0.10566000000E+00 0.  1.
         13    1    4    4    0    0  0.64174960105E+01  0.50530642116E+01  0.20588781778E+01  0.84242421830E+01  0.10566000000E+00 0. -1.
        -13    1    4    4    0    0  0.18792125767E+01  0.22879914406E+01  0.99657919140E+00  0.31258085131E+01  0.10566000000E+00 0.  1.
         14    1    4    4    0    0  0.11435307064E+02  0.10998201816E+02  0.35371094178E+01  0.16255393993E+02  0.00000000000E+00 0. -1.
<mgrwt>
<rscale>  0 0.78171570E+02</rscale>
<asrwt>0</asrwt>
<pdfrwt beam="1">  1        2 0.18926584E-02 0.78171570E+02</pdfrwt>
<pdfrwt beam="2">  1       -1 0.19104634E-01 0.78171570E+02</pdfrwt>
<totfact> 0.11970284E+05</totfact>
</mgrwt>
</event>
<event>
 8    1  0.1627221E-013  0.8145734E+02  0.7818608E-02  0.1324966E+00
          2   -1    0    0  501    0  0.00000000000E+00  0.00000000000E+00  0.66662644672E+03  0.66662644672E+03  0.25500000000E-02 0. -1.
         -1   -1    0    0    0  501 -0.00000000000E+00 -0.00000000000E+00 -0.24883844548E+01  0.24883895589E+01  0.50400000000E-02 0.  1.
         24    2    1    2    0    0 -0.11102230246E-15  0.00000000000E+00  0.66413806226E+03  0.66911483628E+03  0.81457340895E+02 0.  0.
         66    2    3    3    0    0 -0.64089087403E+00 -0.32247019858E+02  0.53623126557E+03  0.53720410573E+03  0.20000013500E+01 0.  0.
        -13    1    3    3    0    0  0.64089087403E+00  0.32247019858E+02  0.12790679669E+03  0.13191073055E+03  0.10566000000E+00 0.  1.
         13    1    4    4    0    0 -0.31716826304E-01 -0.32614750052E+01  0.48773820849E+02  0.48882870102E+02  0.10566000000E+00 0. -1.
        -13    1    4    4    0    0 -0.73269670837E+00 -0.22958599817E+02  0.37628106685E+03  0.37698154674E+03  0.10566000000E+00 0.  1.
        -14    1    4    4    0    0  0.12352266064E+00 -0.60269450355E+01  0.11117637787E+03  0.11133968888E+03  0.00000000000E+00 0.  1.
<mgrwt>
<rscale>  0 0.81457341E+02</rscale>
<asrwt>0</asrwt>
<pdfrwt beam="1">  1        2 0.10255785E+00 0.81457341E+02</pdfrwt>
<pdfrwt beam="2">  1       -1 0.38282903E-03 0.81457341E+02</pdfrwt>
<totfact> 0.31548044E+05</totfact>
</mgrwt>
</event>
<event>
 8    1  0.1627221E-013  0.8152890E+02  0.7818608E-02  0.1324768E+00
          2   -1    0    0  501    0  0.00000000000E+00  0.00000000000E+00  0.76137521155E+03  0.76137521156E+03  0.25500000000E-02 0. -1.
         -1   -1    0    0    0  501 -0.00000000000E+00 -0.00000000000E+00 -0.21825483538E+01  0.21825541731E+01  0.50400000000E-02 0.  1.
         24    2    1    2    0    0  0.00000000000E+00 -0.17763568394E-14  0.75919266320E+03  0.76355776573E+03  0.81528901327E+02 0.  0.
         66    2    3    3    0    0  0.16339259315E+02  0.14238452303E+02  0.70290359660E+03  0.70324047880E+03  0.20000009252E+01 0.  0.
        -13    1    3    3    0    0 -0.16339259315E+02 -0.14238452303E+02  0.56289066605E+02  0.60317286927E+02  0.10566000000E+00 0.  1.
         13    1    4    4    0    0  0.11803987880E+02  0.10341106782E+02  0.50580427751E+03  0.50604767654E+03  0.10566000000E+00 0. -1.
        -13    1    4    4    0    0  0.19464946780E+01  0.10711914447E+01  0.79030099748E+02  0.79061394643E+02  0.10566000000E+00 0.  1.
        -14    1    4    4    0    0  0.25887767571E+01  0.28261540758E+01  0.11806921933E+03  0.11813140762E+03  0.00000000000E+00 0.  1.
<mgrwt>
<rscale>  0 0.81528901E+02</rscale>
<asrwt>0</asrwt>
<pdfrwt beam="1">  1        2 0.11713466E+00 0.81528901E+02</pdfrwt>
<pdfrwt beam="2">  1       -1 0.33577709E-03 0.81528901E+02</pdfrwt>
<totfact> 0.32418209E+05</totfact>
</mgrwt>
</event>
<event>
 8    1  0.1627221E-013  0.7905921E+02  0.7818608E-02  0.1331743E+00
         -1   -1    0    0    0  501 -0.00000000000E+00  0.00000000000E+00  0.95304705005E+00  0.95306037648E+00  0.50400000000E-02 0.  1.
          2   -1    0    0  501    0  0.00000000000E+00 -0.00000000000E+00 -0.16395608287E+04  0.16395608287E+04  0.25500000000E-02 0. -1.
         24    2    1    2    0    0  0.00000000000E+00  0.00000000000E+00 -0.16386077817E+04  0.16405138891E+04  0.79059206773E+02 0.  0.
         66    2    3    3    0    0 -0.81878501919E+01 -0.18692638318E+02 -0.15217101209E+04  0.15218482669E+04  0.20000016631E+01 0.  0.
        -13    1    3    3    0    0  0.81878501919E+01  0.18692638318E+02 -0.11689766078E+03  0.11866562214E+03  0.10566000000E+00 0.  1.
         13    1    4    4    0    0 -0.29626134412E+01 -0.74736586287E+01 -0.60904434483E+03  0.60909741240E+03  0.10566000000E+00 0. -1.
        -13    1    4    4    0    0 -0.21392032979E+01 -0.39859022001E+01 -0.28717319354E+03  0.28720884015E+03  0.10566000000E+00 0.  1.
        -14    1    4    4    0    0 -0.30860334529E+01 -0.72330774893E+01 -0.62549258250E+03  0.62554201440E+03  0.00000000000E+00 0.  1.
<mgrwt>
<rscale>  0 0.79059207E+02</rscale>
<asrwt>0</asrwt>
<pdfrwt beam="1">  1        2 0.25223787E+00 0.79059207E+02</pdfrwt>
<pdfrwt beam="2">  1       -1 0.14662496E-03 0.79059207E+02</pdfrwt>
<totfact> 0.32960846E+05</totfact>
</mgrwt>
</event>
<event>
 8    1  0.1627221E-013  0.7908333E+02  0.7818608E-02  0.1331673E+00
         -1   -1    0    0    0  501 -0.00000000000E+00  0.00000000000E+00  0.88216458740E+00  0.88217898460E+00  0.50400000000E-02 0.  1.
          2   -1    0    0  501    0  0.00000000000E+00 -0.00000000000E+00 -0.17723795470E+04  0.17723795470E+04  0.25500000000E-02 0. -1.
         24    2    1    2    0    0  0.44408920985E-15  0.17763568394E-14 -0.17714973824E+04  0.17732617260E+04  0.79083329177E+02 0.  0.
         66    2    3    3    0    0 -0.33644046400E+01 -0.14932224581E+02 -0.17032042037E+04  0.17032741559E+04  0.19999920254E+01 0.  0.
        -13    1    3    3    0    0  0.33644046400E+01  0.14932224581E+02 -0.68293178702E+02  0.69987570116E+02  0.10566000000E+00 0.  1.
         13    1    4    4    0    0 -0.13204677433E+01 -0.92350910314E+01 -0.10451435662E+04  0.10451852064E+04  0.10566000000E+00 0. -1.
        -13    1    4    4    0    0 -0.42362182000E+00 -0.67641200223E+00 -0.10864467545E+03  0.10864765831E+03  0.10566000000E+00 0. -1.
         14    1    4    4    0    0 -0.16203150767E+01 -0.50207215476E+01 -0.54941596202E+03  0.54944129113E+03  0.00000000000E+00 0. -1.
<mgrwt>
<rscale>  0 0.79083329E+02</rscale>
<asrwt>0</asrwt>
<pdfrwt beam="1">  1        2 0.27267093E+00 0.79083329E+02</pdfrwt>
<pdfrwt beam="2">  1       -1 0.13572016E-03 0.79083329E+02</pdfrwt>
<totfact> 0.31465450E+05</totfact>
</mgrwt>
</event>
<event>
 8    1  0.1627221E-013  0.8348481E+02  0.7818608E-02  0.1319443E+00
         -1   -1    0    0    0  501 -0.00000000000E+00  0.00000000000E+00  0.25632728147E+02  0.25632728642E+02  0.50400000000E-02 0.  1.
          2   -1    0    0  501    0  0.00000000000E+00 -0.00000000000E+00 -0.67976697576E+02  0.67976697624E+02  0.25500000000E-02 0. -1.
         24    2    1    2    0    0 -0.17763568394E-14  0.71054273576E-14 -0.42343969430E+02  0.93609426266E+02  0.83484806635E+02 0.  0.
         66    2    3    3    0    0  0.15371547164E+02 -0.38381884168E+02 -0.27424046939E+02  0.49654122312E+02  0.20000044005E+01 0.  0.
        -13    1    3    3    0    0 -0.15371547164E+02  0.38381884168E+02 -0.14919922491E+02  0.43955303954E+02  0.10566000000E+00 0.  1.
         13    1    4    4    0    0  0.11374875794E+02 -0.30066600394E+02 -0.21731671732E+02  0.38802899104E+02  0.10566000000E+00 0. -1.
        -13    1    4    4    0    0  0.22353748952E+01 -0.51431969603E+01 -0.33763976626E+01  0.65468008299E+01  0.10566000000E+00 0. -1.
         14    1    4    4    0    0  0.17612964745E+01 -0.31720868137E+01 -0.23159775442E+01  0.43044223783E+01  0.00000000000E+00 0. -1.
<mgrwt>
<rscale>  0 0.83484807E+02</rscale>
<asrwt>0</asrwt>
<pdfrwt beam="1">  1        2 0.10457953E-01 0.83484807E+02</pdfrwt>
<pdfrwt beam="2">  1       -1 0.39434967E-02 0.83484807E+02</pdfrwt>
<totfact> 0.14278177E+05</totfact>
</mgrwt>
</event>
<event>
 8    1  0.1627221E-013  0.8027780E+02  0.7818608E-02  0.1328265E+00
          2   -1    0    0  501    0  0.00000000000E+00  0.00000000000E+00  0.13707057797E+03  0.13707057800E+03  0.25500000000E-02 0. -1.
         -1   -1    0    0    0  501 -0.00000000000E+00 -0.00000000000E+00 -0.11754027505E+02  0.11754028586E+02  0.50400000000E-02 0.  1.
         24    2    1    2    0    0  0.00000000000E+00  0.88817841970E-15  0.12531655047E+03  0.14882460658E+03  0.80277803304E+02 0.  0.
         66    2    3    3    0    0  0.92554921655E+01  0.60639061141E+01  0.13417790178E+03  0.13464822469E+03  0.19999982157E+01 0.  0.
        -13    1    3    3    0    0 -0.92554921655E+01 -0.60639061141E+01 -0.88613513107E+01  0.14176381896E+02  0.10566000000E+00 0.  1.
         13    1    4    4    0    0  0.28501876109E+01  0.13494694683E+01  0.34052634169E+02  0.34198504283E+02  0.10566000000E+00 0. -1.
        -13    1    4    4    0    0  0.53027781139E+01  0.43709814079E+01  0.81877303773E+02  0.82165254039E+02  0.10566000000E+00 0.  1.
         14    1    4    4    0    0  0.11025264407E+01  0.34345523790E+00  0.18247963836E+02  0.18284466364E+02  0.00000000000E+00 0. -1.
<mgrwt>
<rscale>  0 0.80277803E+02</rscale>
<asrwt>0</asrwt>
<pdfrwt beam="1">  1        2 0.21087781E-01 0.80277803E+02</pdfrwt>
<pdfrwt beam="2">  1       -1 0.18083120E-02 0.80277803E+02</pdfrwt>
<totfact> 0.19285673E+05</totfact>
</mgrwt>
</event>
<event>
 8    1  0.1627221E-013  0.8070717E+02  0.7818608E-02  0.1327056E+00
          2   -1    0    0  501    0  0.00000000000E+00  0.00000000000E+00  0.14588849819E+03  0.14588849821E+03  0.25500000000E-02 0. -1.
         -1   -1    0    0    0  501 -0.00000000000E+00 -0.00000000000E+00 -0.11162029045E+02  0.11162030183E+02  0.50400000000E-02 0.  1.
         24    2    1    2    0    0  0.00000000000E+00  0.44408920985E-15  0.13472646915E+03  0.15705052840E+03  0.80707168090E+02 0.  0.
         66    2    3    3    0    0  0.34986487445E+02 -0.38362581483E+01  0.10571686515E+03  0.11143978988E+03  0.20000025287E+01 0.  0.
        -13    1    3    3    0    0 -0.34986487445E+02  0.38362581483E+01  0.29009603996E+02  0.45610738521E+02  0.10566000000E+00 0.  1.
         13    1    4    4    0    0  0.14880737269E+02 -0.11534747170E+01  0.43448561824E+02  0.45940782908E+02  0.10566000000E+00 0. -1.
        -13    1    4    4    0    0  0.41509310377E+01 -0.77310795118E+00  0.14313785883E+02  0.14923925580E+02  0.10566000000E+00 0.  1.
        -14    1    4    4    0    0  0.15954819138E+02 -0.19096754801E+01  0.47954517444E+02  0.50575081388E+02  0.00000000000E+00 0.  1.
<mgrwt>
<rscale>  0 0.80707168E+02</rscale>
<asrwt>0</asrwt>
<pdfrwt beam="1">  1        2 0.22444383E-01 0.80707168E+02</pdfrwt>
<pdfrwt beam="2">  1       -1 0.17172354E-02 0.80707168E+02</pdfrwt>
<totfact> 0.19393466E+05</totfact>
</mgrwt>
</event>
<event>
 8    1  0.1627221E-013  0.7815999E+02  0.7818608E-02  0.1334356E+00
         -1   -1    0    0    0  501 -0.00000000000E+00  0.00000000000E+00  0.42988204675E+02  0.42988204970E+02  0.50400000000E-02 0.  1.
          2   -1    0    0  501    0  0.00000000000E+00 -0.00000000000E+00 -0.35527091766E+02  0.35527091858E+02  0.25500000000E-02 0. -1.
         24    2    1    2    0    0  0.00000000000E+00  0.00000000000E+00  0.74611129080E+01  0.78515296828E+02  0.78159987399E+02 0.  0.
         66    2    3    3    0    0  0.74341917062E+01  0.31756366363E+02 -0.17847379683E+02  0.37232552585E+02  0.19999998854E+01 0.  0.
        -13    1    3    3    0    0 -0.74341917062E+01 -0.31756366363E+02  0.25308492591E+02  0.41282744243E+02  0.10566000000E+00 0.  1.
         13    1    4    4    0    0  0.33569632556E+01  0.15636638515E+02 -0.82047940726E+01  0.17975079309E+02  0.10566000000E+00 0. -1.
        -13    1    4    4    0    0  0.83696271311E+00  0.18378123895E+01 -0.12776179256E+01  0.23919725252E+01  0.10566000000E+00 0.  1.
        -14    1    4    4    0    0  0.32402657375E+01  0.14281915459E+02 -0.83649676848E+01  0.16865500751E+02  0.00000000000E+00 0.  1.
<mgrwt>
<rscale>  0 0.78159987E+02</rscale>
<asrwt>0</asrwt>
<pdfrwt beam="1">  1        2 0.54657065E-02 0.78159987E+02</pdfrwt>
<pdfrwt beam="2">  1       -1 0.66135699E-02 0.78159987E+02</pdfrwt>
<totfact> 0.14843727E+05</totfact>
</mgrwt>
</event>
<event>
 8    1  0.1627221E-013  0.7871125E+02  0.7818608E-02  0.1332749E+00
          2   -1    0    0  501    0  0.00000000000E+00  0.00000000000E+00  0.53272410496E+03  0.53272410497E+03  0.25500000000E-02 0. -1.
         -1   -1    0    0    0  501 -0.00000000000E+00 -0.00000000000E+00 -0.29074409022E+01  0.29074452705E+01  0.50400000000E-02 0.  1.
         24    2    1    2    0    0  0.00000000000E+00 -0.35527136788E-14  0.52981666406E+03  0.53563155024E+03  0.78711245039E+02 0.  0.
         66    2    3    3    0    0  0.25361238897E+02 -0.12360963079E+02  0.45155060577E+03  0.45243555941E+03  0.19999989155E+01 0.  0.
        -13    1    3    3    0    0 -0.25361238897E+02  0.12360963079E+02  0.78266058287E+02  0.83195990831E+02  0.10566000000E+00 0.  1.
         13    1    4    4    0    0  0.53379756118E+01 -0.26329778040E+01  0.88236249269E+02  0.88436832851E+02  0.10566000000E+00 0. -1.
        -13    1    4    4    0    0  0.69982964943E+00 -0.15661804564E+00  0.14992171979E+02  0.15009686054E+02  0.10566000000E+00 0.  1.
         14    1    4    4    0    0  0.19323433636E+02 -0.95713672290E+01  0.34832218452E+03  0.34898904050E+03  0.00000000000E+00 0. -1.
<mgrwt>
<rscale>  0 0.78711245E+02</rscale>
<asrwt>0</asrwt>
<pdfrwt beam="1">  1        2 0.81957487E-01 0.78711245E+02</pdfrwt>
<pdfrwt beam="2">  1       -1 0.44729931E-03 0.78711245E+02</pdfrwt>
<totfact> 0.32401816E+05</totfact>
</mgrwt>
</event>
<event>
 8    1  0.1627221E-013  0.7975731E+02  0.7818608E-02  0.1329742E+00
          2   -1    0    0  501    0  0.00000000000E+00  0.00000000000E+00  0.12520156784E+03  0.12520156787E+03  0.25500000000E-02 0. -1.
         -1   -1    0    0    0  501 -0.00000000000E+00 -0.00000000000E+00 -0.12701975088E+02  0.12701976088E+02  0.50400000000E-02 0.  1.
         24    2    1    2    0    0  0.22204460493E-15  0.00000000000E+00  0.11249959276E+03  0.13790354396E+03  0.79757313557E+02 0.  0.
         66    2    3    3    0    0  0.61087726672E+00  0.32821696249E+02  0.95357741239E+02  0.10086989503E+03  0.19999981589E+01 0.  0.
        -13    1    3    3    0    0 -0.61087726672E+00 -0.32821696249E+02  0.17141851517E+02  0.37033648932E+02  0.10566000000E+00 0.  1.
         13    1    4    4    0    0  0.10901353633E+01  0.26754520593E+02  0.76460374464E+02  0.81013534637E+02  0.10566000000E+00 0. -1.
        -13    1    4    4    0    0 -0.50153774578E+00  0.56669755404E+01  0.17846160686E+02  0.18731331163E+02  0.10566000000E+00 0.  1.
        -14    1    4    4    0    0  0.22279649171E-01  0.40020011632E+00  0.10512060896E+01  0.11250292257E+01  0.00000000000E+00 0.  1.
<mgrwt>
<rscale>  0 0.79757314E+02</rscale>
<asrwt>0</asrwt>
<pdfrwt beam="1">  1        2 0.19261780E-01 0.79757314E+02</pdfrwt>
<pdfrwt beam="2">  1       -1 0.19541500E-02 0.79757314E+02</pdfrwt>
<totfact> 0.19081143E+05</totfact>
</mgrwt>
</event>
<event>
 8    1  0.1627221E-013  0.7652236E+02  0.7818608E-02  0.1339221E+00
         -1   -1    0    0    0  501 -0.00000000000E+00  0.00000000000E+00  0.10688845983E+01  0.10688964805E+01  0.50400000000E-02 0.  1.
          2   -1    0    0  501    0  0.00000000000E+00 -0.00000000000E+00 -0.13695677532E+04  0.13695677532E+04  0.25500000000E-02 0. -1.
         24    2    1    2    0    0  0.00000000000E+00 -0.17763568394E-14 -0.13684988686E+04  0.13706366496E+04  0.76522363331E+02 0.  0.
         66    2    3    3    0    0  0.21670430770E+01  0.14782650942E+02 -0.13151142699E+04  0.13152006561E+04  0.19999997456E+01 0.  0.
        -13    1    3    3    0    0 -0.21670430770E+01 -0.14782650942E+02 -0.53384598645E+02  0.55435993552E+02  0.10566000000E+00 0.  1.
         13    1    4    4    0    0  0.83928610189E+00  0.80373528696E+01 -0.72825687104E+03  0.72830171277E+03  0.10566000000E+00 0. -1.
        -13    1    4    4    0    0  0.14867124793E+01  0.65747406494E+01 -0.57178361653E+03  0.57182335806E+03  0.10566000000E+00 0.  1.
        -14    1    4    4    0    0 -0.15895550421E+00  0.17055742294E+00 -0.15073782350E+02  0.15075585263E+02  0.00000000000E+00 0.  1.
<mgrwt>
<rscale>  0 0.76522363E+02</rscale>
<asrwt>0</asrwt>
<pdfrwt beam="1">  1        2 0.21070133E+00 0.76522363E+02</pdfrwt>
<pdfrwt beam="2">  1       -1 0.16444579E-03 0.76522363E+02</pdfrwt>
<totfact> 0.38392083E+05</totfact>
</mgrwt>
</event>
<event>
 8    1  0.1627221E-013  0.7729380E+02  0.7818608E-02  0.1336911E+00
         -1   -1    0    0    0  501 -0.00000000000E+00  0.00000000000E+00  0.66868647308E+01  0.66868666302E+01  0.50400000000E-02 0.  1.
          2   -1    0    0  501    0  0.00000000000E+00 -0.00000000000E+00 -0.22336068639E+03  0.22336068641E+03  0.25500000000E-02 0. -1.
         24    2    1    2    0    0  0.44408920985E-15  0.35527136788E-14 -0.21667382166E+03  0.23004755304E+03  0.77293800948E+02 0.  0.
         66    2    3    3    0    0 -0.34575464402E+01 -0.29503010135E+02 -0.18186932239E+03  0.18429007750E+03  0.20000004538E+01 0.  0.
        -13    1    3    3    0    0  0.34575464402E+01  0.29503010135E+02 -0.34804499269E+02  0.45757475540E+02  0.10566000000E+00 0.  1.
         13    1    4    4    0    0 -0.21425462745E+01 -0.17366402061E+02 -0.10953112578E+03  0.11092006628E+03  0.10566000000E+00 0. -1.
        -13    1    4    4    0    0 -0.78417320536E+00 -0.57574700120E+01 -0.31174046387E+02  0.31711129288E+02  0.10566000000E+00 0.  1.
        -14    1    4    4    0    0 -0.53082696031E+00 -0.63791380625E+01 -0.41164150229E+02  0.41658881931E+02  0.00000000000E+00 0.  1.
<mgrwt>
<rscale>  0 0.77293801E+02</rscale>
<asrwt>0</asrwt>
<pdfrwt beam="1">  1        2 0.34363177E-01 0.77293801E+02</pdfrwt>
<pdfrwt beam="2">  1       -1 0.10287487E-02 0.77293801E+02</pdfrwt>
<totfact> 0.25100996E+05</totfact>
</mgrwt>
</event>
<event>
 8    1  0.1627221E-013  0.8014531E+02  0.7818608E-02  0.1328640E+00
         -1   -1    0    0    0  501 -0.00000000000E+00  0.00000000000E+00  0.11052562323E+02  0.11052563472E+02  0.50400000000E-02 0.  1.
          2   -1    0    0  501    0  0.00000000000E+00 -0.00000000000E+00 -0.14528918304E+03  0.14528918306E+03  0.25500000000E-02 0. -1.
         24    2    1    2    0    0 -0.44408920985E-15 -0.35527136788E-14 -0.13423662072E+03  0.15634174653E+03  0.80145314071E+02 0.  0.
         66    2    3    3    0    0  0.26823470668E+01  0.30233870011E+02 -0.11812334602E+03  0.12197707475E+03  0.20000016083E+01 0.  0.
        -13    1    3    3    0    0 -0.26823470668E+01 -0.30233870011E+02 -0.16113274694E+02  0.34364671787E+02  0.10566000000E+00 0.  1.
         13    1    4    4    0    0  0.10620817141E+01  0.10643613409E+02 -0.42512675337E+02  0.43837806199E+02  0.10566000000E+00 0. -1.
        -13    1    4    4    0    0  0.10314194358E+01  0.89252906272E+01 -0.31770346636E+02  0.33016522049E+02  0.10566000000E+00 0.  1.
        -14    1    4    4    0    0  0.58884591698E+00  0.10664965974E+02 -0.43840324049E+02  0.45122746497E+02  0.00000000000E+00 0.  1.
<mgrwt>
<rscale>  0 0.80145314E+02</rscale>
<asrwt>0</asrwt>
<pdfrwt beam="1">  1        2 0.22352181E-01 0.80145314E+02</pdfrwt>
<pdfrwt beam="2">  1       -1 0.17003944E-02 0.80145314E+02</pdfrwt>
<totfact> 0.19730777E+05</totfact>
</mgrwt>
</event>
<event>
 8    1  0.1627221E-013  0.8387797E+02  0.7818608E-02  0.1318393E+00
         -1   -1    0    0    0  501 -0.00000000000E+00  0.00000000000E+00  0.46301391315E+01  0.46301418746E+01  0.50400000000E-02 0.  1.
          2   -1    0    0  501    0  0.00000000000E+00 -0.00000000000E+00 -0.37987582771E+03  0.37987582772E+03  0.25500000000E-02 0. -1.
         24    2    1    2    0    0  0.00000000000E+00 -0.88817841970E-15 -0.37524568858E+03  0.38450596959E+03  0.83877970028E+02 0.  0.
         66    2    3    3    0    0 -0.37518587927E+02  0.72088348809E+01 -0.26676516505E+03  0.26949446195E+03  0.19999998240E+01 0.  0.
        -13    1    3    3    0    0  0.37518587927E+02 -0.72088348809E+01 -0.10848052353E+03  0.11501150764E+03  0.10566000000E+00 0.  1.
         13    1    4    4    0    0 -0.15776247834E+02  0.34068669172E+01 -0.11689072420E+03  0.11799978519E+03  0.10566000000E+00 0. -1.
        -13    1    4    4    0    0 -0.19726981109E+02  0.37484217228E+01 -0.13578698423E+03  0.13726369039E+03  0.10566000000E+00 0.  1.
        -14    1    4    4    0    0 -0.20153589840E+01  0.53546240877E-01 -0.14087456623E+02  0.14230986372E+02  0.00000000000E+00 0.  1.
<mgrwt>
<rscale>  0 0.83877970E+02</rscale>
<asrwt>0</asrwt>
<pdfrwt beam="1">  1        2 0.58442410E-01 0.83877970E+02</pdfrwt>
<pdfrwt beam="2">  1       -1 0.71232961E-03 0.83877970E+02</pdfrwt>
<totfact> 0.24508997E+05</totfact>
</mgrwt>
</event>
<event>
 8    1  0.1627221E-013  0.8165398E+02  0.7818608E-02  0.1324422E+00
          2   -1    0    0  501    0  0.00000000000E+00  0.00000000000E+00  0.33119701514E+03  0.33119701515E+03  0.25500000000E-02 0. -1.
         -1   -1    0    0    0  501 -0.00000000000E+00 -0.00000000000E+00 -0.50327833122E+01  0.50327858358E+01  0.50400000000E-02 0.  1.
         24    2    1    2    0    0 -0.88817841970E-15  0.00000000000E+00  0.32616423183E+03  0.33622980099E+03  0.81653983044E+02 0.  0.
         66    2    3    3    0    0  0.57934673355E+01 -0.26670332620E+02  0.28807467685E+03  0.28937154378E+03  0.20000005457E+01 0.  0.
        -13    1    3    3    0    0 -0.57934673355E+01  0.26670332620E+02  0.38089554981E+02  0.46858257207E+02  0.10566000000E+00 0.  1.
         13    1    4    4    0    0 -0.90833070269E-01 -0.49368404994E+00  0.44770305089E+01  0.45063223144E+01  0.10566000000E+00 0.  1.
        -13    1    4    4    0    0  0.15326295141E+01 -0.74155740131E+01  0.76383702681E+02  0.76758197546E+02  0.10566000000E+00 0. -1.
         14    1    4    4    0    0  0.43516708917E+01 -0.18761074557E+02  0.20721394366E+03  0.20810702392E+03  0.00000000000E+00 0. -1.
<mgrwt>
<rscale>  0 0.81653983E+02</rscale>
<asrwt>0</asrwt>
<pdfrwt beam="1">  1        2 0.50953374E-01 0.81653983E+02</pdfrwt>
<pdfrwt beam="2">  1       -1 0.77427475E-03 0.81653983E+02</pdfrwt>
<totfact> 0.25041703E+05</totfact>
</mgrwt>
</event>
<event>
 8    1  0.1627221E-013  0.7846749E+02  0.7818608E-02  0.1333458E+00
         -1   -1    0    0    0  501 -0.00000000000E+00  0.00000000000E+00  0.55628873538E+02  0.55628873766E+02  0.50400000000E-02 0.  1.
          2   -1    0    0  501    0  0.00000000000E+00 -0.00000000000E+00 -0.27670642445E+02  0.27670642562E+02  0.25500000000E-02 0. -1.
         24    2    1    2    0    0  0.00000000000E+00  0.71054273576E-14  0.27958231093E+02  0.83299516328E+02  0.78467488393E+02 0.  0.
         66    2    3    3    0    0  0.21085094069E+02  0.28313054529E+02 -0.41232508856E+01  0.35597913645E+02  0.20000023317E+01 0.  0.
        -13    1    3    3    0    0 -0.21085094069E+02 -0.28313054529E+02  0.32081481978E+02  0.47701602684E+02  0.10566000000E+00 0.  1.
         13    1    4    4    0    0  0.37111967374E+01  0.52188903836E+01 -0.34540623171E+00  0.64140679416E+01  0.10566000000E+00 0. -1.
        -13    1    4    4    0    0  0.14851866829E+01  0.14529940394E+01 -0.47435189659E+00  0.21338099538E+01  0.10566000000E+00 0.  1.
         14    1    4    4    0    0  0.15888710649E+02  0.21641170106E+02 -0.33034927573E+01  0.27050035749E+02  0.00000000000E+00 0. -1.
<mgrwt>
<rscale>  0 0.78467488E+02</rscale>
<asrwt>0</asrwt>
<pdfrwt beam="1">  1        2 0.42570220E-02 0.78467488E+02</pdfrwt>
<pdfrwt beam="2">  1       -1 0.85582882E-02 0.78467488E+02</pdfrwt>
<totfact> 0.13982409E+05</totfact>
</mgrwt>
</event>
<event>
 8    1  0.1627221E-013  0.7971469E+02  0.7818608E-02  0.1329863E+00
          2   -1    0    0  501    0  0.00000000000E+00  0.00000000000E+00  0.25436181259E+03  0.25436181260E+03  0.25500000000E-02 0. -1.
         -1   -1    0    0    0  501 -0.00000000000E+00 -0.00000000000E+00 -0.62454642487E+01  0.62454662823E+01  0.50400000000E-02 0.  1.
         24    2    1    2    0    0  0.00000000000E+00  0.00000000000E+00  0.24811634834E+03  0.26060727888E+03  0.79714688067E+02 0.  0.
         66    2    3    3    0    0 -0.26798518748E+02 -0.21700195691E+02  0.18932000144E+03  0.19244511436E+03  0.19999986273E+01 0.  0.
        -13    1    3    3    0    0  0.26798518748E+02  0.21700195691E+02  0.58796346896E+02  0.68162164523E+02  0.10566000000E+00 0.  1.
         13    1    4    4    0    0 -0.16495741149E+02 -0.12788477770E+02  0.11328385954E+03  0.11519070551E+03  0.10566000000E+00 0. -1.
        -13    1    4    4    0    0 -0.47138393016E+01 -0.43740720944E+01  0.38649156897E+02  0.39180623790E+02  0.10566000000E+00 0.  1.
        -14    1    4    4    0    0 -0.55889382972E+01 -0.45376458265E+01  0.37386985007E+02  0.38073785061E+02  0.00000000000E+00 0.  1.
<mgrwt>
<rscale>  0 0.79714688E+02</rscale>
<asrwt>0</asrwt>
<pdfrwt beam="1">  1        2 0.39132587E-01 0.79714688E+02</pdfrwt>
<pdfrwt beam="2">  1       -1 0.96084081E-03 0.79714688E+02</pdfrwt>
<totfact> 0.24243360E+05</totfact>
</mgrwt>
</event>
<event>
 8    1  0.1627221E-013  0.8016324E+02  0.7818608E-02  0.1328589E+00
          2   -1    0    0  501    0  0.00000000000E+00  0.00000000000E+00  0.63573691150E+02  0.63573691202E+02  0.25500000000E-02 0. -1.
         -1   -1    0    0    0  501 -0.00000000000E+00 -0.00000000000E+00 -0.25270455561E+02  0.25270456063E+02  0.50400000000E-02 0.  1.
         24    2    1    2    0    0  0.00000000000E+00  0.00000000000E+00  0.38303235590E+02  0.88844147265E+02  0.80163237501E+02 0.  0.
         66    2    3    3    0    0  0.20184618085E+02 -0.34019574451E+02  0.12173281256E+02  0.41435963050E+02  0.20000010846E+01 0.  0.
        -13    1    3    3    0    0 -0.20184618085E+02  0.34019574451E+02  0.26129954334E+02  0.47408184215E+02  0.10566000000E+00 0.  1.
         13    1    4    4    0    0  0.12930766967E+02 -0.20695276937E+02  0.75276212274E+01  0.25537726352E+02  0.10566000000E+00 0. -1.
        -13    1    4    4    0    0  0.23760974973E+01 -0.53750574058E+01  0.17684248212E+01  0.61380429957E+01  0.10566000000E+00 0.  1.
        -14    1    4    4    0    0  0.48777536202E+01 -0.79492401080E+01  0.28772352072E+01  0.97601937025E+01  0.00000000000E+00 0.  1.
<mgrwt>
<rscale>  0 0.80163238E+02</rscale>
<asrwt>0</asrwt>
<pdfrwt beam="1">  1        2 0.97805677E-02 0.80163238E+02</pdfrwt>
<pdfrwt beam="2">  1       -1 0.38877625E-02 0.80163238E+02</pdfrwt>
<totfact> 0.15690644E+05</totfact>
</mgrwt>
</event>
<event>
 8    1  0.1627221E-013  0.7995353E+02  0.7818608E-02  0.1329183E+00
          2   -1    0    0  501    0  0.00000000000E+00  0.00000000000E+00  0.26143399412E+03  0.26143399414E+03  0.25500000000E-02 0. -1.
         -1   -1    0    0    0  501 -0.00000000000E+00 -0.00000000000E+00 -0.61129832158E+01  0.61129852935E+01  0.50400000000E-02 0.  1.
         24    2    1    2    0    0 -0.44408920985E-15  0.00000000000E+00  0.25532101091E+03  0.26754697943E+03  0.79953533949E+02 0.  0.
         66    2    3    3    0    0 -0.35969098088E+01  0.35704399913E+02  0.18650479929E+03  0.18993625802E+03  0.20000040962E+01 0.  0.
        -13    1    3    3    0    0  0.35969098088E+01 -0.35704399913E+02  0.68816211615E+02  0.77610721414E+02  0.10566000000E+00 0.  1.
         13    1    4    4    0    0 -0.83166334184E+00  0.13773868215E+02  0.71222150889E+02  0.72546654304E+02  0.10566000000E+00 0. -1.
        -13    1    4    4    0    0 -0.14916054876E+01  0.75817261900E+01  0.38747002995E+02  0.39510110910E+02  0.10566000000E+00 0.  1.
        -14    1    4    4    0    0 -0.12736409794E+01  0.14348805508E+02  0.76535645410E+02  0.77879492803E+02  0.00000000000E+00 0.  1.
<mgrwt>
<rscale>  0 0.79953534E+02</rscale>
<asrwt>0</asrwt>
<pdfrwt beam="1">  1        2 0.40220615E-01 0.79953534E+02</pdfrwt>
<pdfrwt beam="2">  1       -1 0.94045911E-03 0.79953534E+02</pdfrwt>
<totfact> 0.24292450E+05</totfact>
</mgrwt>
</event>
<event>
 8    1  0.1627221E-013  0.7979736E+02  0.7818608E-02  0.1329627E+00
          2   -1    0    0  501    0  0.00000000000E+00  0.00000000000E+00  0.12907136675E+03  0.12907136677E+03  0.25500000000E-02 0. -1.
         -1   -1    0    0    0  501 -0.00000000000E+00 -0.00000000000E+00 -0.12333520991E+02  0.12333522021E+02  0.50400000000E-02 0.  1.
         24    2    1    2    0    0  0.00000000000E+00  0.00000000000E+00  0.11673784575E+03  0.14140488879E+03  0.79797355486E+02 0.  0.
         66    2    3    3    0    0 -0.21838586426E+02 -0.15759040622E+02  0.11051183653E+03  0.11376351449E+03  0.19999992874E+01 0.  0.
        -13    1    3    3    0    0  0.21838586426E+02  0.15759040622E+02  0.62260092239E+01  0.27641374302E+02  0.10566000000E+00 0.  1.
         13    1    4    4    0    0 -0.13938526351E+02 -0.96752182030E+01  0.67776446588E+02  0.69868091718E+02  0.10566000000E+00 0. -1.
        -13    1    4    4    0    0 -0.50099187851E+00 -0.21910739340E+00  0.17438474221E+01  0.18306197801E+01  0.10566000000E+00 0.  1.
         14    1    4    4    0    0 -0.73990681960E+01 -0.58647150257E+01  0.40991542521E+02  0.42064802992E+02  0.00000000000E+00 0. -1.
<mgrwt>
<rscale>  0 0.79797355E+02</rscale>
<asrwt>0</asrwt>
<pdfrwt beam="1">  1        2 0.19857134E-01 0.79797355E+02</pdfrwt>
<pdfrwt beam="2">  1       -1 0.18974648E-02 0.79797355E+02</pdfrwt>
<totfact> 0.19233752E+05</totfact>
</mgrwt>
</event>
<event>
 8    1  0.1627221E-013  0.8382318E+02  0.7818608E-02  0.1318539E+00
          2   -1    0    0  501    0  0.00000000000E+00  0.00000000000E+00  0.15991207301E+03  0.15991207303E+03  0.25500000000E-02 0. -1.
         -1   -1    0    0    0  501 -0.00000000000E+00 -0.00000000000E+00 -0.10984669539E+02  0.10984670695E+02  0.50400000000E-02 0.  1.
         24    2    1    2    0    0  0.00000000000E+00  0.00000000000E+00  0.14892740347E+03  0.17089674373E+03  0.83823180035E+02 0.  0.
         66    2    3    3    0    0 -0.54049051816E+01  0.27323021339E+02  0.13829120901E+03  0.14108231280E+03  0.19999996040E+01 0.  0.
        -13    1    3    3    0    0  0.54049051816E+01 -0.27323021339E+02  0.10636194459E+02  0.29814430930E+02  0.10566000000E+00 0.  1.
         13    1    4    4    0    0 -0.80239301586E+00  0.43123232424E+01  0.20155163833E+02  0.20627209202E+02  0.10566000000E+00 0. -1.
        -13    1    4    4    0    0 -0.24681372266E+01  0.83746403817E+01  0.44092527898E+02  0.44948731721E+02  0.10566000000E+00 0.  1.
        -14    1    4    4    0    0 -0.21343749391E+01  0.14636057715E+02  0.74043517282E+02  0.75506371873E+02  0.00000000000E+00 0.  1.
<mgrwt>
<rscale>  0 0.83823180E+02</rscale>
<asrwt>0</asrwt>
<pdfrwt beam="1">  1        2 0.24601855E-01 0.83823180E+02</pdfrwt>
<pdfrwt beam="2">  1       -1 0.16899494E-02 0.83823180E+02</pdfrwt>
<totfact> 0.18065755E+05</totfact>
</mgrwt>
</event>
<event>
 8    1  0.1627221E-013  0.8034072E+02  0.7818608E-02  0.1328087E+00
          2   -1    0    0  501    0  0.00000000000E+00  0.00000000000E+00  0.48328924859E+03  0.48328924860E+03  0.25500000000E-02 0. -1.
         -1   -1    0    0    0  501 -0.00000000000E+00 -0.00000000000E+00 -0.33389053567E+01  0.33389091606E+01  0.50400000000E-02 0.  1.
         24    2    1    2    0    0 -0.35527136788E-14  0.35527136788E-14  0.47995034324E+03  0.48662815776E+03  0.80340724122E+02 0.  0.
         66    2    3    3    0    0 -0.31351551513E+02  0.19116661756E+02  0.33840587681E+03  0.34039815509E+03  0.19999987253E+01 0.  0.
        -13    1    3    3    0    0  0.31351551513E+02 -0.19116661756E+02  0.14154446643E+03  0.14623000267E+03  0.10566000000E+00 0.  1.
         13    1    4    4    0    0 -0.15708306221E+02  0.93804078424E+01  0.17185182414E+03  0.17282304117E+03  0.10566000000E+00 0. -1.
        -13    1    4    4    0    0 -0.76854835918E+01  0.49466043277E+01  0.88280979800E+02  0.88752904803E+02  0.10566000000E+00 0.  1.
         14    1    4    4    0    0 -0.79577617005E+01  0.47896495859E+01  0.78273072870E+02  0.78822209122E+02  0.00000000000E+00 0. -1.
<mgrwt>
<rscale>  0 0.80340724E+02</rscale>
<asrwt>0</asrwt>
<pdfrwt beam="1">  1        2 0.74352166E-01 0.80340724E+02</pdfrwt>
<pdfrwt beam="2">  1       -1 0.51367823E-03 0.80340724E+02</pdfrwt>
<totfact> 0.29788226E+05</totfact>
</mgrwt>
</event>
<event>
 8    1  0.1627221E-013  0.7661963E+02  0.7818608E-02  0.1338928E+00
          2   -1    0    0  501    0  0.00000000000E+00  0.00000000000E+00  0.24505997293E+03  0.24505997294E+03  0.25500000000E-02 0. -1.
         -1   -1    0    0    0  501 -0.00000000000E+00 -0.00000000000E+00 -0.59889082346E+01  0.59889103553E+01  0.50400000000E-02 0.  1.
         24    2    1    2    0    0  0.00000000000E+00 -0.11102230246E-15  0.23907106469E+03  0.25104888330E+03  0.76619630845E+02 0.  0.
         66    2    3    3    0    0 -0.10317883764E+02 -0.81556825767E+00  0.24038427742E+03  0.24061530439E+03  0.19999997861E+01 0.  0.
        -13    1    3    3    0    0  0.10317883764E+02  0.81556825767E+00 -0.13132127322E+01  0.10433578901E+02  0.10566000000E+00 0.  1.
         13    1    4    4    0    0 -0.45647303208E+01 -0.11130090101E+01  0.98253235790E+02  0.98365568464E+02  0.10566000000E+00 0. -1.
        -13    1    4    4    0    0 -0.99617788563E+00  0.25866428687E+00  0.21367246544E+02  0.21392280535E+02  0.10566000000E+00 0. -1.
        -14    1    4    4    0    0 -0.47569755581E+01  0.38776465582E-01  0.12076379509E+03  0.12085745540E+03  0.00000000000E+00 0.  1.
<mgrwt>
<rscale>  0 0.76619631E+02</rscale>
<asrwt>0</asrwt>
<pdfrwt beam="1">  1        2 0.37701527E-01 0.76619631E+02</pdfrwt>
<pdfrwt beam="2">  1       -1 0.92137084E-03 0.76619631E+02</pdfrwt>
<totfact> 0.26541165E+05</totfact>
</mgrwt>
</event>
<event>
 8    1  0.1627221E-013  0.8079890E+02  0.7818608E-02  0.1326799E+00
          2   -1    0    0  501    0  0.00000000000E+00  0.00000000000E+00  0.34793695901E+03  0.34793695902E+03  0.25500000000E-02 0. -1.
         -1   -1    0    0    0  501 -0.00000000000E+00 -0.00000000000E+00 -0.46908360361E+01  0.46908387436E+01  0.50400000000E-02 0.  1.
         24    2    1    2    0    0  0.00000000000E+00 -0.35527136788E-14  0.34324612298E+03  0.35262779777E+03  0.80798903573E+02 0.  0.
         66    2    3    3    0    0 -0.12248296669E+02 -0.16672829074E+02  0.32304313416E+03  0.32371109115E+03  0.20000001398E+01 0.  0.
        -13    1    3    3    0    0  0.12248296669E+02  0.16672829074E+02  0.20202988812E+02  0.28916706618E+02  0.10566000000E+00 0.  1.
         13    1    4    4    0    0 -0.67965081083E+01 -0.10038200375E+02  0.18109041317E+03  0.18149574897E+03  0.10566000000E+00 0. -1.
        -13    1    4    4    0    0 -0.39298839969E+01 -0.51581707358E+01  0.11205095708E+03  0.11223849099E+03  0.10566000000E+00 0.  1.
        -14    1    4    4    0    0 -0.15219045643E+01 -0.14764579635E+01  0.29901763922E+02  0.29976851190E+02  0.00000000000E+00 0.  1.
<mgrwt>
<rscale>  0 0.80798904E+02</rscale>
<asrwt>0</asrwt>
<pdfrwt beam="1">  1        2 0.53528788E-01 0.80798904E+02</pdfrwt>
<pdfrwt beam="2">  1       -1 0.72166696E-03 0.80798904E+02</pdfrwt>
<totfact> 0.26202169E+05</totfact>
</mgrwt>
</event>
<event>
 8    1  0.1627221E-013  0.7911379E+02  0.7818608E-02  0.1331585E+00
         -1   -1    0    0    0  501 -0.00000000000E+00  0.00000000000E+00  0.22732923492E+01  0.22732979361E+01  0.50400000000E-02 0.  1.
          2   -1    0    0  501    0  0.00000000000E+00 -0.00000000000E+00 -0.68831716253E+03  0.68831716254E+03  0.25500000000E-02 0. -1.
         24    2    1    2    0    0 -0.17763568394E-14  0.00000000000E+00 -0.68604387019E+03  0.69059046048E+03  0.79113793239E+02 0.  0.
         66    2    3    3    0    0 -0.11670733331E+02 -0.20524716001E+02 -0.62000505661E+03  0.62045768607E+03  0.19999993435E+01 0.  0.
        -13    1    3    3    0    0  0.11670733331E+02  0.20524716001E+02 -0.66038813578E+02  0.70132774408E+02  0.10566000000E+00 0.  1.
         13    1    4    4    0    0 -0.54043617001E+01 -0.95146888209E+01 -0.29162383615E+03  0.29182907566E+03  0.10566000000E+00 0. -1.
        -13    1    4    4    0    0 -0.12800654229E+01 -0.13533412308E+01 -0.54060841372E+02  0.54093029438E+02  0.10566000000E+00 0.  1.
        -14    1    4    4    0    0 -0.49863062083E+01 -0.96566859492E+01 -0.27432037909E+03  0.27453558097E+03  0.00000000000E+00 0.  1.
<mgrwt>
<rscale>  0 0.79113793E+02</rscale>
<asrwt>0</asrwt>
<pdfrwt beam="1">  1        2 0.10589478E+00 0.79113793E+02</pdfrwt>
<pdfrwt beam="2">  1       -1 0.34973826E-03 0.79113793E+02</pdfrwt>
<totfact> 0.34299917E+05</totfact>
</mgrwt>
</event>
<event>
 8    1  0.1627221E-013  0.7706422E+02  0.7818608E-02  0.1337595E+00
         -1   -1    0    0    0  501 -0.00000000000E+00  0.00000000000E+00  0.44435401831E+01  0.44435430414E+01  0.50400000000E-02 0.  1.
          2   -1    0    0  501    0  0.00000000000E+00 -0.00000000000E+00 -0.33413067320E+03  0.33413067321E+03  0.25500000000E-02 0. -1.
         24    2    1    2    0    0  0.00000000000E+00  0.00000000000E+00 -0.32968713302E+03  0.33857421625E+03  0.77064221485E+02 0.  0.
         66    2    3    3    0    0 -0.35543355485E+02 -0.86757005321E+01 -0.21769722378E+03  0.22075932401E+03  0.19999992222E+01 0.  0.
        -13    1    3    3    0    0  0.35543355485E+02  0.86757005321E+01 -0.11198990923E+03  0.11781489224E+03  0.10566000000E+00 0.  1.
         13    1    4    4    0    0 -0.15329830794E+02 -0.43865853372E+01 -0.96745483989E+02  0.98050730132E+02  0.10566000000E+00 0. -1.
        -13    1    4    4    0    0 -0.13938542142E+02 -0.33880612390E+01 -0.85214152799E+02  0.86413106166E+02  0.10566000000E+00 0. -1.
         14    1    4    4    0    0 -0.62749825492E+01 -0.90105395595E+00 -0.35737586997E+02  0.36295487717E+02  0.00000000000E+00 0. -1.
<mgrwt>
<rscale>  0 0.77064221E+02</rscale>
<asrwt>0</asrwt>
<pdfrwt beam="1">  1        2 0.51404699E-01 0.77064221E+02</pdfrwt>
<pdfrwt beam="2">  1       -1 0.68362205E-03 0.77064221E+02</pdfrwt>
<totfact> 0.29225693E+05</totfact>
</mgrwt>
</event>
<event>
 8    1  0.1627221E-013  0.7881248E+02  0.7818608E-02  0.1332456E+00
         -1   -1    0    0    0  501 -0.00000000000E+00  0.00000000000E+00  0.55973964364E+02  0.55973964591E+02  0.50400000000E-02 0.  1.
          2   -1    0    0  501    0  0.00000000000E+00 -0.00000000000E+00 -0.27742395646E+02  0.27742395763E+02  0.25500000000E-02 0. -1.
         24    2    1    2    0    0 -0.22204460493E-15  0.00000000000E+00  0.28231568718E+02  0.83716360353E+02  0.78812483266E+02 0.  0.
         66    2    3    3    0    0  0.19689470387E+01 -0.37973663573E+02  0.32418117453E+01  0.38214986800E+02  0.19999987833E+01 0.  0.
        -13    1    3    3    0    0 -0.19689470387E+01  0.37973663573E+02  0.24989756973E+02  0.45501373553E+02  0.10566000000E+00 0.  1.
         13    1    4    4    0    0 -0.15593148021E+00 -0.85522584549E+00  0.24614799550E+00  0.90965858684E+00  0.10566000000E+00 0.  1.
        -13    1    4    4    0    0  0.17676207843E+01 -0.25823520816E+02  0.20402814471E+01  0.25964449214E+02  0.10566000000E+00 0. -1.
         14    1    4    4    0    0  0.35725773463E+00 -0.11294916912E+02  0.95538230270E+00  0.11340879000E+02  0.00000000000E+00 0. -1.
<mgrwt>
<rscale>  0 0.78812483E+02</rscale>
<asrwt>0</asrwt>
<pdfrwt beam="1">  1        2 0.42680609E-02 0.78812483E+02</pdfrwt>
<pdfrwt beam="2">  1       -1 0.86113792E-02 0.78812483E+02</pdfrwt>
<totfact> 0.13818265E+05</totfact>
</mgrwt>
</event>
<event>
 8    1  0.1627221E-013  0.7891353E+02  0.7818608E-02  0.1332163E+00
          2   -1    0    0  501    0  0.00000000000E+00  0.00000000000E+00  0.67400131566E+02  0.67400131614E+02  0.25500000000E-02 0. -1.
         -1   -1    0    0    0  501 -0.00000000000E+00 -0.00000000000E+00 -0.23098417771E+02  0.23098418321E+02  0.50400000000E-02 0.  1.
         24    2    1    2    0    0  0.11102230246E-15 -0.71054273576E-14  0.44301713795E+02  0.90498549935E+02  0.78913533030E+02 0.  0.
         66    2    3    3    0    0  0.59687804269E+00 -0.32603251400E+02  0.47589597852E+02  0.57724328192E+02  0.19999940684E+01 0.  0.
        -13    1    3    3    0    0 -0.59687804269E+00  0.32603251400E+02 -0.32878840569E+01  0.32774221743E+02  0.10566000000E+00 0.  1.
         13    1    4    4    0    0  0.21562919135E+00 -0.11965947175E+02  0.18680482816E+02  0.22185625752E+02  0.10566000000E+00 0. -1.
        -13    1    4    4    0    0  0.48933368259E+00 -0.85484909543E+01  0.11262492103E+02  0.14148181419E+02  0.10566000000E+00 0.  1.
         14    1    4    4    0    0 -0.10808483126E+00 -0.12088813271E+02  0.17646622932E+02  0.21390521021E+02  0.00000000000E+00 0. -1.
<mgrwt>
<rscale>  0 0.78913533E+02</rscale>
<asrwt>0</asrwt>
<pdfrwt beam="1">  1        2 0.10369251E-01 0.78913533E+02</pdfrwt>
<pdfrwt beam="2">  1       -1 0.35536028E-02 0.78913533E+02</pdfrwt>
<totfact> 0.16602454E+05</totfact>
</mgrwt>
</event>
<event>
 8    1  0.1627221E-013  0.8144601E+02  0.7818608E-02  0.1324997E+00
         -1   -1    0    0    0  501 -0.00000000000E+00  0.00000000000E+00  0.23681315756E+01  0.23681369388E+01  0.50400000000E-02 0.  1.
          2   -1    0    0  501    0  0.00000000000E+00 -0.00000000000E+00 -0.70028248606E+03  0.70028248607E+03  0.25500000000E-02 0. -1.
         24    2    1    2    0    0  0.00000000000E+00 -0.35527136788E-14 -0.69791435449E+03  0.70265062301E+03  0.81446005500E+02 0.  0.
         66    2    3    3    0    0  0.32546747922E+02  0.16697011508E+02 -0.50307893363E+03  0.50441103721E+03  0.19999998643E+01 0.  0.
        -13    1    3    3    0    0 -0.32546747922E+02 -0.16697011508E+02 -0.19483542086E+03  0.19823958580E+03  0.10566000000E+00 0.  1.
         13    1    4    4    0    0  0.14660686145E+02  0.85784010385E+01 -0.23516105495E+03  0.23577374241E+03  0.10566000000E+00 0. -1.
        -13    1    4    4    0    0  0.35588899582E+01  0.14662145618E+01 -0.53032799373E+02  0.53172403145E+02  0.10566000000E+00 0.  1.
         14    1    4    4    0    0  0.14327171819E+02  0.66523959080E+01 -0.21488507931E+03  0.21546489165E+03  0.00000000000E+00 0. -1.
<mgrwt>
<rscale>  0 0.81446005E+02</rscale>
<asrwt>0</asrwt>
<pdfrwt beam="1">  1        2 0.10773560E+00 0.81446005E+02</pdfrwt>
<pdfrwt beam="2">  1       -1 0.36432891E-03 0.81446005E+02</pdfrwt>
<totfact> 0.31931292E+05</totfact>
</mgrwt>
</event>
<event>
 8    1  0.1627221E-013  0.7931204E+02  0.7818608E-02  0.1331015E+00
         -1   -1    0    0    0  501 -0.00000000000E+00  0.00000000000E+00  0.23618435236E+01  0.23618489011E+01  0.50400000000E-02 0.  1.
          2   -1    0    0  501    0  0.00000000000E+00 -0.00000000000E+00 -0.66583508610E+03  0.66583508610E+03  0.25500000000E-02 0. -1.
         24    2    1    2    0    0  0.11102230246E-15  0.00000000000E+00 -0.66347324257E+03  0.66819693500E+03  0.79312044083E+02 0.  0.
         66    2    3    3    0    0  0.71028299057E+00 -0.25630368512E+02 -0.58653754585E+03  0.58710110967E+03  0.19999982760E+01 0.  0.
        -13    1    3    3    0    0 -0.71028299057E+00  0.25630368512E+02 -0.76935696727E+02  0.81095825335E+02  0.10566000000E+00 0.  1.
         13    1    4    4    0    0  0.19503031373E+00 -0.95033400484E+01 -0.20783957768E+03  0.20805684974E+03  0.10566000000E+00 0. -1.
        -13    1    4    4    0    0  0.75485555430E+00 -0.12179326881E+02 -0.27397380308E+03  0.27424544071E+03  0.10566000000E+00 0.  1.
        -14    1    4    4    0    0 -0.23960287747E+00 -0.39477015822E+01 -0.10472416508E+03  0.10479881922E+03  0.00000000000E+00 0.  1.
<mgrwt>
<rscale>  0 0.79312044E+02</rscale>
<asrwt>0</asrwt>
<pdfrwt beam="1">  1        2 0.10243602E+00 0.79312044E+02</pdfrwt>
<pdfrwt beam="2">  1       -1 0.36336149E-03 0.79312044E+02</pdfrwt>
<totfact> 0.33806447E+05</totfact>
</mgrwt>
</event>
<event>
 8    1  0.1627221E-013  0.7868787E+02  0.7818608E-02  0.1332817E+00
         -1   -1    0    0    0  501 -0.00000000000E+00  0.00000000000E+00  0.98974471163E+02  0.98974471291E+02  0.50400000000E-02 0.  1.
          2   -1    0    0  501    0  0.00000000000E+00 -0.00000000000E+00 -0.15639842227E+02  0.15639842435E+02  0.25500000000E-02 0. -1.
         24    2    1    2    0    0  0.00000000000E+00  0.00000000000E+00  0.83334628936E+02  0.11461431373E+03  0.78687867749E+02 0.  0.
         66    2    3    3    0    0 -0.14398117131E+02  0.10427383540E+02 -0.93877030634E+01  0.20203095537E+02  0.19999990162E+01 0.  0.
        -13    1    3    3    0    0  0.14398117131E+02 -0.10427383540E+02  0.92722331999E+02  0.94411218189E+02  0.10566000000E+00 0.  1.
         13    1    4    4    0    0 -0.27969997646E+01  0.15771626116E+01 -0.24541497764E+01  0.40428535402E+01  0.10566000000E+00 0. -1.
        -13    1    4    4    0    0 -0.76834154871E+01  0.59323632402E+01 -0.48043906041E+01  0.10831488368E+02  0.10566000000E+00 0.  1.
         14    1    4    4    0    0 -0.39177018789E+01  0.29178576886E+01 -0.21291626829E+01  0.53287536284E+01  0.00000000000E+00 0. -1.
<mgrwt>
<rscale>  0 0.78687868E+02</rscale>
<asrwt>0</asrwt>
<pdfrwt beam="1">  1        2 0.24061296E-02 0.78687868E+02</pdfrwt>
<pdfrwt beam="2">  1       -1 0.15226842E-01 0.78687868E+02</pdfrwt>
<totfact> 0.12378878E+05</totfact>
</mgrwt>
</event>
<event>
 8    1  0.1627221E-013  0.7777125E+02  0.7818608E-02  0.1335498E+00
         -1   -1    0    0    0  501 -0.00000000000E+00  0.00000000000E+00  0.81640523956E+02  0.81640524111E+02  0.50400000000E-02 0.  1.
          2   -1    0    0  501    0  0.00000000000E+00 -0.00000000000E+00 -0.18521337114E+02  0.18521337289E+02  0.25500000000E-02 0. -1.
         24    2    1    2    0    0  0.00000000000E+00 -0.35527136788E-14  0.63119186842E+02  0.10016186140E+03  0.77771246175E+02 0.  0.
         66    2    3    3    0    0 -0.91840056016E+01  0.29895082536E+02  0.18740574152E+01  0.31393853132E+02  0.20000011345E+01 0.  0.
        -13    1    3    3    0    0  0.91840056016E+01 -0.29895082536E+02  0.61245129427E+02  0.68768008269E+02  0.10566000000E+00 0.  1.
         13    1    4    4    0    0 -0.61045618087E+01  0.18309539508E+02  0.87741889082E+00  0.19320609199E+02  0.10566000000E+00 0. -1.
        -13    1    4    4    0    0 -0.23636468871E+01  0.69676160133E+01  0.55122772345E+00  0.73789914998E+01  0.10566000000E+00 0.  1.
         14    1    4    4    0    0 -0.71579690581E+00  0.46179270146E+01  0.44541080097E+00  0.46942524330E+01  0.00000000000E+00 0. -1.
<mgrwt>
<rscale>  0 0.77771246E+02</rscale>
<asrwt>0</asrwt>
<pdfrwt beam="1">  1        2 0.28494365E-02 0.77771246E+02</pdfrwt>
<pdfrwt beam="2">  1       -1 0.12560081E-01 0.77771246E+02</pdfrwt>
<totfact> 0.13258728E+05</totfact>
</mgrwt>
</event>
<event>
 8    1  0.1627221E-013  0.8951397E+02  0.7818608E-02  0.1304033E+00
         -1   -1    0    0    0  501 -0.00000000000E+00  0.00000000000E+00  0.31254934218E+02  0.31254934624E+02  0.50400000000E-02 0.  1.
          2   -1    0    0  501    0  0.00000000000E+00 -0.00000000000E+00 -0.64091885028E+02  0.64091885079E+02  0.25500000000E-02 0. -1.
         24    2    1    2    0    0  0.35527136788E-14 -0.17763568394E-14 -0.32836950811E+02  0.95346819703E+02  0.89513969239E+02 0.  0.
         66    2    3    3    0    0 -0.26526152062E+02  0.12073829302E+02 -0.52575790642E+02  0.60146719431E+02  0.19999998742E+01 0.  0.
        -13    1    3    3    0    0  0.26526152062E+02 -0.12073829302E+02  0.19738839831E+02  0.35200100272E+02  0.10566000000E+00 0.  1.
         13    1    4    4    0    0 -0.15115529419E+02  0.67994571121E+01 -0.28498211044E+02  0.32967727301E+02  0.10566000000E+00 0. -1.
        -13    1    4    4    0    0 -0.70467606694E+01  0.28523114334E+01 -0.15165333394E+02  0.16964404423E+02  0.10566000000E+00 0.  1.
        -14    1    4    4    0    0 -0.43638619735E+01  0.24220607561E+01 -0.89122462040E+01  0.10214587707E+02  0.00000000000E+00 0.  1.
<mgrwt>
<rscale>  0 0.89513969E+02</rscale>
<asrwt>0</asrwt>
<pdfrwt beam="1">  1        2 0.98602900E-02 0.89513969E+02</pdfrwt>
<pdfrwt beam="2">  1       -1 0.48084515E-02 0.89513969E+02</pdfrwt>
<totfact> 0.11624633E+05</totfact>
</mgrwt>
</event>
<event>
 8    1  0.1627221E-013  0.7688209E+02  0.7818608E-02  0.1338140E+00
          2   -1    0    0  501    0  0.00000000000E+00  0.00000000000E+00  0.37338277996E+02  0.37338278083E+02  0.25500000000E-02 0. -1.
         -1   -1    0    0    0  501 -0.00000000000E+00 -0.00000000000E+00 -0.39576385283E+02  0.39576385604E+02  0.50400000000E-02 0.  1.
         24    2    1    2    0    0  0.00000000000E+00  0.00000000000E+00 -0.22381072867E+01  0.76914663687E+02  0.76882093923E+02 0.  0.
         66    2    3    3    0    0 -0.20816743058E+02  0.28098374300E+02  0.14788303861E+02  0.38020380426E+02  0.19999917074E+01 0.  0.
        -13    1    3    3    0    0  0.20816743058E+02 -0.28098374300E+02 -0.17026411147E+02  0.38894283261E+02  0.10566000000E+00 0.  1.
         13    1    4    4    0    0 -0.42634179084E+01  0.62035126139E+01  0.35852588718E+01  0.83381980203E+01  0.10566000000E+00 0. -1.
        -13    1    4    4    0    0 -0.13785883432E+02  0.18224193011E+02  0.87296377664E+01  0.24462001808E+02  0.10566000000E+00 0.  1.
        -14    1    4    4    0    0 -0.27674417178E+01  0.36706686750E+01  0.24734072224E+01  0.52201805975E+01  0.00000000000E+00 0.  1.
<mgrwt>
<rscale>  0 0.76882094E+02</rscale>
<asrwt>0</asrwt>
<pdfrwt beam="1">  1        2 0.57443505E-02 0.76882094E+02</pdfrwt>
<pdfrwt beam="2">  1       -1 0.60886747E-02 0.76882094E+02</pdfrwt>
<totfact> 0.15689072E+05</totfact>
</mgrwt>
</event>
<event>
 8    1  0.1627221E-013  0.8391170E+02  0.7818608E-02  0.1318303E+00
         -1   -1    0    0    0  501 -0.00000000000E+00  0.00000000000E+00  0.37488807837E+02  0.37488808175E+02  0.50400000000E-02 0.  1.
          2   -1    0    0  501    0  0.00000000000E+00 -0.00000000000E+00 -0.46955164205E+02  0.46955164275E+02  0.25500000000E-02 0. -1.
         24    2    1    2    0    0  0.00000000000E+00  0.00000000000E+00 -0.94663563687E+01  0.84443972450E+02  0.83911695134E+02 0.  0.
         66    2    3    3    0    0 -0.33561518557E+02 -0.20267631547E+02 -0.19700821061E+02  0.43923510361E+02  0.19999988846E+01 0.  0.
        -13    1    3    3    0    0  0.33561518557E+02  0.20267631547E+02  0.10234464693E+02  0.40520462089E+02  0.10566000000E+00 0.  1.
         13    1    4    4    0    0 -0.34500917732E+01 -0.15839708688E+01 -0.21778748074E+01  0.43779446854E+01  0.10566000000E+00 0. -1.
        -13    1    4    4    0    0 -0.47869226413E+01 -0.29950425997E+01 -0.31946523397E+01  0.64885958539E+01  0.10566000000E+00 0.  1.
         14    1    4    4    0    0 -0.25324504142E+02 -0.15688618079E+02 -0.14328293914E+02  0.33056969821E+02  0.00000000000E+00 0. -1.
<mgrwt>
<rscale>  0 0.83911695E+02</rscale>
<asrwt>0</asrwt>
<pdfrwt beam="1">  1        2 0.72238715E-02 0.83911695E+02</pdfrwt>
<pdfrwt beam="2">  1       -1 0.57675089E-02 0.83911695E+02</pdfrwt>
<totfact> 0.12924744E+05</totfact>
</mgrwt>
</event>
<event>
 8    1  0.1627221E-013  0.7976124E+02  0.7818608E-02  0.1329730E+00
          2   -1    0    0  501    0  0.00000000000E+00  0.00000000000E+00  0.32126745687E+03  0.32126745688E+03  0.25500000000E-02 0. -1.
         -1   -1    0    0    0  501 -0.00000000000E+00 -0.00000000000E+00 -0.49505900478E+01  0.49505926133E+01  0.50400000000E-02 0.  1.
         24    2    1    2    0    0  0.00000000000E+00 -0.17763568394E-14  0.31631686683E+03  0.32621804950E+03  0.79761241084E+02 0.  0.
         66    2    3    3    0    0 -0.23950785124E+02 -0.14436114909E+02  0.27440139800E+03  0.27582996348E+03  0.20000015162E+01 0.  0.
        -13    1    3    3    0    0  0.23950785124E+02  0.14436114909E+02  0.41915468822E+02  0.50388086016E+02  0.10566000000E+00 0.  1.
         13    1    4    4    0    0 -0.52045838251E+01 -0.33247159831E+01  0.67201123083E+02  0.67484394765E+02  0.10566000000E+00 0. -1.
        -13    1    4    4    0    0 -0.34490083538E+01 -0.24901431990E+01  0.41213697095E+02  0.41432794548E+02  0.10566000000E+00 0.  1.
         14    1    4    4    0    0 -0.15297192945E+02 -0.86212557272E+01  0.16598657783E+03  0.16691277417E+03  0.00000000000E+00 0. -1.
<mgrwt>
<rscale>  0 0.79761241E+02</rscale>
<asrwt>0</asrwt>
<pdfrwt beam="1">  1        2 0.49425764E-01 0.79761241E+02</pdfrwt>
<pdfrwt beam="2">  1       -1 0.76162942E-03 0.79761241E+02</pdfrwt>
<totfact> 0.26338850E+05</totfact>
</mgrwt>
</event>
<event>
 8    1  0.1627221E-013  0.7985640E+02  0.7818608E-02  0.1329459E+00
          2   -1    0    0  501    0  0.00000000000E+00  0.00000000000E+00  0.98674126498E+02  0.98674126531E+02  0.25500000000E-02 0. -1.
         -1   -1    0    0    0  501 -0.00000000000E+00 -0.00000000000E+00 -0.16156831428E+02  0.16156832215E+02  0.50400000000E-02 0.  1.
         24    2    1    2    0    0  0.00000000000E+00  0.35527136788E-14  0.82517295069E+02  0.11483095875E+03  0.79856403004E+02 0.  0.
         66    2    3    3    0    0 -0.15529822257E+02 -0.31244339614E+02  0.13443070033E+02  0.37444630071E+02  0.20000130029E+01 0.  0.
        -13    1    3    3    0    0  0.15529822257E+02  0.31244339614E+02  0.69074225036E+02  0.77386328674E+02  0.10566000000E+00 0.  1.
         13    1    4    4    0    0 -0.61871393951E+01 -0.10908000271E+02  0.47769726500E+01  0.13419977479E+02  0.10566000000E+00 0. -1.
        -13    1    4    4    0    0 -0.58452288952E+01 -0.13957081277E+02  0.58222099337E+01  0.16213454634E+02  0.10566000000E+00 0.  1.
        -14    1    4    4    0    0 -0.34974539663E+01 -0.63792580663E+01  0.28438874495E+01  0.78111979586E+01  0.00000000000E+00 0.  1.
<mgrwt>
<rscale>  0 0.79856403E+02</rscale>
<asrwt>0</asrwt>
<pdfrwt beam="1">  1        2 0.15180635E-01 0.79856403E+02</pdfrwt>
<pdfrwt beam="2">  1       -1 0.24856664E-02 0.79856403E+02</pdfrwt>
<totfact> 0.17745136E+05</totfact>
</mgrwt>
</event>
<event>
 8    1  0.1627221E-013  0.8167403E+02  0.7818608E-02  0.1324367E+00
         -1   -1    0    0    0  501 -0.00000000000E+00  0.00000000000E+00  0.57001921197E+02  0.57001921420E+02  0.50400000000E-02 0.  1.
          2   -1    0    0  501    0  0.00000000000E+00 -0.00000000000E+00 -0.29256237368E+02  0.29256237480E+02  0.25500000000E-02 0. -1.
         24    2    1    2    0    0  0.00000000000E+00  0.00000000000E+00  0.27745683829E+02  0.86258158899E+02  0.81674028954E+02 0.  0.
         66    2    3    3    0    0  0.92679768233E+01 -0.39040693808E+02  0.21755172618E+02  0.45687620870E+02  0.19999994383E+01 0.  0.
        -13    1    3    3    0    0 -0.92679768233E+01  0.39040693808E+02  0.59905112109E+01  0.40570538029E+02  0.10566000000E+00 0.  1.
         13    1    4    4    0    0  0.33818838301E+01 -0.13597439734E+02  0.76332805552E+01  0.15956366805E+02  0.10566000000E+00 0. -1.
        -13    1    4    4    0    0  0.23566198859E+01 -0.12013628029E+02  0.58553846097E+01  0.13571205129E+02  0.10566000000E+00 0.  1.
        -14    1    4    4    0    0  0.35294731073E+01 -0.13429626045E+02  0.82665074527E+01  0.16160048936E+02  0.00000000000E+00 0.  1.
<mgrwt>
<rscale>  0 0.81674029E+02</rscale>
<asrwt>0</asrwt>
<pdfrwt beam="1">  1        2 0.45009597E-02 0.81674029E+02</pdfrwt>
<pdfrwt beam="2">  1       -1 0.87695262E-02 0.81674029E+02</pdfrwt>
<totfact> 0.12631443E+05</totfact>
</mgrwt>
</event>
<event>
 8    1  0.1627221E-013  0.7939147E+02  0.7818608E-02  0.1330787E+00
         -1   -1    0    0    0  501 -0.00000000000E+00  0.00000000000E+00  0.10743948890E+02  0.10743950072E+02  0.50400000000E-02 0.  1.
          2   -1    0    0  501    0  0.00000000000E+00 -0.00000000000E+00 -0.14666406114E+03  0.14666406117E+03  0.25500000000E-02 0. -1.
         24    2    1    2    0    0 -0.35527136788E-14  0.00000000000E+00 -0.13592011225E+03  0.15740801124E+03  0.79391467343E+02 0.  0.
         66    2    3    3    0    0 -0.17226473030E+02 -0.33372683895E+02 -0.93336346418E+02  0.10062882773E+03  0.20000009209E+01 0.  0.
        -13    1    3    3    0    0  0.17226473030E+02  0.33372683895E+02 -0.42583765837E+02  0.56779183512E+02  0.10566000000E+00 0.  1.
         13    1    4    4    0    0 -0.14348828861E+01 -0.27098822593E+01 -0.69718977120E+01  0.76171433293E+01  0.10566000000E+00 0. -1.
        -13    1    4    4    0    0 -0.66132850013E+01 -0.14149811757E+02 -0.40620025020E+02  0.43519539381E+02  0.10566000000E+00 0.  1.
        -14    1    4    4    0    0 -0.91783051422E+01 -0.16512989879E+02 -0.45744423686E+02  0.49492145017E+02  0.00000000000E+00 0.  1.
<mgrwt>
<rscale>  0 0.79391467E+02</rscale>
<asrwt>0</asrwt>
<pdfrwt beam="1">  1        2 0.22563700E-01 0.79391467E+02</pdfrwt>
<pdfrwt beam="2">  1       -1 0.16529154E-02 0.79391467E+02</pdfrwt>
<totfact> 0.20292905E+05</totfact>
</mgrwt>
</event>
<event>
 8    1  0.1627221E-013  0.7710705E+02  0.7818608E-02  0.1337468E+00
          2   -1    0    0  501    0  0.00000000000E+00  0.00000000000E+00  0.10670261174E+04  0.10670261175E+04  0.25500000000E-02 0. -1.
         -1   -1    0    0    0  501 -0.00000000000E+00 -0.00000000000E+00 -0.13930020005E+01  0.13930111180E+01  0.50400000000E-02 0.  1.
         24    2    1    2    0    0  0.17763568394E-14  0.00000000000E+00  0.10656331154E+04  0.10684191286E+04  0.77107052556E+02 0.  0.
         66    2    3    3    0    0 -0.12355534554E+02 -0.81525280730E+01  0.10260471399E+04  0.10261558635E+04  0.20000006488E+01 0.  0.
        -13    1    3    3    0    0  0.12355534554E+02  0.81525280730E+01  0.39585975552E+02  0.42263265048E+02  0.10566000000E+00 0.  1.
         13    1    4    4    0    0 -0.76741822382E+01 -0.53872948693E+01  0.61508350921E+03  0.61515498086E+03  0.10566000000E+00 0. -1.
        -13    1    4    4    0    0 -0.22633655103E+01 -0.13737503295E+01  0.16266848426E+03  0.16269006407E+03  0.10566000000E+00 0.  1.
         14    1    4    4    0    0 -0.24179868051E+01 -0.13914828742E+01  0.24829514643E+03  0.24831081859E+03  0.00000000000E+00 0. -1.
<mgrwt>
<rscale>  0 0.77107053E+02</rscale>
<asrwt>0</asrwt>
<pdfrwt beam="1">  1        2 0.16415760E+00 0.77107053E+02</pdfrwt>
<pdfrwt beam="2">  1       -1 0.21430905E-03 0.77107053E+02</pdfrwt>
<totfact> 0.38804546E+05</totfact>
</mgrwt>
</event>
<event>
 8    1  0.1627221E-013  0.7914587E+02  0.7818608E-02  0.1331493E+00
          2   -1    0    0  501    0  0.00000000000E+00  0.00000000000E+00  0.69722875394E+03  0.69722875395E+03  0.25500000000E-02 0. -1.
         -1   -1    0    0    0  501 -0.00000000000E+00 -0.00000000000E+00 -0.22460564409E+01  0.22460620957E+01  0.50400000000E-02 0.  1.
         24    2    1    2    0    0  0.00000000000E+00 -0.35527136788E-14  0.69498269750E+03  0.69947481604E+03  0.79145868190E+02 0.  0.
         66    2    3    3    0    0  0.30804646867E+01  0.24684080399E+02  0.61942540961E+03  0.61992792417E+03  0.20000042845E+01 0.  0.
        -13    1    3    3    0    0 -0.30804646867E+01 -0.24684080399E+02  0.75557287894E+02  0.79546891868E+02  0.10566000000E+00 0.  1.
         13    1    4    4    0    0  0.23925875580E+01  0.16201910035E+02  0.42249693507E+03  0.42281425907E+03  0.10566000000E+00 0. -1.
        -13    1    4    4    0    0  0.52044795237E+00  0.73312782241E+01  0.16395594980E+03  0.16412063596E+03  0.10566000000E+00 0.  1.
        -14    1    4    4    0    0  0.16742917639E+00  0.11508921404E+01  0.32972524731E+02  0.32993029148E+02  0.00000000000E+00 0.  1.
<mgrwt>
<rscale>  0 0.79145868E+02</rscale>
<asrwt>0</asrwt>
<pdfrwt beam="1">  1        2 0.10726599E+00 0.79145868E+02</pdfrwt>
<pdfrwt beam="2">  1       -1 0.34554749E-03 0.79145868E+02</pdfrwt>
<totfact> 0.34366462E+05</totfact>
</mgrwt>
</event>
<event>
 8    1  0.1627221E-013  0.8066963E+02  0.7818608E-02  0.1327162E+00
          2   -1    0    0  501    0  0.00000000000E+00  0.00000000000E+00  0.50705034498E+03  0.50705034499E+03  0.25500000000E-02 0. -1.
         -1   -1    0    0    0  501 -0.00000000000E+00 -0.00000000000E+00 -0.32085499997E+01  0.32085539581E+01  0.50400000000E-02 0.  1.
         24    2    1    2    0    0  0.00000000000E+00  0.00000000000E+00  0.50384179498E+03  0.51025889894E+03  0.80669632347E+02 0.  0.
         66    2    3    3    0    0 -0.13947944752E+02 -0.25801562998E+02  0.42698151639E+03  0.42799238446E+03  0.20000008480E+01 0.  0.
        -13    1    3    3    0    0  0.13947944752E+02  0.25801562998E+02  0.76860278588E+02  0.82266514480E+02  0.10566000000E+00 0.  1.
         13    1    4    4    0    0 -0.45592872236E+01 -0.88058096026E+01  0.13536325289E+03  0.13572601365E+03  0.10566000000E+00 0. -1.
        -13    1    4    4    0    0 -0.85513101223E-01 -0.34308689699E+00  0.44512568588E+01  0.44665280440E+01  0.10566000000E+00 0. -1.
        -14    1    4    4    0    0 -0.93031444277E+01 -0.16652666498E+02  0.28716700664E+03  0.28779984277E+03  0.00000000000E+00 0.  1.
<mgrwt>
<rscale>  0 0.80669632E+02</rscale>
<asrwt>0</asrwt>
<pdfrwt beam="1">  1        2 0.78007760E-01 0.80669632E+02</pdfrwt>
<pdfrwt beam="2">  1       -1 0.49362329E-03 0.80669632E+02</pdfrwt>
<totfact> 0.29929461E+05</totfact>
</mgrwt>
</event>
<event>
 8    1  0.1627221E-013  0.7956397E+02  0.7818608E-02  0.1330293E+00
         -1   -1    0    0    0  501 -0.00000000000E+00  0.00000000000E+00  0.27255244604E+02  0.27255245070E+02  0.50400000000E-02 0.  1.
          2   -1    0    0  501    0  0.00000000000E+00 -0.00000000000E+00 -0.58066113491E+02  0.58066113547E+02  0.25500000000E-02 0. -1.
         24    2    1    2    0    0  0.00000000000E+00  0.00000000000E+00 -0.30810868887E+02  0.85321358617E+02  0.79563965428E+02 0.  0.
         66    2    3    3    0    0 -0.26673430832E+02 -0.24935621157E+02 -0.32280365245E+02  0.48777854428E+02  0.19999968686E+01 0.  0.
        -13    1    3    3    0    0  0.26673430832E+02  0.24935621157E+02  0.14694963580E+01  0.36543504189E+02  0.10566000000E+00 0.  1.
         13    1    4    4    0    0 -0.11402088032E+02 -0.11010328915E+02 -0.15038210971E+02  0.21849345701E+02  0.10566000000E+00 0. -1.
        -13    1    4    4    0    0 -0.95130476557E+01 -0.85750998036E+01 -0.11204317257E+02  0.17017000370E+02  0.10566000000E+00 0. -1.
         14    1    4    4    0    0 -0.57582951434E+01 -0.53501924386E+01 -0.60378370165E+01  0.99115083578E+01  0.00000000000E+00 0. -1.
<mgrwt>
<rscale>  0 0.79563965E+02</rscale>
<asrwt>0</asrwt>
<pdfrwt beam="1">  1        2 0.89332483E-02 0.79563965E+02</pdfrwt>
<pdfrwt beam="2">  1       -1 0.41931146E-02 0.79563965E+02</pdfrwt>
<totfact> 0.15681142E+05</totfact>
</mgrwt>
</event>
<event>
 8    1  0.1627221E-013  0.7319614E+02  0.7818608E-02  0.1349550E+00
         -1   -1    0    0    0  501 -0.00000000000E+00  0.00000000000E+00  0.19564459075E+02  0.19564459725E+02  0.50400000000E-02 0.  1.
          2   -1    0    0  501    0  0.00000000000E+00 -0.00000000000E+00 -0.68461826799E+02  0.68461826847E+02  0.25500000000E-02 0. -1.
         24    2    1    2    0    0  0.00000000000E+00  0.00000000000E+00 -0.48897367724E+02  0.88026286571E+02  0.73196137584E+02 0.  0.
         66    2    3    3    0    0 -0.95514261021E+01 -0.98913055556E+01 -0.65219983556E+02  0.66683685563E+02  0.19999997651E+01 0.  0.
        -13    1    3    3    0    0  0.95514261021E+01  0.98913055556E+01  0.16322615832E+02  0.21342601009E+02  0.10566000000E+00 0.  1.
         13    1    4    4    0    0 -0.25810455120E+01 -0.34271320702E+01 -0.20590877284E+02  0.21033364484E+02  0.10566000000E+00 0. -1.
        -13    1    4    4    0    0 -0.10633763195E+01 -0.16555895062E+01 -0.81973724985E+01  0.84308852278E+01  0.10566000000E+00 0.  1.
         14    1    4    4    0    0 -0.59070042706E+01 -0.48085839792E+01 -0.36431733773E+02  0.37219435851E+02  0.00000000000E+00 0. -1.
<mgrwt>
<rscale>  0 0.73196138E+02</rscale>
<asrwt>0</asrwt>
<pdfrwt beam="1">  1        2 0.10532589E-01 0.73196138E+02</pdfrwt>
<pdfrwt beam="2">  1       -1 0.30099169E-02 0.73196138E+02</pdfrwt>
<totfact> 0.20399554E+05</totfact>
</mgrwt>
</event>
<event>
 8    1  0.1627221E-013  0.7923171E+02  0.7818608E-02  0.1331246E+00
          2   -1    0    0  501    0  0.00000000000E+00  0.00000000000E+00  0.55408644819E+03  0.55408644820E+03  0.25500000000E-02 0. -1.
         -1   -1    0    0    0  501 -0.00000000000E+00 -0.00000000000E+00 -0.28324363663E+01  0.28324408504E+01  0.50400000000E-02 0.  1.
         24    2    1    2    0    0  0.00000000000E+00 -0.35527136788E-14  0.55125401183E+03  0.55691888905E+03  0.79231707194E+02 0.  0.
         66    2    3    3    0    0 -0.15378945090E+02  0.16100867429E+02  0.50590480664E+03  0.50639848268E+03  0.20000003241E+01 0.  0.
        -13    1    3    3    0    0  0.15378945090E+02 -0.16100867429E+02  0.45349205191E+02  0.50520406368E+02  0.10566000000E+00 0.  1.
         13    1    4    4    0    0 -0.35567745890E+01  0.36873439873E+01  0.12324575545E+03  0.12335223773E+03  0.10566000000E+00 0. -1.
        -13    1    4    4    0    0 -0.68294526712E+01  0.66923948114E+01  0.19690812449E+03  0.19714017913E+03  0.10566000000E+00 0.  1.
        -14    1    4    4    0    0 -0.49927178303E+01  0.57211286299E+01  0.18575092669E+03  0.18590606583E+03  0.00000000000E+00 0.  1.
<mgrwt>
<rscale>  0 0.79231707E+02</rscale>
<asrwt>0</asrwt>
<pdfrwt beam="1">  1        2 0.85244074E-01 0.79231707E+02</pdfrwt>
<pdfrwt beam="2">  1       -1 0.43575976E-03 0.79231707E+02</pdfrwt>
<totfact> 0.32232089E+05</totfact>
</mgrwt>
</event>
<event>
 8    1  0.1627221E-013  0.7942823E+02  0.7818608E-02  0.1330682E+00
          2   -1    0    0  501    0  0.00000000000E+00  0.00000000000E+00  0.21814775585E+03  0.21814775587E+03  0.25500000000E-02 0. -1.
         -1   -1    0    0    0  501 -0.00000000000E+00 -0.00000000000E+00 -0.72300109978E+01  0.72300127545E+01  0.50400000000E-02 0.  1.
         24    2    1    2    0    0 -0.17763568394E-14  0.00000000000E+00  0.21091774486E+03  0.22537776862E+03  0.79428228574E+02 0.  0.
         66    2    3    3    0    0  0.13149316918E+02 -0.47337570773E+00  0.21177389566E+03  0.21219168588E+03  0.20000127688E+01 0.  0.
        -13    1    3    3    0    0 -0.13149316918E+02  0.47337570773E+00 -0.85615080573E+00  0.13186082747E+02  0.10566000000E+00 0.  1.
         13    1    4    4    0    0  0.51722308591E+01  0.53133290089E+00  0.90920247789E+02  0.91068858062E+02  0.10566000000E+00 0. -1.
        -13    1    4    4    0    0  0.57285675714E+01 -0.57661672598E+00  0.82182308393E+02  0.82383808787E+02  0.10566000000E+00 0.  1.
         14    1    4    4    0    0  0.22485184880E+01 -0.42809188265E+00  0.38671339481E+02  0.38739019028E+02  0.00000000000E+00 0. -1.
<mgrwt>
<rscale>  0 0.79428229E+02</rscale>
<asrwt>0</asrwt>
<pdfrwt beam="1">  1        2 0.33561193E-01 0.79428229E+02</pdfrwt>
<pdfrwt beam="2">  1       -1 0.11123095E-02 0.79428229E+02</pdfrwt>
<totfact> 0.23172985E+05</totfact>
</mgrwt>
</event>
<event>
 8    1  0.1627221E-013  0.8000550E+02  0.7818608E-02  0.1329036E+00
         -1   -1    0    0    0  501 -0.00000000000E+00  0.00000000000E+00  0.43479802118E+02  0.43479802410E+02  0.50400000000E-02 0.  1.
          2   -1    0    0  501    0  0.00000000000E+00 -0.00000000000E+00 -0.36803750634E+02  0.36803750722E+02  0.25500000000E-02 0. -1.
         24    2    1    2    0    0  0.00000000000E+00  0.00000000000E+00  0.66760514836E+01  0.80283553132E+02  0.80005495062E+02 0.  0.
         66    2    3    3    0    0 -0.44068005491E+01 -0.91967785875E+01 -0.35449306506E+02  0.36941223046E+02  0.20000002293E+01 0.  0.
        -13    1    3    3    0    0  0.44068005491E+01  0.91967785875E+01  0.42125357990E+02  0.43342330086E+02  0.10566000000E+00 0.  1.
         13    1    4    4    0    0 -0.10609415567E+01 -0.30857095948E+01 -0.10979061479E+02  0.11454176343E+02  0.10566000000E+00 0. -1.
        -13    1    4    4    0    0 -0.13417646132E+01 -0.13695345126E+01 -0.52778324346E+01  0.56162831393E+01  0.10566000000E+00 0.  1.
        -14    1    4    4    0    0 -0.20040943793E+01 -0.47415344800E+01 -0.19192412593E+02  0.19870763564E+02  0.00000000000E+00 0.  1.
<mgrwt>
<rscale>  0 0.80005495E+02</rscale>
<asrwt>0</asrwt>
<pdfrwt beam="1">  1        2 0.56621155E-02 0.80005495E+02</pdfrwt>
<pdfrwt beam="2">  1       -1 0.66892004E-02 0.80005495E+02</pdfrwt>
<totfact> 0.14012533E+05</totfact>
</mgrwt>
</event>
<event>
 8    1  0.1627221E-013  0.8009715E+02  0.7818608E-02  0.1328776E+00
         -1   -1    0    0    0  501 -0.00000000000E+00  0.00000000000E+00  0.52593748076E+02  0.52593748317E+02  0.50400000000E-02 0.  1.
          2   -1    0    0  501    0  0.00000000000E+00 -0.00000000000E+00 -0.30495795773E+02  0.30495795879E+02  0.25500000000E-02 0. -1.
         24    2    1    2    0    0 -0.35527136788E-14 -0.35527136788E-14  0.22097952303E+02  0.83089544196E+02  0.80097146383E+02 0.  0.
         66    2    3    3    0    0  0.26383358638E+02  0.20607839828E+02 -0.11698030730E+02  0.35519129981E+02  0.19999990649E+01 0.  0.
        -13    1    3    3    0    0 -0.26383358638E+02 -0.20607839828E+02  0.33795983033E+02  0.47570414215E+02  0.10566000000E+00 0.  1.
         13    1    4    4    0    0  0.10403317665E+02  0.90826964763E+01 -0.43520822271E+01  0.14480199497E+02  0.10566000000E+00 0. -1.
        -13    1    4    4    0    0  0.88050706744E+01  0.64798238183E+01 -0.44184856562E+01  0.11792012798E+02  0.10566000000E+00 0.  1.
        -14    1    4    4    0    0  0.71749702990E+01  0.50453195329E+01 -0.29274628470E+01  0.92469176865E+01  0.00000000000E+00 0.  1.
<mgrwt>
<rscale>  0 0.80097146E+02</rscale>
<asrwt>0</asrwt>
<pdfrwt beam="1">  1        2 0.46916609E-02 0.80097146E+02</pdfrwt>
<pdfrwt beam="2">  1       -1 0.80913459E-02 0.80097146E+02</pdfrwt>
<totfact> 0.13453049E+05</totfact>
</mgrwt>
</event>
<event>
 8    1  0.1627221E-013  0.8150594E+02  0.7818608E-02  0.1324831E+00
         -1   -1    0    0    0  501 -0.00000000000E+00  0.00000000000E+00  0.23085504791E+03  0.23085504796E+03  0.50400000000E-02 0.  1.
          2   -1    0    0  501    0  0.00000000000E+00 -0.00000000000E+00 -0.71941434356E+01  0.71941438875E+01  0.25500000000E-02 0. -1.
         24    2    1    2    0    0  0.71054273576E-14  0.13877787808E-16  0.22366090447E+03  0.23804919185E+03  0.81505935681E+02 0.  0.
         66    2    3    3    0    0 -0.32431534799E+02  0.63236984038E-01  0.39941335822E+02  0.51489015185E+02  0.19999822952E+01 0.  0.
        -13    1    3    3    0    0  0.32431534799E+02 -0.63236984038E-01  0.18371956865E+03  0.18656017667E+03  0.10566000000E+00 0.  1.
         13    1    4    4    0    0 -0.27183533381E+01 -0.22097147939E+00  0.26249568694E+01  0.37867975741E+01  0.10566000000E+00 0. -1.
        -13    1    4    4    0    0 -0.98284592600E+01  0.11217910053E+00  0.12331976338E+02  0.15770225110E+02  0.10566000000E+00 0.  1.
         14    1    4    4    0    0 -0.19884722200E+02  0.17202936290E+00  0.24984402615E+02  0.31931992501E+02  0.00000000000E+00 0. -1.
<mgrwt>
<rscale>  0 0.81505936E+02</rscale>
<asrwt>0</asrwt>
<pdfrwt beam="1">  1        2 0.11067914E-02 0.81505936E+02</pdfrwt>
<pdfrwt beam="2">  1       -1 0.35516159E-01 0.81505936E+02</pdfrwt>
<totfact> 0.90743559E+04</totfact>
</mgrwt>
</event>
<event>
 8    1  0.1627221E-013  0.7789118E+02  0.7818608E-02  0.1335145E+00
         -1   -1    0    0    0  501 -0.00000000000E+00  0.00000000000E+00  0.25053348581E+02  0.25053349088E+02  0.50400000000E-02 0.  1.
          2   -1    0    0  501    0  0.00000000000E+00 -0.00000000000E+00 -0.60541170648E+02  0.60541170701E+02  0.25500000000E-02 0. -1.
         24    2    1    2    0    0  0.00000000000E+00  0.00000000000E+00 -0.35487822067E+02  0.85594519789E+02  0.77891182446E+02 0.  0.
         66    2    3    3    0    0 -0.20268337810E+02 -0.32503711480E+02 -0.25325814445E+02  0.45964047417E+02  0.20000000205E+01 0.  0.
        -13    1    3    3    0    0  0.20268337810E+02  0.32503711480E+02 -0.10162007622E+02  0.39630472372E+02  0.10566000000E+00 0.  1.
         13    1    4    4    0    0 -0.65766355722E+01 -0.10056444447E+02 -0.82405910232E+01  0.14570611340E+02  0.10566000000E+00 0. -1.
        -13    1    4    4    0    0 -0.11952408698E+02 -0.20239551946E+02 -0.15637571322E+02  0.28231973674E+02  0.10566000000E+00 0.  1.
        -14    1    4    4    0    0 -0.17392935398E+01 -0.22077150864E+01 -0.14476520999E+01  0.31614624025E+01  0.00000000000E+00 0.  1.
<mgrwt>
<rscale>  0 0.77891182E+02</rscale>
<asrwt>0</asrwt>
<pdfrwt beam="1">  1        2 0.93140262E-02 0.77891182E+02</pdfrwt>
<pdfrwt beam="2">  1       -1 0.38543614E-02 0.77891182E+02</pdfrwt>
<totfact> 0.16771907E+05</totfact>
</mgrwt>
</event>
<event>
 8    1  0.1627221E-013  0.8507513E+02  0.7818608E-02  0.1315236E+00
         -1   -1    0    0    0  501 -0.00000000000E+00  0.00000000000E+00  0.86200504493E+02  0.86200504640E+02  0.50400000000E-02 0.  1.
          2   -1    0    0  501    0  0.00000000000E+00 -0.00000000000E+00 -0.20991111208E+02  0.20991111363E+02  0.25500000000E-02 0. -1.
         24    2    1    2    0    0  0.00000000000E+00 -0.71054273576E-14  0.65209393285E+02  0.10719161600E+03  0.85075128968E+02 0.  0.
         66    2    3    3    0    0 -0.18927504303E+02 -0.31324525220E+02  0.53665485153E+01  0.37044245892E+02  0.20000028411E+01 0.  0.
        -13    1    3    3    0    0  0.18927504303E+02  0.31324525220E+02  0.59842844769E+02  0.70147370111E+02  0.10566000000E+00 0.  1.
         13    1    4    4    0    0 -0.67848549048E+01 -0.10223241790E+02  0.24487429274E+01  0.12512251386E+02  0.10566000000E+00 0. -1.
        -13    1    4    4    0    0 -0.50353483768E+01 -0.94870826882E+01  0.12092206540E+01  0.10808924546E+02  0.10566000000E+00 0.  1.
         14    1    4    4    0    0 -0.71073010218E+01 -0.11614200741E+02  0.17085849339E+01  0.13723069961E+02  0.00000000000E+00 0. -1.
<mgrwt>
<rscale>  0 0.85075129E+02</rscale>
<asrwt>0</asrwt>
<pdfrwt beam="1">  1        2 0.32294017E-02 0.85075129E+02</pdfrwt>
<pdfrwt beam="2">  1       -1 0.13261616E-01 0.85075129E+02</pdfrwt>
<totfact> 0.10501439E+05</totfact>
</mgrwt>
</event>
<event>
 8    1  0.1627221E-013  0.8080418E+02  0.7818608E-02  0.1326785E+00
         -1   -1    0    0    0  501 -0.00000000000E+00  0.00000000000E+00  0.14409923171E+02  0.14409924052E+02  0.50400000000E-02 0.  1.
          2   -1    0    0  501    0  0.00000000000E+00 -0.00000000000E+00 -0.11327810092E+03  0.11327810095E+03  0.25500000000E-02 0. -1.
         24    2    1    2    0    0  0.00000000000E+00  0.35527136788E-14 -0.98868177750E+02  0.12768802500E+03  0.80804177844E+02 0.  0.
         66    2    3    3    0    0  0.28428125463E+02  0.20795523916E+02 -0.80659509758E+02  0.88037313957E+02  0.20000005027E+01 0.  0.
        -13    1    3    3    0    0 -0.28428125463E+02 -0.20795523916E+02 -0.18208667992E+02  0.39650711045E+02  0.10566000000E+00 0.  1.
         13    1    4    4    0    0  0.58646081766E+01  0.40984727947E+01 -0.17812568994E+02  0.19196090397E+02  0.10566000000E+00 0. -1.
        -13    1    4    4    0    0  0.10888367034E+02  0.87261926677E+01 -0.30555313310E+02  0.33590792051E+02  0.10566000000E+00 0.  1.
        -14    1    4    4    0    0  0.11675150252E+02  0.79708584537E+01 -0.32291627454E+02  0.35250431508E+02  0.00000000000E+00 0.  1.
<mgrwt>
<rscale>  0 0.80804178E+02</rscale>
<asrwt>0</asrwt>
<pdfrwt beam="1">  1        2 0.17427400E-01 0.80804178E+02</pdfrwt>
<pdfrwt beam="2">  1       -1 0.22169114E-02 0.80804178E+02</pdfrwt>
<totfact> 0.17885876E+05</totfact>
</mgrwt>
</event>
<event>
 8    1  0.1627221E-013  0.8042390E+02  0.7818608E-02  0.1327853E+00
         -1   -1    0    0    0  501 -0.00000000000E+00  0.00000000000E+00  0.16479561872E+02  0.16479562643E+02  0.50400000000E-02 0.  1.
          2   -1    0    0  501    0  0.00000000000E+00 -0.00000000000E+00 -0.98121590510E+02  0.98121590543E+02  0.25500000000E-02 0. -1.
         24    2    1    2    0    0  0.00000000000E+00  0.00000000000E+00 -0.81642028638E+02  0.11460115319E+03  0.80423898633E+02 0.  0.
         66    2    3    3    0    0  0.35318395259E+02  0.13120281020E+02 -0.20923935388E+02  0.43143271678E+02  0.20000003048E+01 0.  0.
        -13    1    3    3    0    0 -0.35318395259E+02 -0.13120281020E+02 -0.60718093250E+02  0.71457881508E+02  0.10566000000E+00 0.  1.
         13    1    4    4    0    0  0.10095601620E+02  0.41970425103E+01 -0.60687353056E+01  0.12505080974E+02  0.10566000000E+00 0. -1.
        -13    1    4    4    0    0  0.88914509521E+01  0.35537530072E+01 -0.59974636369E+01  0.11299017417E+02  0.10566000000E+00 0.  1.
        -14    1    4    4    0    0  0.16331342686E+02  0.53694855022E+01 -0.88577364460E+01  0.19339173287E+02  0.00000000000E+00 0.  1.
<mgrwt>
<rscale>  0 0.80423899E+02</rscale>
<asrwt>0</asrwt>
<pdfrwt beam="1">  1        2 0.15095629E-01 0.80423899E+02</pdfrwt>
<pdfrwt beam="2">  1       -1 0.25353173E-02 0.80423899E+02</pdfrwt>
<totfact> 0.17384287E+05</totfact>
</mgrwt>
</event>
<event>
 8    1  0.1627221E-013  0.7603937E+02  0.7818608E-02  0.1340682E+00
          2   -1    0    0  501    0  0.00000000000E+00  0.00000000000E+00  0.11197405266E+04  0.11197405266E+04  0.25500000000E-02 0. -1.
         -1   -1    0    0    0  501 -0.00000000000E+00 -0.00000000000E+00 -0.12909159981E+01  0.12909258367E+01  0.50400000000E-02 0.  1.
         24    2    1    2    0    0  0.00000000000E+00  0.00000000000E+00  0.11184496106E+04  0.11210314524E+04  0.76039370745E+02 0.  0.
         66    2    3    3    0    0 -0.18321235401E+02  0.14752111874E+02  0.99947909810E+03  0.99975785069E+03  0.20000035302E+01 0.  0.
        -13    1    3    3    0    0  0.18321235401E+02 -0.14752111874E+02  0.11897051251E+03  0.12127360175E+03  0.10566000000E+00 0.  1.
         13    1    4    4    0    0 -0.58130991553E+01  0.51416140648E+01  0.29783055053E+03  0.29793166382E+03  0.10566000000E+00 0. -1.
        -13    1    4    4    0    0 -0.47839070457E+01  0.36496143252E+01  0.28257117858E+03  0.28263525537E+03  0.10566000000E+00 0.  1.
         14    1    4    4    0    0 -0.77242292005E+01  0.59608834835E+01  0.41907736899E+03  0.41919093150E+03  0.00000000000E+00 0. -1.
<mgrwt>
<rscale>  0 0.76039371E+02</rscale>
<asrwt>0</asrwt>
<pdfrwt beam="1">  1        2 0.17226829E+00 0.76039371E+02</pdfrwt>
<pdfrwt beam="2">  1       -1 0.19860263E-03 0.76039371E+02</pdfrwt>
<totfact> 0.40176679E+05</totfact>
</mgrwt>
</event>
<event>
 8    1  0.1627221E-013  0.7937381E+02  0.7818608E-02  0.1330838E+00
         -1   -1    0    0    0  501 -0.00000000000E+00  0.00000000000E+00  0.14515288027E+02  0.14515288902E+02  0.50400000000E-02 0.  1.
          2   -1    0    0  501    0  0.00000000000E+00 -0.00000000000E+00 -0.10850975363E+03  0.10850975366E+03  0.25500000000E-02 0. -1.
         24    2    1    2    0    0  0.00000000000E+00  0.11622647289E-15 -0.93994465606E+02  0.12302504256E+03  0.79373808863E+02 0.  0.
         66    2    3    3    0    0  0.19067431520E+02  0.64264492296E-02 -0.10093029005E+03  0.10273504969E+03  0.19999998551E+01 0.  0.
        -13    1    3    3    0    0 -0.19067431520E+02 -0.64264492296E-02  0.69358244441E+01  0.20289992874E+02  0.10566000000E+00 0.  1.
         13    1    4    4    0    0  0.56862054181E+01 -0.64127926121E+00 -0.28674791728E+02  0.29240366206E+02  0.10566000000E+00 0. -1.
        -13    1    4    4    0    0  0.14536783410E+01 -0.24626430416E+00 -0.79331212970E+01  0.80696594956E+01  0.10566000000E+00 0. -1.
         14    1    4    4    0    0  0.11927547760E+02  0.89397001461E+00 -0.64322377024E+02  0.65425023989E+02  0.00000000000E+00 0. -1.
<mgrwt>
<rscale>  0 0.79373809E+02</rscale>
<asrwt>0</asrwt>
<pdfrwt beam="1">  1        2 0.16693808E-01 0.79373809E+02</pdfrwt>
<pdfrwt beam="2">  1       -1 0.22331214E-02 0.79373809E+02</pdfrwt>
<totfact> 0.18527046E+05</totfact>
</mgrwt>
</event>
<event>
 8    1  0.1627221E-013  0.7779042E+02  0.7818608E-02  0.1335441E+00
         -1   -1    0    0    0  501 -0.00000000000E+00  0.00000000000E+00  0.12780164226E+02  0.12780165220E+02  0.50400000000E-02 0.  1.
          2   -1    0    0  501    0  0.00000000000E+00 -0.00000000000E+00 -0.11837385228E+03  0.11837385230E+03  0.25500000000E-02 0. -1.
         24    2    1    2    0    0  0.00000000000E+00  0.35527136788E-14 -0.10559368805E+03  0.13115401752E+03  0.77790419440E+02 0.  0.
         66    2    3    3    0    0 -0.18283064874E+02  0.26955756155E+02 -0.88594914815E+02  0.94413675846E+02  0.20000011251E+01 0.  0.
        -13    1    3    3    0    0  0.18283064874E+02 -0.26955756155E+02 -0.16998773234E+02  0.36740341677E+02  0.10566000000E+00 0.  1.
         13    1    4    4    0    0 -0.42499593815E+00  0.80869811940E+00 -0.19693751923E+01  0.21735263696E+01  0.10566000000E+00 0. -1.
        -13    1    4    4    0    0 -0.31549698045E+01  0.38583878881E+01 -0.14131630755E+02  0.14985164109E+02  0.10566000000E+00 0.  1.
         14    1    4    4    0    0 -0.14703099131E+02  0.22288670148E+02 -0.72493908869E+02  0.77254985367E+02  0.00000000000E+00 0. -1.
<mgrwt>
<rscale>  0 0.77790419E+02</rscale>
<asrwt>0</asrwt>
<pdfrwt beam="1">  1        2 0.18211361E-01 0.77790419E+02</pdfrwt>
<pdfrwt beam="2">  1       -1 0.19661793E-02 0.77790419E+02</pdfrwt>
<totfact> 0.20051995E+05</totfact>
</mgrwt>
</event>
<event>
 8    1  0.1627221E-013  0.7991203E+02  0.7818608E-02  0.1329301E+00
          2   -1    0    0  501    0  0.00000000000E+00  0.00000000000E+00  0.30233622141E+03  0.30233622142E+03  0.25500000000E-02 0. -1.
         -1   -1    0    0    0  501 -0.00000000000E+00 -0.00000000000E+00 -0.52804883503E+01  0.52804907556E+01  0.50400000000E-02 0.  1.
         24    2    1    2    0    0  0.71054273576E-14  0.17763568394E-14  0.29705573306E+03  0.30761671218E+03  0.79912033303E+02 0.  0.
         66    2    3    3    0    0 -0.37148213121E+02 -0.13522002404E+02  0.17027491102E+03  0.17481527285E+03  0.20000025763E+01 0.  0.
        -13    1    3    3    0    0  0.37148213121E+02  0.13522002404E+02  0.12678082204E+03  0.13280143933E+03  0.10566000000E+00 0.  1.
         13    1    4    4    0    0 -0.14346758460E+02 -0.49167403155E+01  0.65013958537E+02  0.66759492077E+02  0.10566000000E+00 0. -1.
        -13    1    4    4    0    0 -0.20627972520E+02 -0.76175650726E+01  0.96650598191E+02  0.99120582336E+02  0.10566000000E+00 0.  1.
        -14    1    4    4    0    0 -0.21734821416E+01 -0.98769701598E+00  0.86103542947E+01  0.89351984363E+01  0.00000000000E+00 0.  1.
<mgrwt>
<rscale>  0 0.79912033E+02</rscale>
<asrwt>0</asrwt>
<pdfrwt beam="1">  1        2 0.46513272E-01 0.79912033E+02</pdfrwt>
<pdfrwt beam="2">  1       -1 0.81238288E-03 0.79912033E+02</pdfrwt>
<totfact> 0.25640022E+05</totfact>
</mgrwt>
</event>
<event>
 8    1  0.1627221E-013  0.8019662E+02  0.7818608E-02  0.1328494E+00
         -1   -1    0    0    0  501 -0.00000000000E+00  0.00000000000E+00  0.20824846631E+03  0.20824846637E+03  0.50400000000E-02 0.  1.
          2   -1    0    0  501    0  0.00000000000E+00 -0.00000000000E+00 -0.77209416675E+01  0.77209420886E+01  0.25500000000E-02 0. -1.
         24    2    1    2    0    0 -0.71054273576E-14  0.00000000000E+00  0.20052752464E+03  0.21596940846E+03  0.80196616207E+02 0.  0.
         66    2    3    3    0    0  0.35530684081E+02  0.25457313562E+01  0.14975983575E+03  0.15395102684E+03  0.20000002991E+01 0.  0.
        -13    1    3    3    0    0 -0.35530684081E+02 -0.25457313562E+01  0.50767688891E+02  0.62018381620E+02  0.10566000000E+00 0.  1.
         13    1    4    4    0    0  0.16090825986E+02  0.11438063726E+01  0.67003642677E+02  0.68918228866E+02  0.10566000000E+00 0. -1.
        -13    1    4    4    0    0  0.13937442147E+02  0.42676015063E+00  0.57711076962E+02  0.59371828219E+02  0.10566000000E+00 0.  1.
         14    1    4    4    0    0  0.55024159485E+01  0.97516483301E+00  0.25045116110E+02  0.25660969754E+02  0.00000000000E+00 0. -1.
<mgrwt>
<rscale>  0 0.80196616E+02</rscale>
<asrwt>0</asrwt>
<pdfrwt beam="1">  1        2 0.11878373E-02 0.80196616E+02</pdfrwt>
<pdfrwt beam="2">  1       -1 0.32038222E-01 0.80196616E+02</pdfrwt>
<totfact> 0.97764026E+04</totfact>
</mgrwt>
</event>
<event>
 8    1  0.1627221E-013  0.8011542E+02  0.7818608E-02  0.1328724E+00
          2   -1    0    0  501    0  0.00000000000E+00  0.00000000000E+00  0.32956082703E+03  0.32956082704E+03  0.25500000000E-02 0. -1.
         -1   -1    0    0    0  501 -0.00000000000E+00 -0.00000000000E+00 -0.48689641573E+01  0.48689667658E+01  0.50400000000E-02 0.  1.
         24    2    1    2    0    0  0.00000000000E+00 -0.71054273576E-14  0.32469186287E+03  0.33442979380E+03  0.80115424040E+02 0.  0.
         66    2    3    3    0    0 -0.13499076734E+02 -0.37091905138E+02  0.19031848664E+03  0.19437891054E+03  0.20000015325E+01 0.  0.
        -13    1    3    3    0    0  0.13499076734E+02  0.37091905138E+02  0.13437337623E+03  0.14005088326E+03  0.10566000000E+00 0.  1.
         13    1    4    4    0    0 -0.76284043678E+01 -0.19014267435E+02  0.10023366388E+03  0.10230607733E+03  0.10566000000E+00 0. -1.
        -13    1    4    4    0    0 -0.74407506797E+00 -0.16197738077E+01  0.77900599544E+01  0.79920906541E+01  0.10566000000E+00 0.  1.
        -14    1    4    4    0    0 -0.51265972979E+01 -0.16457863895E+02  0.82294762808E+02  0.84080742560E+02  0.00000000000E+00 0.  1.
<mgrwt>
<rscale>  0 0.80115424E+02</rscale>
<asrwt>0</asrwt>
<pdfrwt beam="1">  1        2 0.50701671E-01 0.80115424E+02</pdfrwt>
<pdfrwt beam="2">  1       -1 0.74907154E-03 0.80115424E+02</pdfrwt>
<totfact> 0.26275099E+05</totfact>
</mgrwt>
</event>
<event>
 8    1  0.1627221E-013  0.8004433E+02  0.7818608E-02  0.1328926E+00
          2   -1    0    0  501    0  0.00000000000E+00  0.00000000000E+00  0.19889286719E+03  0.19889286721E+03  0.25500000000E-02 0. -1.
         -1   -1    0    0    0  501 -0.00000000000E+00 -0.00000000000E+00 -0.80534491081E+01  0.80534506852E+01  0.50400000000E-02 0.  1.
         24    2    1    2    0    0  0.00000000000E+00  0.00000000000E+00  0.19083941809E+03  0.20694631790E+03  0.80044331437E+02 0.  0.
         66    2    3    3    0    0 -0.35125790235E+02  0.57683082176E+01  0.14263508883E+03  0.14702334198E+03  0.20000006709E+01 0.  0.
        -13    1    3    3    0    0  0.35125790235E+02 -0.57683082176E+01  0.48204329256E+02  0.59922975914E+02  0.10566000000E+00 0.  1.
         13    1    4    4    0    0 -0.27850625069E+02  0.44263648220E+01  0.11364347543E+03  0.11709013918E+03  0.10566000000E+00 0. -1.
        -13    1    4    4    0    0 -0.55540669145E+00 -0.46047020561E-01  0.28627856044E+01  0.29184417714E+01  0.10566000000E+00 0. -1.
        -14    1    4    4    0    0 -0.67197584740E+01  0.13879904162E+01  0.26128827796E+02  0.27014761026E+02  0.00000000000E+00 0.  1.
<mgrwt>
<rscale>  0 0.80044331E+02</rscale>
<asrwt>0</asrwt>
<pdfrwt beam="1">  1        2 0.30598899E-01 0.80044331E+02</pdfrwt>
<pdfrwt beam="2">  1       -1 0.12389925E-02 0.80044331E+02</pdfrwt>
<totfact> 0.21983936E+05</totfact>
</mgrwt>
</event>
<event>
 8    1  0.1627221E-013  0.7964008E+02  0.7818608E-02  0.1330076E+00
          2   -1    0    0  501    0  0.00000000000E+00  0.00000000000E+00  0.61478533185E+02  0.61478533237E+02  0.25500000000E-02 0. -1.
         -1   -1    0    0    0  501 -0.00000000000E+00 -0.00000000000E+00 -0.25791696059E+02  0.25791696551E+02  0.50400000000E-02 0.  1.
         24    2    1    2    0    0 -0.71054273576E-14  0.00000000000E+00  0.35686837126E+02  0.87270229789E+02  0.79640082015E+02 0.  0.
         66    2    3    3    0    0 -0.26965611582E+02 -0.86269173191E+00  0.49910388075E+02  0.56770901753E+02  0.20000007616E+01 0.  0.
        -13    1    3    3    0    0  0.26965611582E+02  0.86269173191E+00 -0.14223550949E+02  0.30499328036E+02  0.10566000000E+00 0.  1.
         13    1    4    4    0    0 -0.16964073962E+02 -0.96535208726E+00  0.32467805537E+02  0.36645344458E+02  0.10566000000E+00 0. -1.
        -13    1    4    4    0    0 -0.38556212000E+00  0.12880571356E+00  0.84405586624E+00  0.94278491777E+00  0.10566000000E+00 0.  1.
        -14    1    4    4    0    0 -0.96159755003E+01 -0.26145358209E-01  0.16598526671E+02  0.19182772377E+02  0.00000000000E+00 0.  1.
<mgrwt>
<rscale>  0 0.79640082E+02</rscale>
<asrwt>0</asrwt>
<pdfrwt beam="1">  1        2 0.94582357E-02 0.79640082E+02</pdfrwt>
<pdfrwt beam="2">  1       -1 0.39679534E-02 0.79640082E+02</pdfrwt>
<totfact> 0.15847339E+05</totfact>
</mgrwt>
</event>
<event>
 8    1  0.1627221E-013  0.8043971E+02  0.7818608E-02  0.1327808E+00
          2   -1    0    0  501    0  0.00000000000E+00  0.00000000000E+00  0.66489084216E+01  0.66489089106E+01  0.25500000000E-02 0. -1.
         -1   -1    0    0    0  501 -0.00000000000E+00 -0.00000000000E+00 -0.24329356950E+03  0.24329356955E+03  0.50400000000E-02 0.  1.
         24    2    1    2    0    0  0.00000000000E+00 -0.71054273576E-14 -0.23664466108E+03  0.24994247846E+03  0.80439709865E+02 0.  0.
         66    2    3    3    0    0  0.12650785710E+02  0.37976591300E+02 -0.10703467793E+03  0.11429210890E+03  0.20000030345E+01 0.  0.
        -13    1    3    3    0    0 -0.12650785710E+02 -0.37976591300E+02 -0.12960998315E+03  0.13565036956E+03  0.10566000000E+00 0.  1.
         13    1    4    4    0    0  0.33843960402E+01  0.98309958709E+01 -0.29906678736E+02  0.31662646974E+02  0.10566000000E+00 0. -1.
        -13    1    4    4    0    0  0.28360677921E+01  0.95236315576E+01 -0.24971674907E+02  0.26876356715E+02  0.10566000000E+00 0.  1.
         14    1    4    4    0    0  0.64303218777E+01  0.18621963871E+02 -0.52156324286E+02  0.55753105213E+02  0.00000000000E+00 0. -1.
<mgrwt>
<rscale>  0 0.80439710E+02</rscale>
<asrwt>0</asrwt>
<pdfrwt beam="1">  1        2 0.10229092E-02 0.80439710E+02</pdfrwt>
<pdfrwt beam="2">  1       -1 0.37429773E-01 0.80439710E+02</pdfrwt>
<totfact> 0.92190019E+04</totfact>
</mgrwt>
</event>
<event>
 8    1  0.1627221E-013  0.7881686E+02  0.7818608E-02  0.1332443E+00
          2   -1    0    0  501    0  0.00000000000E+00  0.00000000000E+00  0.21675948434E+03  0.21675948436E+03  0.25500000000E-02 0. -1.
         -1   -1    0    0    0  501 -0.00000000000E+00 -0.00000000000E+00 -0.71647351737E+01  0.71647369464E+01  0.50400000000E-02 0.  1.
         24    2    1    2    0    0 -0.71054273576E-14  0.35527136788E-14  0.20959474917E+03  0.22392422131E+03  0.78816863725E+02 0.  0.
         66    2    3    3    0    0  0.32040137702E+02 -0.22371112596E+02  0.11877793023E+03  0.12505692201E+03  0.19999827570E+01 0.  0.
        -13    1    3    3    0    0 -0.32040137702E+02  0.22371112596E+02  0.90816818943E+02  0.98867299295E+02  0.10566000000E+00 0.  1.
         13    1    4    4    0    0  0.99663235419E+01 -0.68141302793E+01  0.38516313974E+02  0.40364310753E+02  0.10566000000E+00 0. -1.
        -13    1    4    4    0    0  0.63771777204E+01 -0.40213586696E+01  0.23717509097E+02  0.24887167839E+02  0.10566000000E+00 0.  1.
         14    1    4    4    0    0  0.15696636440E+02 -0.11535623647E+02  0.56544107156E+02  0.59805443419E+02  0.00000000000E+00 0. -1.
<mgrwt>
<rscale>  0 0.78816864E+02</rscale>
<asrwt>0</asrwt>
<pdfrwt beam="1">  1        2 0.33347608E-01 0.78816864E+02</pdfrwt>
<pdfrwt beam="2">  1       -1 0.11022673E-02 0.78816864E+02</pdfrwt>
<totfact> 0.23596011E+05</totfact>
</mgrwt>
</event>
<event>
 8    1  0.1627221E-013  0.7343513E+02  0.7818608E-02  0.1348787E+00
         -1   -1    0    0    0  501 -0.00000000000E+00  0.00000000000E+00  0.21589008794E+03  0.21589008800E+03  0.50400000000E-02 0.  1.
          2   -1    0    0  501    0  0.00000000000E+00 -0.00000000000E+00 -0.62447501811E+01  0.62447507018E+01  0.25500000000E-02 0. -1.
         24    2    1    2    0    0  0.00000000000E+00  0.71054273576E-14  0.20964533776E+03  0.22213483870E+03  0.73435134102E+02 0.  0.
         66    2    3    3    0    0  0.11390413477E+02  0.34375651687E+02  0.12273126720E+03  0.12797808762E+03  0.20000038488E+01 0.  0.
        -13    1    3    3    0    0 -0.11390413477E+02 -0.34375651687E+02  0.86914070562E+02  0.94156751080E+02  0.10566000000E+00 0.  1.
         13    1    4    4    0    0  0.75605258567E+01  0.22176905993E+02  0.80592729349E+02  0.83929588934E+02  0.10566000000E+00 0. -1.
        -13    1    4    4    0    0  0.20181341395E+01  0.48539442388E+01  0.16546817670E+02  0.17362084527E+02  0.10566000000E+00 0.  1.
        -14    1    4    4    0    0  0.18117534811E+01  0.73448014550E+01  0.25591720179E+02  0.26686414162E+02  0.00000000000E+00 0.  1.
<mgrwt>
<rscale>  0 0.73435134E+02</rscale>
<asrwt>0</asrwt>
<pdfrwt beam="1">  1        2 0.96073096E-03 0.73435134E+02</pdfrwt>
<pdfrwt beam="2">  1       -1 0.33213856E-01 0.73435134E+02</pdfrwt>
<totfact> 0.12093525E+05</totfact>
</mgrwt>
</event>
<event>
 8    1  0.1627221E-013  0.7715456E+02  0.7818608E-02  0.1337326E+00
          2   -1    0    0  501    0  0.00000000000E+00  0.00000000000E+00  0.22429111747E+03  0.22429111748E+03  0.25500000000E-02 0. -1.
         -1   -1    0    0    0  501 -0.00000000000E+00 -0.00000000000E+00 -0.66351555246E+01  0.66351574388E+01  0.50400000000E-02 0.  1.
         24    2    1    2    0    0  0.00000000000E+00  0.00000000000E+00  0.21765596194E+03  0.23092627492E+03  0.77154563569E+02 0.  0.
         66    2    3    3    0    0 -0.79975439156E+00  0.15296364584E+02  0.21478765529E+03  0.21534241392E+03  0.19999977085E+01 0.  0.
        -13    1    3    3    0    0  0.79975439156E+00 -0.15296364584E+02  0.28683066504E+01  0.15583861000E+02  0.10566000000E+00 0.  1.
         13    1    4    4    0    0 -0.10808070096E+00  0.27809987377E+01  0.44598306409E+02  0.44685184726E+02  0.10566000000E+00 0. -1.
        -13    1    4    4    0    0 -0.40693999456E+00  0.12182966813E+02  0.16401853731E+03  0.16447091544E+03  0.10566000000E+00 0.  1.
        -14    1    4    4    0    0 -0.28473369604E+00  0.33239903349E+00  0.61708115729E+01  0.61863137541E+01  0.00000000000E+00 0.  1.
<mgrwt>
<rscale>  0 0.77154564E+02</rscale>
<asrwt>0</asrwt>
<pdfrwt beam="1">  1        2 0.34506323E-01 0.77154564E+02</pdfrwt>
<pdfrwt beam="2">  1       -1 0.10207934E-02 0.77154564E+02</pdfrwt>
<totfact> 0.25256996E+05</totfact>
</mgrwt>
</event>
<event>
 8    1  0.1627221E-013  0.8183033E+02  0.7818608E-02  0.1323936E+00
         -1   -1    0    0    0  501 -0.00000000000E+00  0.00000000000E+00  0.15293961439E+01  0.15294044483E+01  0.50400000000E-02 0.  1.
          2   -1    0    0  501    0  0.00000000000E+00 -0.00000000000E+00 -0.10945797892E+04  0.10945797892E+04  0.25500000000E-02 0. -1.
         24    2    1    2    0    0  0.00000000000E+00  0.00000000000E+00 -0.10930503931E+04  0.10961091937E+04  0.81830328405E+02 0.  0.
         66    2    3    3    0    0  0.10953570438E+02  0.19555392645E+02 -0.10049586565E+04  0.10052105727E+04  0.20000001758E+01 0.  0.
        -13    1    3    3    0    0 -0.10953570438E+02 -0.19555392645E+02 -0.88091736540E+02  0.90898620988E+02  0.10566000000E+00 0.  1.
         13    1    4    4    0    0  0.52802359856E+01  0.89692417785E+01 -0.46568225318E+03  0.46579856191E+03  0.10566000000E+00 0. -1.
        -13    1    4    4    0    0  0.37451767446E+01  0.59604865297E+01 -0.33707545783E+03  0.33714897180E+03  0.10566000000E+00 0.  1.
         14    1    4    4    0    0  0.19281577074E+01  0.46256643371E+01 -0.20220094552E+03  0.20226303896E+03  0.00000000000E+00 0. -1.
<mgrwt>
<rscale>  0 0.81830328E+02</rscale>
<asrwt>0</asrwt>
<pdfrwt beam="1">  1        2 0.16839626E+00 0.81830328E+02</pdfrwt>
<pdfrwt beam="2">  1       -1 0.23529323E-03 0.81830328E+02</pdfrwt>
<totfact> 0.33243804E+05</totfact>
</mgrwt>
</event>
<event>
 8    1  0.1627221E-013  0.8335399E+02  0.7818608E-02  0.1319794E+00
         -1   -1    0    0    0  501 -0.00000000000E+00  0.00000000000E+00  0.71324036887E+01  0.71324054694E+01  0.50400000000E-02 0.  1.
          2   -1    0    0  501    0  0.00000000000E+00 -0.00000000000E+00 -0.24353245304E+03  0.24353245305E+03  0.25500000000E-02 0. -1.
         24    2    1    2    0    0  0.71054273576E-14 -0.44408920985E-15 -0.23640004935E+03  0.25066485852E+03  0.83353991895E+02 0.  0.
         66    2    3    3    0    0  0.27146498719E+02 -0.31189483280E+01 -0.21280730346E+03  0.21456376361E+03  0.20000036741E+01 0.  0.
        -13    1    3    3    0    0 -0.27146498719E+02  0.31189483280E+01 -0.23592745883E+02  0.36101094911E+02  0.10566000000E+00 0.  1.
         13    1    4    4    0    0  0.51554962871E+01 -0.55983304191E+00 -0.36964316779E+02  0.37326457560E+02  0.10566000000E+00 0. -1.
        -13    1    4    4    0    0  0.81787513312E+01 -0.66457596589E+00 -0.70375793079E+02  0.70852643212E+02  0.10566000000E+00 0.  1.
        -14    1    4    4    0    0  0.13812251101E+02 -0.18945393202E+01 -0.10546719361E+03  0.10638466284E+03  0.00000000000E+00 0.  1.
<mgrwt>
<rscale>  0 0.83353992E+02</rscale>
<asrwt>0</asrwt>
<pdfrwt beam="1">  1        2 0.37466525E-01 0.83353992E+02</pdfrwt>
<pdfrwt beam="2">  1       -1 0.10972932E-02 0.83353992E+02</pdfrwt>
<totfact> 0.21219817E+05</totfact>
</mgrwt>
</event>
<event>
 8    1  0.1627221E-013  0.7962105E+02  0.7818608E-02  0.1330130E+00
          2   -1    0    0  501    0  0.00000000000E+00  0.00000000000E+00  0.39847019229E+02  0.39847019311E+02  0.25500000000E-02 0. -1.
         -1   -1    0    0    0  501 -0.00000000000E+00 -0.00000000000E+00 -0.39774059413E+02  0.39774059733E+02  0.50400000000E-02 0.  1.
         24    2    1    2    0    0  0.55511151231E-16  0.00000000000E+00  0.72959815708E-01  0.79621079043E+02  0.79621045615E+02 0.  0.
         66    2    3    3    0    0  0.40886324302E+00  0.39140038291E+02  0.71613223876E+01  0.39842117084E+02  0.19999971886E+01 0.  0.
        -13    1    3    3    0    0 -0.40886324302E+00 -0.39140038291E+02 -0.70883625719E+01  0.39778961960E+02  0.10566000000E+00 0.  1.
         13    1    4    4    0    0  0.47097036765E+00  0.87104579207E+01  0.13457460018E+01  0.88270089279E+01  0.10566000000E+00 0. -1.
        -13    1    4    4    0    0  0.42496855388E+00  0.32468888467E+01  0.72588187453E+00  0.33557344928E+01  0.10566000000E+00 0.  1.
         14    1    4    4    0    0 -0.48707567852E+00  0.27182691524E+02  0.50896945113E+01  0.27659373663E+02  0.00000000000E+00 0. -1.
<mgrwt>
<rscale>  0 0.79621046E+02</rscale>
<asrwt>0</asrwt>
<pdfrwt beam="1">  1        2 0.61303107E-02 0.79621046E+02</pdfrwt>
<pdfrwt beam="2">  1       -1 0.61190861E-02 0.79621046E+02</pdfrwt>
<totfact> 0.14432201E+05</totfact>
</mgrwt>
</event>
<event>
 8    1  0.1627221E-013  0.8067740E+02  0.7818608E-02  0.1327140E+00
          2   -1    0    0  501    0  0.00000000000E+00  0.00000000000E+00  0.35966742953E+02  0.35966743044E+02  0.25500000000E-02 0. -1.
         -1   -1    0    0    0  501 -0.00000000000E+00 -0.00000000000E+00 -0.45242091313E+02  0.45242091594E+02  0.50400000000E-02 0.  1.
         24    2    1    2    0    0  0.00000000000E+00  0.00000000000E+00 -0.92753483595E+01  0.81208834637E+02  0.80677399165E+02 0.  0.
         66    2    3    3    0    0  0.20301593325E+02  0.30230203039E+01  0.30285481829E+02  0.36640193279E+02  0.20000026593E+01 0.  0.
        -13    1    3    3    0    0 -0.20301593325E+02 -0.30230203039E+01 -0.39560830188E+02  0.44568641358E+02  0.10566000000E+00 0.  1.
         13    1    4    4    0    0  0.62479728805E+01  0.76415342811E+00  0.10378949226E+02  0.12138980462E+02  0.10566000000E+00 0. -1.
        -13    1    4    4    0    0  0.11228237918E+02  0.19953009471E+01  0.16655950779E+02  0.20186292701E+02  0.10566000000E+00 0.  1.
        -14    1    4    4    0    0  0.28253825267E+01  0.26356592870E+00  0.32505818234E+01  0.43149201164E+01  0.00000000000E+00 0.  1.
<mgrwt>
<rscale>  0 0.80677399E+02</rscale>
<asrwt>0</asrwt>
<pdfrwt beam="1">  1        2 0.55333451E-02 0.80677399E+02</pdfrwt>
<pdfrwt beam="2">  1       -1 0.69603218E-02 0.80677399E+02</pdfrwt>
<totfact> 0.13627065E+05</totfact>
</mgrwt>
</event>
<event>
 8    1  0.1627221E-013  0.7882647E+02  0.7818608E-02  0.1332415E+00
          2   -1    0    0  501    0  0.00000000000E+00  0.00000000000E+00  0.35902517329E+03  0.35902517330E+03  0.25500000000E-02 0. -1.
         -1   -1    0    0    0  501 -0.00000000000E+00 -0.00000000000E+00 -0.43267231694E+01  0.43267261049E+01  0.50400000000E-02 0.  1.
         24    2    1    2    0    0  0.00000000000E+00  0.00000000000E+00  0.35469845012E+03  0.36335189940E+03  0.78826469428E+02 0.  0.
         66    2    3    3    0    0 -0.19400860521E+02 -0.16753251473E+02  0.31531253225E+03  0.31635906469E+03  0.19999986384E+01 0.  0.
        -13    1    3    3    0    0  0.19400860521E+02  0.16753251473E+02  0.39385917875E+02  0.46992834717E+02  0.10566000000E+00 0.  1.
         13    1    4    4    0    0 -0.86164373208E+01 -0.72157508702E+01  0.13755942598E+03  0.13801781368E+03  0.10566000000E+00 0. -1.
        -13    1    4    4    0    0 -0.64624828089E+01 -0.52684910006E+01  0.94814433344E+02  0.95180400376E+02  0.10566000000E+00 0.  1.
        -14    1    4    4    0    0 -0.43219403909E+01 -0.42690096023E+01  0.82938672917E+02  0.83160850627E+02  0.00000000000E+00 0.  1.
<mgrwt>
<rscale>  0 0.78826469E+02</rscale>
<asrwt>0</asrwt>
<pdfrwt beam="1">  1        2 0.55234657E-01 0.78826469E+02</pdfrwt>
<pdfrwt beam="2">  1       -1 0.66564976E-03 0.78826469E+02</pdfrwt>
<totfact> 0.28266188E+05</totfact>
</mgrwt>
</event>
<event>
 8    1  0.1627221E-013  0.8004213E+02  0.7818608E-02  0.1328932E+00
         -1   -1    0    0    0  501 -0.00000000000E+00  0.00000000000E+00  0.18561511174E+02  0.18561511858E+02  0.50400000000E-02 0.  1.
          2   -1    0    0  501    0  0.00000000000E+00 -0.00000000000E+00 -0.86290680480E+02  0.86290680518E+02  0.25500000000E-02 0. -1.
         24    2    1    2    0    0  0.35527136788E-14 -0.35527136788E-14 -0.67729169306E+02  0.10485219238E+03  0.80042125603E+02 0.  0.
         66    2    3    3    0    0  0.31036902973E+02 -0.24576961133E+02 -0.41337979139E+02  0.57272549174E+02  0.20000012331E+01 0.  0.
        -13    1    3    3    0    0 -0.31036902973E+02  0.24576961133E+02 -0.26391190168E+02  0.47579643202E+02  0.10566000000E+00 0.  1.
         13    1    4    4    0    0  0.56775215966E+01 -0.48743948942E+01 -0.76758317990E+01  0.10720239499E+02  0.10566000000E+00 0. -1.
        -13    1    4    4    0    0  0.21535492027E+02 -0.16370784393E+02 -0.27565445830E+02  0.38621819822E+02  0.10566000000E+00 0.  1.
        -14    1    4    4    0    0  0.38238893491E+01 -0.33317818458E+01 -0.60967015094E+01  0.79304898536E+01  0.00000000000E+00 0.  1.
<mgrwt>
<rscale>  0 0.80042126E+02</rscale>
<asrwt>0</asrwt>
<pdfrwt beam="1">  1        2 0.13275489E-01 0.80042126E+02</pdfrwt>
<pdfrwt beam="2">  1       -1 0.28556172E-02 0.80042126E+02</pdfrwt>
<totfact> 0.17004333E+05</totfact>
</mgrwt>
</event>
<event>
 8    1  0.1627221E-013  0.7955450E+02  0.7818608E-02  0.1330320E+00
         -1   -1    0    0    0  501 -0.00000000000E+00  0.00000000000E+00  0.11208535654E+03  0.11208535665E+03  0.50400000000E-02 0.  1.
          2   -1    0    0  501    0  0.00000000000E+00 -0.00000000000E+00 -0.14116292011E+02  0.14116292241E+02  0.25500000000E-02 0. -1.
         24    2    1    2    0    0 -0.35527136788E-14  0.71054273576E-14  0.97969064530E+02  0.12620164890E+03  0.79554500684E+02 0.  0.
         66    2    3    3    0    0  0.16535374175E+02 -0.35643823626E+02  0.58576258923E+02  0.70562588341E+02  0.20000005512E+01 0.  0.
        -13    1    3    3    0    0 -0.16535374175E+02  0.35643823626E+02  0.39392805607E+02  0.55639060554E+02  0.10566000000E+00 0.  1.
         13    1    4    4    0    0  0.71432622254E+01 -0.13980160644E+02  0.23829465757E+02  0.28536392364E+02  0.10566000000E+00 0. -1.
        -13    1    4    4    0    0  0.44185770823E+01 -0.11605420562E+02  0.18062764071E+02  0.21919950268E+02  0.10566000000E+00 0.  1.
        -14    1    4    4    0    0  0.49735348669E+01 -0.10058242420E+02  0.16684029096E+02  0.20106245709E+02  0.00000000000E+00 0.  1.
<mgrwt>
<rscale>  0 0.79554501E+02</rscale>
<asrwt>0</asrwt>
<pdfrwt beam="1">  1        2 0.21717373E-02 0.79554501E+02</pdfrwt>
<pdfrwt beam="2">  1       -1 0.17243901E-01 0.79554501E+02</pdfrwt>
<totfact> 0.11724061E+05</totfact>
</mgrwt>
</event>
<event>
 8    1  0.1627221E-013  0.7948422E+02  0.7818608E-02  0.1330522E+00
         -1   -1    0    0    0  501 -0.00000000000E+00  0.00000000000E+00  0.57715376870E+01  0.57715398876E+01  0.50400000000E-02 0.  1.
          2   -1    0    0  501    0  0.00000000000E+00 -0.00000000000E+00 -0.27365928912E+03  0.27365928913E+03  0.25500000000E-02 0. -1.
         24    2    1    2    0    0  0.88817841970E-15  0.00000000000E+00 -0.26788775143E+03  0.27943082901E+03  0.79484217544E+02 0.  0.
         66    2    3    3    0    0  0.61810884257E+01  0.32566370597E+02 -0.21094239639E+03  0.21354032157E+03  0.19999973581E+01 0.  0.
        -13    1    3    3    0    0 -0.61810884257E+01 -0.32566370597E+02 -0.56945355034E+02  0.65890507449E+02  0.10566000000E+00 0.  1.
         13    1    4    4    0    0  0.26265462490E+01  0.17224520355E+02 -0.11206701727E+03  0.11341344881E+03  0.10566000000E+00 0. -1.
        -13    1    4    4    0    0  0.36382389695E+00  0.26990235085E+01 -0.18899473868E+02  0.19094982908E+02  0.10566000000E+00 0.  1.
        -14    1    4    4    0    0  0.31907182797E+01  0.12642826734E+02 -0.79975905255E+02  0.81031889848E+02  0.00000000000E+00 0.  1.
<mgrwt>
<rscale>  0 0.79484218E+02</rscale>
<asrwt>0</asrwt>
<pdfrwt beam="1">  1        2 0.42101419E-01 0.79484218E+02</pdfrwt>
<pdfrwt beam="2">  1       -1 0.88792926E-03 0.79484218E+02</pdfrwt>
<totfact> 0.25081905E+05</totfact>
</mgrwt>
</event>
<event>
 8    1  0.1627221E-013  0.8491489E+02  0.7818608E-02  0.1315655E+00
         -1   -1    0    0    0  501 -0.00000000000E+00  0.00000000000E+00  0.67971269827E+01  0.67971288512E+01  0.50400000000E-02 0.  1.
          2   -1    0    0  501    0  0.00000000000E+00 -0.00000000000E+00 -0.26520537223E+03  0.26520537224E+03  0.25500000000E-02 0. -1.
         24    2    1    2    0    0  0.35527136788E-14  0.71054273576E-14 -0.25840824525E+03  0.27200250109E+03  0.84914894979E+02 0.  0.
         66    2    3    3    0    0 -0.22243175318E+02 -0.33130130820E+02 -0.17550279708E+03  0.17999332266E+03  0.20000006131E+01 0.  0.
        -13    1    3    3    0    0  0.22243175318E+02  0.33130130820E+02 -0.82905448170E+02  0.92009178437E+02  0.10566000000E+00 0.  1.
         13    1    4    4    0    0 -0.68849618006E+01 -0.10041077697E+02 -0.50692560237E+02  0.52134180417E+02  0.10566000000E+00 0. -1.
        -13    1    4    4    0    0 -0.65975983033E+01 -0.10733318840E+02 -0.54994896798E+02  0.56419697576E+02  0.10566000000E+00 0.  1.
         14    1    4    4    0    0 -0.87606152140E+01 -0.12355734283E+02 -0.69815340041E+02  0.71439444663E+02  0.00000000000E+00 0. -1.
<mgrwt>
<rscale>  0 0.84914895E+02</rscale>
<asrwt>0</asrwt>
<pdfrwt beam="1">  1        2 0.40800819E-01 0.84914895E+02</pdfrwt>
<pdfrwt beam="2">  1       -1 0.10457122E-02 0.84914895E+02</pdfrwt>
<totfact> 0.20837264E+05</totfact>
</mgrwt>
</event>
<event>
 8    1  0.1627221E-013  0.7975270E+02  0.7818608E-02  0.1329755E+00
          2   -1    0    0  501    0  0.00000000000E+00  0.00000000000E+00  0.11879226307E+03  0.11879226310E+03  0.25500000000E-02 0. -1.
         -1   -1    0    0    0  501 -0.00000000000E+00 -0.00000000000E+00 -0.13385747009E+02  0.13385747958E+02  0.50400000000E-02 0.  1.
         24    2    1    2    0    0 -0.17763568394E-14 -0.71054273576E-14  0.10540651606E+03  0.13217801106E+03  0.79752698879E+02 0.  0.
         66    2    3    3    0    0  0.12286950980E+02  0.37253195236E+02  0.41093679055E+02  0.56845933642E+02  0.19999984037E+01 0.  0.
        -13    1    3    3    0    0 -0.12286950980E+02 -0.37253195236E+02  0.64312837006E+02  0.75332077414E+02  0.10566000000E+00 0.  1.
         13    1    4    4    0    0  0.27523780178E+01  0.67734258112E+01  0.79953882587E+01  0.10834771775E+02  0.10566000000E+00 0. -1.
        -13    1    4    4    0    0  0.60065411256E+00  0.30739928444E+01  0.34112926119E+01  0.46323102972E+01  0.10566000000E+00 0.  1.
         14    1    4    4    0    0  0.89339188500E+01  0.27405776581E+02  0.29686998184E+02  0.41378851569E+02  0.00000000000E+00 0. -1.
<mgrwt>
<rscale>  0 0.79752699E+02</rscale>
<asrwt>0</asrwt>
<pdfrwt beam="1">  1        2 0.18275733E-01 0.79752699E+02</pdfrwt>
<pdfrwt beam="2">  1       -1 0.20593457E-02 0.79752699E+02</pdfrwt>
<totfact> 0.18784673E+05</totfact>
</mgrwt>
</event>
<event>
 8    1  0.1627221E-013  0.7192239E+02  0.7818608E-02  0.1353675E+00
          2   -1    0    0  501    0  0.00000000000E+00  0.00000000000E+00  0.23550588074E+03  0.23550588075E+03  0.25500000000E-02 0. -1.
         -1   -1    0    0    0  501 -0.00000000000E+00 -0.00000000000E+00 -0.54911887708E+01  0.54911910838E+01  0.50400000000E-02 0.  1.
         24    2    1    2    0    0  0.35527136788E-14 -0.35527136788E-14  0.23001469197E+03  0.24099707184E+03  0.71922389509E+02 0.  0.
         66    2    3    3    0    0 -0.20737621694E+02  0.18147353972E+02  0.19236995498E+03  0.19434396051E+03  0.19999993680E+01 0.  0.
        -13    1    3    3    0    0  0.20737621694E+02 -0.18147353972E+02  0.37644736993E+02  0.46653111333E+02  0.10566000000E+00 0.  1.
         13    1    4    4    0    0 -0.11820669455E+02  0.96784544046E+01  0.10233173909E+03  0.10346592045E+03  0.10566000000E+00 0. -1.
        -13    1    4    4    0    0 -0.35847370079E+01  0.39639101981E+01  0.38718855589E+02  0.39086108345E+02  0.10566000000E+00 0.  1.
         14    1    4    4    0    0 -0.53322152305E+01  0.45049893696E+01  0.51319360297E+02  0.51791931706E+02  0.00000000000E+00 0. -1.
<mgrwt>
<rscale>  0 0.71922390E+02</rscale>
<asrwt>0</asrwt>
<pdfrwt beam="1">  1        2 0.36231676E-01 0.71922390E+02</pdfrwt>
<pdfrwt beam="2">  1       -1 0.84479840E-03 0.71922390E+02</pdfrwt>
<totfact> 0.30864196E+05</totfact>
</mgrwt>
</event>
<event>
 8    1  0.1627221E-013  0.8007829E+02  0.7818608E-02  0.1328829E+00
         -1   -1    0    0    0  501 -0.00000000000E+00  0.00000000000E+00  0.32378696101E+02  0.32378696493E+02  0.50400000000E-02 0.  1.
          2   -1    0    0  501    0  0.00000000000E+00 -0.00000000000E+00 -0.49511968129E+02  0.49511968194E+02  0.25500000000E-02 0. -1.
         24    2    1    2    0    0  0.00000000000E+00 -0.17763568394E-14 -0.17133272027E+02  0.81890664688E+02  0.80078286399E+02 0.  0.
         66    2    3    3    0    0 -0.12625811974E+02  0.13219612536E+02 -0.44971921037E+02  0.48586448343E+02  0.19999992955E+01 0.  0.
        -13    1    3    3    0    0  0.12625811974E+02 -0.13219612536E+02  0.27838649010E+02  0.33304216345E+02  0.10566000000E+00 0.  1.
         13    1    4    4    0    0 -0.82636502288E+01  0.91350577131E+01 -0.29107766372E+02  0.31607126123E+02  0.10566000000E+00 0. -1.
        -13    1    4    4    0    0 -0.10732760460E+01  0.68746058169E+00 -0.25983961456E+01  0.28960922098E+01  0.10566000000E+00 0.  1.
        -14    1    4    4    0    0 -0.32888856991E+01  0.33970942410E+01 -0.13265758520E+02  0.14083230010E+02  0.00000000000E+00 0.  1.
<mgrwt>
<rscale>  0 0.80078286E+02</rscale>
<asrwt>0</asrwt>
<pdfrwt beam="1">  1        2 0.76172259E-02 0.80078286E+02</pdfrwt>
<pdfrwt beam="2">  1       -1 0.49813379E-02 0.80078286E+02</pdfrwt>
<totfact> 0.14871258E+05</totfact>
</mgrwt>
</event>
<event>
 8    1  0.1627221E-013  0.8018682E+02  0.7818608E-02  0.1328522E+00
          2   -1    0    0  501    0  0.00000000000E+00  0.00000000000E+00  0.11241104410E+02  0.11241104699E+02  0.25500000000E-02 0. -1.
         -1   -1    0    0    0  501 -0.00000000000E+00 -0.00000000000E+00 -0.14300030326E+03  0.14300030335E+03  0.50400000000E-02 0.  1.
         24    2    1    2    0    0 -0.88817841970E-15 -0.71054273576E-14 -0.13175919885E+03  0.15424140805E+03  0.80186816094E+02 0.  0.
         66    2    3    3    0    0  0.36014458049E+01  0.31341256583E+02 -0.18403866937E+02  0.36577959122E+02  0.19999998000E+01 0.  0.
        -13    1    3    3    0    0 -0.36014458049E+01 -0.31341256583E+02 -0.11335533192E+03  0.11766344893E+03  0.10566000000E+00 0.  1.
         13    1    4    4    0    0  0.21677265081E+01  0.15350860849E+02 -0.91137458450E+01  0.17983867614E+02  0.10566000000E+00 0. -1.
        -13    1    4    4    0    0  0.50983831380E+00  0.99607604488E+01 -0.51863787556E+01  0.11242169384E+02  0.10566000000E+00 0.  1.
        -14    1    4    4    0    0  0.92388098300E+00  0.60296352859E+01 -0.41037423368E+01  0.73519221241E+01  0.00000000000E+00 0.  1.
<mgrwt>
<rscale>  0 0.80186816E+02</rscale>
<asrwt>0</asrwt>
<pdfrwt beam="1">  1        2 0.17294008E-02 0.80186816E+02</pdfrwt>
<pdfrwt beam="2">  1       -1 0.22000045E-01 0.80186816E+02</pdfrwt>
<totfact> 0.10853764E+05</totfact>
</mgrwt>
</event>
<event>
 8    1  0.1627221E-013  0.8099440E+02  0.7818608E-02  0.1326253E+00
         -1   -1    0    0    0  501 -0.00000000000E+00  0.00000000000E+00  0.25897399711E+02  0.25897400202E+02  0.50400000000E-02 0.  1.
          2   -1    0    0  501    0  0.00000000000E+00 -0.00000000000E+00 -0.63327720978E+02  0.63327721029E+02  0.25500000000E-02 0. -1.
         24    2    1    2    0    0  0.35527136788E-14  0.00000000000E+00 -0.37430321267E+02  0.89225121231E+02  0.80994402946E+02 0.  0.
         66    2    3    3    0    0 -0.20131870797E+02 -0.31818568142E+02 -0.35077534568E+02  0.51498999383E+02  0.20000014317E+01 0.  0.
        -13    1    3    3    0    0  0.20131870797E+02  0.31818568142E+02 -0.23527866984E+01  0.37726121848E+02  0.10566000000E+00 0.  1.
         13    1    4    4    0    0 -0.12563783442E+02 -0.20253059329E+02 -0.22171330471E+02  0.32551714631E+02  0.10566000000E+00 0. -1.
        -13    1    4    4    0    0 -0.52127522894E+01 -0.74493486829E+01 -0.91264248954E+01  0.12882871483E+02  0.10566000000E+00 0.  1.
         14    1    4    4    0    0 -0.23553350663E+01 -0.41161601299E+01 -0.37797792015E+01  0.60644132694E+01  0.00000000000E+00 0. -1.
<mgrwt>
<rscale>  0 0.80994403E+02</rscale>
<asrwt>0</asrwt>
<pdfrwt beam="1">  1        2 0.97427263E-02 0.80994403E+02</pdfrwt>
<pdfrwt beam="2">  1       -1 0.39842154E-02 0.80994403E+02</pdfrwt>
<totfact> 0.15242863E+05</totfact>
</mgrwt>
</event>
<event>
 8    1  0.1627221E-013  0.8117268E+02  0.7818608E-02  0.1325756E+00
         -1   -1    0    0    0  501 -0.00000000000E+00  0.00000000000E+00  0.11055849917E+02  0.11055851065E+02  0.50400000000E-02 0.  1.
          2   -1    0    0  501    0  0.00000000000E+00 -0.00000000000E+00 -0.14899360387E+03  0.14899360389E+03  0.25500000000E-02 0. -1.
         24    2    1    2    0    0  0.00000000000E+00  0.17763568394E-14 -0.13793775396E+03  0.16004945496E+03  0.81172680543E+02 0.  0.
         66    2    3    3    0    0 -0.17692969299E+02  0.12398402187E+02 -0.13669778238E+03  0.13840897823E+03  0.20000022449E+01 0.  0.
        -13    1    3    3    0    0  0.17692969299E+02 -0.12398402187E+02 -0.12399715770E+01  0.21640476726E+02  0.10566000000E+00 0.  1.
         13    1    4    4    0    0 -0.18521943537E+01  0.94756969381E+00 -0.15566005655E+02  0.15704782976E+02  0.10566000000E+00 0. -1.
        -13    1    4    4    0    0 -0.77823763337E+00  0.43761949636E+00 -0.69328802675E+01  0.69909339489E+01  0.10566000000E+00 0.  1.
         14    1    4    4    0    0 -0.15062537311E+02  0.11013212997E+02 -0.11419889646E+03  0.11571326131E+03  0.00000000000E+00 0. -1.
<mgrwt>
<rscale>  0 0.81172681E+02</rscale>
<asrwt>0</asrwt>
<pdfrwt beam="1">  1        2 0.22922092E-01 0.81172681E+02</pdfrwt>
<pdfrwt beam="2">  1       -1 0.17009002E-02 0.81172681E+02</pdfrwt>
<totfact> 0.19228917E+05</totfact>
</mgrwt>
</event>
<event>
 8    1  0.1627221E-013  0.7984142E+02  0.7818608E-02  0.1329502E+00
         -1   -1    0    0    0  501 -0.00000000000E+00  0.00000000000E+00  0.28053163202E+03  0.28053163206E+03  0.50400000000E-02 0.  1.
          2   -1    0    0  501    0  0.00000000000E+00 -0.00000000000E+00 -0.56808680405E+01  0.56808686128E+01  0.25500000000E-02 0. -1.
         24    2    1    2    0    0  0.00000000000E+00  0.35527136788E-14  0.27485076398E+03  0.28621250068E+03  0.79841424613E+02 0.  0.
         66    2    3    3    0    0 -0.31758969055E+02  0.19750079410E+02  0.87715356909E+02  0.95376525307E+02  0.19999974773E+01 0.  0.
        -13    1    3    3    0    0  0.31758969055E+02 -0.19750079410E+02  0.18713540707E+03  0.19083597537E+03  0.10566000000E+00 0.  1.
         13    1    4    4    0    0 -0.12374775253E+02  0.72713700264E+01  0.33253029774E+02  0.36218545495E+02  0.10566000000E+00 0. -1.
        -13    1    4    4    0    0 -0.53981630290E+01  0.33124925317E+01  0.13421113330E+02  0.14840829422E+02  0.10566000000E+00 0.  1.
        -14    1    4    4    0    0 -0.13986030773E+02  0.91662168519E+01  0.41041213804E+02  0.44317150390E+02  0.00000000000E+00 0.  1.
<mgrwt>
<rscale>  0 0.79841425E+02</rscale>
<asrwt>0</asrwt>
<pdfrwt beam="1">  1        2 0.87397954E-03 0.79841425E+02</pdfrwt>
<pdfrwt beam="2">  1       -1 0.43158723E-01 0.79841425E+02</pdfrwt>
<totfact> 0.89206981E+04</totfact>
</mgrwt>
</event>
<event>
 8    1  0.1627221E-013  0.8482012E+02  0.7818608E-02  0.1315904E+00
         -1   -1    0    0    0  501 -0.00000000000E+00  0.00000000000E+00  0.10488632369E+02  0.10488633580E+02  0.50400000000E-02 0.  1.
          2   -1    0    0  501    0  0.00000000000E+00 -0.00000000000E+00 -0.17148214369E+03  0.17148214371E+03  0.25500000000E-02 0. -1.
         24    2    1    2    0    0  0.00000000000E+00  0.00000000000E+00 -0.16099351132E+03  0.18197077729E+03  0.84820122022E+02 0.  0.
         66    2    3    3    0    0 -0.29629041067E+01  0.41545479013E+02 -0.63675614830E+02  0.76114318966E+02  0.20000001482E+01 0.  0.
        -13    1    3    3    0    0  0.29629041067E+01 -0.41545479013E+02 -0.97317896492E+02  0.10585645832E+03  0.10566000000E+00 0.  1.
         13    1    4    4    0    0 -0.15643706812E+01  0.21361409423E+02 -0.32148872320E+02  0.38630534861E+02  0.10566000000E+00 0. -1.
        -13    1    4    4    0    0 -0.25160215505E+00  0.10527234139E+02 -0.17222856882E+02  0.20187221836E+02  0.10566000000E+00 0.  1.
        -14    1    4    4    0    0 -0.11469312704E+01  0.96568354512E+01 -0.14303885628E+02  0.17296562269E+02  0.00000000000E+00 0.  1.
<mgrwt>
<rscale>  0 0.84820122E+02</rscale>
<asrwt>0</asrwt>
<pdfrwt beam="1">  1        2 0.26381866E-01 0.84820122E+02</pdfrwt>
<pdfrwt beam="2">  1       -1 0.16136360E-02 0.84820122E+02</pdfrwt>
<totfact> 0.17919057E+05</totfact>
</mgrwt>
</event>
<event>
 8    1  0.1627221E-013  0.7882428E+02  0.7818608E-02  0.1332421E+00
          2   -1    0    0  501    0  0.00000000000E+00  0.00000000000E+00  0.35229716299E+02  0.35229716391E+02  0.25500000000E-02 0. -1.
         -1   -1    0    0    0  501 -0.00000000000E+00 -0.00000000000E+00 -0.44091094844E+02  0.44091095132E+02  0.50400000000E-02 0.  1.
         24    2    1    2    0    0  0.71054273576E-14 -0.44408920985E-15 -0.88613785452E+01  0.79320811523E+02  0.78824279959E+02 0.  0.
         66    2    3    3    0    0 -0.35071122567E+02  0.24869686124E+01  0.13430564430E+02  0.37690167322E+02  0.20000002101E+01 0.  0.
        -13    1    3    3    0    0  0.35071122567E+02 -0.24869686124E+01 -0.22291942975E+02  0.41630644202E+02  0.10566000000E+00 0.  1.
         13    1    4    4    0    0 -0.16642865026E+02  0.14888248172E+01  0.60451150221E+01  0.17769528279E+02  0.10566000000E+00 0. -1.
        -13    1    4    4    0    0 -0.81644732245E+01  0.10556281987E+01  0.30830981648E+01  0.87914522268E+01  0.10566000000E+00 0.  1.
        -14    1    4    4    0    0 -0.10263784317E+02 -0.57484403495E-01  0.43023512428E+01  0.11129186815E+02  0.00000000000E+00 0.  1.
<mgrwt>
<rscale>  0 0.78824280E+02</rscale>
<asrwt>0</asrwt>
<pdfrwt beam="1">  1        2 0.54199564E-02 0.78824280E+02</pdfrwt>
<pdfrwt beam="2">  1       -1 0.67832454E-02 0.78824280E+02</pdfrwt>
<totfact> 0.14475404E+05</totfact>
</mgrwt>
</event>
<event>
 8    1  0.1627221E-013  0.8151408E+02  0.7818608E-02  0.1324809E+00
         -1   -1    0    0    0  501 -0.00000000000E+00  0.00000000000E+00  0.25237033490E+02  0.25237033993E+02  0.50400000000E-02 0.  1.
          2   -1    0    0  501    0  0.00000000000E+00 -0.00000000000E+00 -0.65821379287E+02  0.65821379336E+02  0.25500000000E-02 0. -1.
         24    2    1    2    0    0  0.71054273576E-14  0.00000000000E+00 -0.40584345797E+02  0.91058413329E+02  0.81514081693E+02 0.  0.
         66    2    3    3    0    0 -0.40702041803E+02 -0.14915423261E+01 -0.20863441450E+02  0.45805721279E+02  0.20000018192E+01 0.  0.
        -13    1    3    3    0    0  0.40702041803E+02  0.14915423261E+01 -0.19720904346E+02  0.45252692050E+02  0.10566000000E+00 0.  1.
         13    1    4    4    0    0 -0.13935040644E+02  0.30252623432E+00 -0.69959756594E+01  0.15595887898E+02  0.10566000000E+00 0. -1.
        -13    1    4    4    0    0 -0.40453166788E+01 -0.52901851981E+00 -0.20195654845E+01  0.45534883779E+01  0.10566000000E+00 0.  1.
         14    1    4    4    0    0 -0.22721684481E+02 -0.12650500406E+01 -0.11847900307E+02  0.25656345003E+02  0.00000000000E+00 0. -1.
<mgrwt>
<rscale>  0 0.81514082E+02</rscale>
<asrwt>0</asrwt>
<pdfrwt beam="1">  1        2 0.10126366E-01 0.81514082E+02</pdfrwt>
<pdfrwt beam="2">  1       -1 0.38826206E-02 0.81514082E+02</pdfrwt>
<totfact> 0.15118626E+05</totfact>
</mgrwt>
</event>
<event>
 8    1  0.1627221E-013  0.7979828E+02  0.7818608E-02  0.1329625E+00
         -1   -1    0    0    0  501 -0.00000000000E+00  0.00000000000E+00  0.17714330517E+01  0.17714402215E+01  0.50400000000E-02 0.  1.
          2   -1    0    0  501    0  0.00000000000E+00 -0.00000000000E+00 -0.89867243165E+03  0.89867243165E+03  0.25500000000E-02 0. -1.
         24    2    1    2    0    0  0.00000000000E+00  0.00000000000E+00 -0.89690099859E+03  0.90044387187E+03  0.79798277619E+02 0.  0.
         66    2    3    3    0    0 -0.92546467796E+01  0.16046619729E+02 -0.84716913857E+03  0.84737399758E+03  0.19999844350E+01 0.  0.
        -13    1    3    3    0    0  0.92546467796E+01 -0.16046619729E+02 -0.49731860023E+02  0.53069874289E+02  0.10566000000E+00 0.  1.
         13    1    4    4    0    0 -0.13404337278E+01  0.21101944445E+01 -0.13720460444E+03  0.13722741828E+03  0.10566000000E+00 0. -1.
        -13    1    4    4    0    0 -0.30615592749E+01  0.41931109117E+01 -0.22581961669E+03  0.22587931683E+03  0.10566000000E+00 0.  1.
         14    1    4    4    0    0 -0.48526537769E+01  0.97433143728E+01 -0.48414491744E+03  0.48426726248E+03  0.00000000000E+00 0. -1.
<mgrwt>
<rscale>  0 0.79798278E+02</rscale>
<asrwt>0</asrwt>
<pdfrwt beam="1">  1        2 0.13825693E+00 0.79798278E+02</pdfrwt>
<pdfrwt beam="2">  1       -1 0.27252943E-03 0.79798278E+02</pdfrwt>
<totfact> 0.35170647E+05</totfact>
</mgrwt>
</event>
<event>
 8    1  0.1627221E-013  0.8058451E+02  0.7818608E-02  0.1327401E+00
          2   -1    0    0  501    0  0.00000000000E+00  0.00000000000E+00  0.34809078275E+02  0.34809078368E+02  0.25500000000E-02 0. -1.
         -1   -1    0    0    0  501 -0.00000000000E+00 -0.00000000000E+00 -0.46639146540E+02  0.46639146813E+02  0.50400000000E-02 0.  1.
         24    2    1    2    0    0  0.00000000000E+00  0.00000000000E+00 -0.11830068266E+02  0.81448225181E+02  0.80584507630E+02 0.  0.
         66    2    3    3    0    0  0.35924863736E+01  0.35884318759E+02  0.12186182806E+02  0.38119461400E+02  0.19999987257E+01 0.  0.
        -13    1    3    3    0    0 -0.35924863736E+01 -0.35884318759E+02 -0.24016251072E+02  0.43328763780E+02  0.10566000000E+00 0.  1.
         13    1    4    4    0    0  0.90315597710E+00  0.11346193514E+02  0.45445666381E+01  0.12256265661E+02  0.10566000000E+00 0. -1.
        -13    1    4    4    0    0  0.16045123634E+01  0.98698925609E+01  0.31437701516E+01  0.10482542339E+02  0.10566000000E+00 0.  1.
         14    1    4    4    0    0  0.10848180331E+01  0.14668232684E+02  0.44978460162E+01  0.15380653401E+02  0.00000000000E+00 0. -1.
<mgrwt>
<rscale>  0 0.80584508E+02</rscale>
<asrwt>0</asrwt>
<pdfrwt beam="1">  1        2 0.53552428E-02 0.80584508E+02</pdfrwt>
<pdfrwt beam="2">  1       -1 0.71752534E-02 0.80584508E+02</pdfrwt>
<totfact> 0.13580754E+05</totfact>
</mgrwt>
</event>
<event>
 8    1  0.1627221E-013  0.7978954E+02  0.7818608E-02  0.1329650E+00
         -1   -1    0    0    0  501 -0.00000000000E+00  0.00000000000E+00  0.33790792702E+02  0.33790793078E+02  0.50400000000E-02 0.  1.
          2   -1    0    0  501    0  0.00000000000E+00 -0.00000000000E+00 -0.47101375354E+02  0.47101375423E+02  0.25500000000E-02 0. -1.
         24    2    1    2    0    0  0.00000000000E+00  0.00000000000E+00 -0.13310582652E+02  0.80892168501E+02  0.79789543891E+02 0.  0.
         66    2    3    3    0    0  0.18076905614E+02  0.11937215258E+02 -0.40593129639E+02  0.46055116977E+02  0.20000002753E+01 0.  0.
        -13    1    3    3    0    0 -0.18076905614E+02 -0.11937215258E+02  0.27282546988E+02  0.34837051524E+02  0.10566000000E+00 0.  1.
         13    1    4    4    0    0  0.60805840800E+01  0.36182842504E+01 -0.12259822195E+02  0.14155560320E+02  0.10566000000E+00 0. -1.
        -13    1    4    4    0    0  0.34502524255E+01  0.20681929176E+01 -0.67349432524E+01  0.78455266486E+01  0.10566000000E+00 0.  1.
         14    1    4    4    0    0  0.85460691088E+01  0.62507380905E+01 -0.21598364192E+02  0.24054030008E+02  0.00000000000E+00 0. -1.
<mgrwt>
<rscale>  0 0.79789544E+02</rscale>
<asrwt>0</asrwt>
<pdfrwt beam="1">  1        2 0.72463655E-02 0.79789544E+02</pdfrwt>
<pdfrwt beam="2">  1       -1 0.51985835E-02 0.79789544E+02</pdfrwt>
<totfact> 0.14858731E+05</totfact>
</mgrwt>
</event>
<event>
 8    1  0.1627221E-013  0.8450417E+02  0.7818608E-02  0.1316734E+00
          2   -1    0    0  501    0  0.00000000000E+00  0.00000000000E+00  0.23161404933E+02  0.23161405074E+02  0.25500000000E-02 0. -1.
         -1   -1    0    0    0  501 -0.00000000000E+00 -0.00000000000E+00 -0.77078166573E+02  0.77078166738E+02  0.50400000000E-02 0.  1.
         24    2    1    2    0    0  0.00000000000E+00  0.17763568394E-14 -0.53916761640E+02  0.10023957181E+03  0.84504168957E+02 0.  0.
         66    2    3    3    0    0  0.29949720064E+02 -0.15955388142E+02  0.28396778551E+01  0.34111932122E+02  0.20000000241E+01 0.  0.
        -13    1    3    3    0    0 -0.29949720064E+02  0.15955388142E+02 -0.56756439495E+02  0.66127639689E+02  0.10566000000E+00 0.  1.
         13    1    4    4    0    0  0.17169740192E+02 -0.98347121441E+01  0.11283693059E+01  0.19819332041E+02  0.10566000000E+00 0. -1.
        -13    1    4    4    0    0  0.47365672974E+01 -0.18979532258E+01  0.71619792444E+00  0.51537752873E+01  0.10566000000E+00 0.  1.
         14    1    4    4    0    0  0.80434125744E+01 -0.42227227724E+01  0.99511062477E+00  0.91388247937E+01  0.00000000000E+00 0. -1.
<mgrwt>
<rscale>  0 0.84504169E+02</rscale>
<asrwt>0</asrwt>
<pdfrwt beam="1">  1        2 0.35632931E-02 0.84504169E+02</pdfrwt>
<pdfrwt beam="2">  1       -1 0.11858179E-01 0.84504169E+02</pdfrwt>
<totfact> 0.10931857E+05</totfact>
</mgrwt>
</event>
<event>
 8    1  0.1627221E-013  0.8096428E+02  0.7818608E-02  0.1326337E+00
         -1   -1    0    0    0  501 -0.00000000000E+00  0.00000000000E+00  0.93307912894E+02  0.93307913030E+02  0.50400000000E-02 0.  1.
          2   -1    0    0  501    0  0.00000000000E+00 -0.00000000000E+00 -0.17563394302E+02  0.17563394487E+02  0.25500000000E-02 0. -1.
         24    2    1    2    0    0 -0.35527136788E-14  0.00000000000E+00  0.75744518592E+02  0.11087130752E+03  0.80964280605E+02 0.  0.
         66    2    3    3    0    0  0.23887387912E+02  0.25900800610E+02  0.10667598705E+02  0.36868095158E+02  0.20000012317E+01 0.  0.
        -13    1    3    3    0    0 -0.23887387912E+02 -0.25900800610E+02  0.65076919887E+02  0.74003212359E+02  0.10566000000E+00 0.  1.
         13    1    4    4    0    0  0.58489838802E+01  0.69170014909E+01  0.23510989379E+01  0.93591854511E+01  0.10566000000E+00 0. -1.
        -13    1    4    4    0    0  0.14795273820E+02  0.16138494218E+02  0.66237578420E+01  0.22874362396E+02  0.10566000000E+00 0.  1.
        -14    1    4    4    0    0  0.32431302115E+01  0.28453049015E+01  0.16927419250E+01  0.46345473108E+01  0.00000000000E+00 0.  1.
<mgrwt>
<rscale>  0 0.80964281E+02</rscale>
<asrwt>0</asrwt>
<pdfrwt beam="1">  1        2 0.27020607E-02 0.80964281E+02</pdfrwt>
<pdfrwt beam="2">  1       -1 0.14355064E-01 0.80964281E+02</pdfrwt>
<totfact> 0.11675548E+05</totfact>
</mgrwt>
</event>
<event>
 8    1  0.1627221E-013  0.8029369E+02  0.7818608E-02  0.1328220E+00
          2   -1    0    0  501    0  0.00000000000E+00  0.00000000000E+00  0.84482040826E+01  0.84482044675E+01  0.25500000000E-02 0. -1.
         -1   -1    0    0    0  501 -0.00000000000E+00 -0.00000000000E+00 -0.19078244078E+03  0.19078244085E+03  0.50400000000E-02 0.  1.
         24    2    1    2    0    0  0.00000000000E+00  0.00000000000E+00 -0.18233423670E+03  0.19923064531E+03  0.80293686926E+02 0.  0.
         66    2    3    3    0    0  0.26778234534E+02 -0.54507860282E+01 -0.18332358136E+02  0.32967563877E+02  0.20000000287E+01 0.  0.
        -13    1    3    3    0    0 -0.26778234534E+02  0.54507860282E+01 -0.16400187856E+03  0.16626308144E+03  0.10566000000E+00 0.  1.
         13    1    4    4    0    0  0.10488260220E+02 -0.22714926538E+01 -0.71779944032E+01  0.12911159863E+02  0.10566000000E+00 0. -1.
        -13    1    4    4    0    0  0.10814639070E+02 -0.17793542409E+01 -0.81295383397E+01  0.13646357660E+02  0.10566000000E+00 0.  1.
         14    1    4    4    0    0  0.54753352436E+01 -0.13999391335E+01 -0.30248253928E+01  0.64100463543E+01  0.00000000000E+00 0. -1.
<mgrwt>
<rscale>  0 0.80293687E+02</rscale>
<asrwt>0</asrwt>
<pdfrwt beam="1">  1        2 0.12997239E-02 0.80293687E+02</pdfrwt>
<pdfrwt beam="2">  1       -1 0.29351142E-01 0.80293687E+02</pdfrwt>
<totfact> 0.10007775E+05</totfact>
</mgrwt>
</event>
<event>
 8    1  0.1627221E-013  0.7543541E+02  0.7818608E-02  0.1342528E+00
         -1   -1    0    0    0  501 -0.00000000000E+00  0.00000000000E+00  0.98653074620E+01  0.98653087494E+01  0.50400000000E-02 0.  1.
          2   -1    0    0  501    0  0.00000000000E+00 -0.00000000000E+00 -0.14420486713E+03  0.14420486715E+03  0.25500000000E-02 0. -1.
         24    2    1    2    0    0 -0.17763568394E-14  0.35527136788E-14 -0.13433955967E+03  0.15407017590E+03  0.75435414830E+02 0.  0.
         66    2    3    3    0    0 -0.14799753916E+02  0.16847866887E+02 -0.12909004835E+03  0.13103863518E+03  0.19999986772E+01 0.  0.
        -13    1    3    3    0    0  0.14799753916E+02 -0.16847866887E+02 -0.52495113225E+01  0.23031540717E+02  0.10566000000E+00 0.  1.
         13    1    4    4    0    0 -0.20403146357E+01  0.16659529940E+01 -0.15289630922E+02  0.15515226745E+02  0.10566000000E+00 0. -1.
        -13    1    4    4    0    0 -0.23804736475E+01  0.32651903700E+01 -0.25957122470E+02  0.26269973237E+02  0.10566000000E+00 0.  1.
        -14    1    4    4    0    0 -0.10378965633E+02  0.11916723523E+02 -0.87843294954E+02  0.89253435203E+02  0.00000000000E+00 0.  1.
<mgrwt>
<rscale>  0 0.75435415E+02</rscale>
<asrwt>0</asrwt>
<pdfrwt beam="1">  1        2 0.22185363E-01 0.75435415E+02</pdfrwt>
<pdfrwt beam="2">  1       -1 0.15177398E-02 0.75435415E+02</pdfrwt>
<totfact> 0.23106889E+05</totfact>
</mgrwt>
</event>
<event>
 8    1  0.1627221E-013  0.8075215E+02  0.7818608E-02  0.1326930E+00
          2   -1    0    0  501    0  0.00000000000E+00  0.00000000000E+00  0.58012786471E+02  0.58012786527E+02  0.25500000000E-02 0. -1.
         -1   -1    0    0    0  501 -0.00000000000E+00 -0.00000000000E+00 -0.28101176395E+02  0.28101176847E+02  0.50400000000E-02 0.  1.
         24    2    1    2    0    0  0.00000000000E+00  0.00000000000E+00  0.29911610077E+02  0.86113963374E+02  0.80752153349E+02 0.  0.
         66    2    3    3    0    0 -0.11027998647E+02 -0.71639128828E+01  0.55646117603E+02  0.57213886495E+02  0.20000004078E+01 0.  0.
        -13    1    3    3    0    0  0.11027998647E+02  0.71639128828E+01 -0.25734507526E+02  0.28900076879E+02  0.10566000000E+00 0.  1.
         13    1    4    4    0    0 -0.89337183482E+00 -0.12001526852E+01  0.65178805701E+01  0.66882292772E+01  0.10566000000E+00 0.  1.
        -13    1    4    4    0    0 -0.78139373233E+01 -0.45633876428E+01  0.35942807148E+02  0.37064520407E+02  0.10566000000E+00 0.  1.
         14    1    4    4    0    0 -0.23206894891E+01 -0.14003725547E+01  0.13185429885E+02  0.13461136811E+02  0.00000000000E+00 0. -1.
<mgrwt>
<rscale>  0 0.80752153E+02</rscale>
<asrwt>0</asrwt>
<pdfrwt beam="1">  1        2 0.89250440E-02 0.80752153E+02</pdfrwt>
<pdfrwt beam="2">  1       -1 0.43232580E-02 0.80752153E+02</pdfrwt>
<totfact> 0.15057208E+05</totfact>
</mgrwt>
</event>
<event>
 8    1  0.1627221E-013  0.8809338E+02  0.7818608E-02  0.1307536E+00
         -1   -1    0    0    0  501 -0.00000000000E+00  0.00000000000E+00  0.13151855940E+02  0.13151856905E+02  0.50400000000E-02 0.  1.
          2   -1    0    0  501    0  0.00000000000E+00 -0.00000000000E+00 -0.14751611486E+03  0.14751611488E+03  0.25500000000E-02 0. -1.
         24    2    1    2    0    0  0.00000000000E+00 -0.88817841970E-15 -0.13436425892E+03  0.16066797179E+03  0.88093377068E+02 0.  0.
         66    2    3    3    0    0 -0.38511452790E+02  0.76763945979E+01 -0.10351270011E+03  0.11072912043E+03  0.19999992549E+01 0.  0.
        -13    1    3    3    0    0  0.38511452790E+02 -0.76763945979E+01 -0.30851558815E+02  0.49938851362E+02  0.10566000000E+00 0.  1.
         13    1    4    4    0    0 -0.27349291681E+02  0.52667441252E+01 -0.72467850906E+02  0.77635835335E+02  0.10566000000E+00 0. -1.
        -13    1    4    4    0    0 -0.50381477010E+01  0.75662185900E+00 -0.14884924484E+02  0.15733008289E+02  0.10566000000E+00 0.  1.
         14    1    4    4    0    0 -0.61240134081E+01  0.16530286137E+01 -0.16159924717E+02  0.17360276803E+02  0.00000000000E+00 0. -1.
<mgrwt>
<rscale>  0 0.88093377E+02</rscale>
<asrwt>0</asrwt>
<pdfrwt beam="1">  1        2 0.22694786E-01 0.88093377E+02</pdfrwt>
<pdfrwt beam="2">  1       -1 0.20233626E-02 0.88093377E+02</pdfrwt>
<totfact> 0.15405215E+05</totfact>
</mgrwt>
</event>
<event>
 8    1  0.1627221E-013  0.7953743E+02  0.7818608E-02  0.1330369E+00
          2   -1    0    0  501    0  0.00000000000E+00  0.00000000000E+00  0.29718327156E+03  0.29718327157E+03  0.25500000000E-02 0. -1.
         -1   -1    0    0    0  501 -0.00000000000E+00 -0.00000000000E+00 -0.53218015469E+01  0.53218039335E+01  0.50400000000E-02 0.  1.
         24    2    1    2    0    0  0.00000000000E+00  0.35527136788E-14  0.29186147002E+03  0.30250507551E+03  0.79537431614E+02 0.  0.
         66    2    3    3    0    0 -0.15110619055E+02 -0.27512797027E+02  0.23873768626E+03  0.24080068042E+03  0.20000104160E+01 0.  0.
        -13    1    3    3    0    0  0.15110619055E+02  0.27512797027E+02  0.53123783756E+02  0.61704395087E+02  0.10566000000E+00 0.  1.
         13    1    4    4    0    0 -0.18878966880E+01 -0.27554157413E+01  0.28118237758E+02  0.28316124884E+02  0.10566000000E+00 0. -1.
        -13    1    4    4    0    0 -0.37568102337E+01 -0.66091169308E+01  0.60674241191E+02  0.61148742897E+02  0.10566000000E+00 0.  1.
        -14    1    4    4    0    0 -0.94659121330E+01 -0.18148264355E+02  0.14994520731E+03  0.15133581264E+03  0.00000000000E+00 0.  1.
<mgrwt>
<rscale>  0 0.79537432E+02</rscale>
<asrwt>0</asrwt>
<pdfrwt beam="1">  1        2 0.45720499E-01 0.79537432E+02</pdfrwt>
<pdfrwt beam="2">  1       -1 0.81873897E-03 0.79537432E+02</pdfrwt>
<totfact> 0.25796723E+05</totfact>
</mgrwt>
</event>
<event>
 8    1  0.1627221E-013  0.8239657E+02  0.7818608E-02  0.1322385E+00
         -1   -1    0    0    0  501 -0.00000000000E+00  0.00000000000E+00  0.74876852871E+01  0.74876869833E+01  0.50400000000E-02 0.  1.
          2   -1    0    0  501    0  0.00000000000E+00 -0.00000000000E+00 -0.22667868734E+03  0.22667868736E+03  0.25500000000E-02 0. -1.
         24    2    1    2    0    0  0.00000000000E+00 -0.44408920985E-15 -0.21919100206E+03  0.23416637434E+03  0.82396574502E+02 0.  0.
         66    2    3    3    0    0 -0.25858180274E+02  0.15787787405E+01 -0.20060898994E+03  0.20228471240E+03  0.19999999188E+01 0.  0.
        -13    1    3    3    0    0  0.25858180274E+02 -0.15787787405E+01 -0.18582012120E+02  0.31881661937E+02  0.10566000000E+00 0.  1.
         13    1    4    4    0    0 -0.15122390238E+02  0.21790048346E+00 -0.12204567676E+03  0.12297923624E+03  0.10566000000E+00 0. -1.
        -13    1    4    4    0    0 -0.57296893924E+01  0.80382844106E+00 -0.41627347604E+02  0.42027642252E+02  0.10566000000E+00 0. -1.
         14    1    4    4    0    0 -0.50061006437E+01  0.55704981595E+00 -0.36935965573E+02  0.37277833909E+02  0.00000000000E+00 0. -1.
<mgrwt>
<rscale>  0 0.82396575E+02</rscale>
<asrwt>0</asrwt>
<pdfrwt beam="1">  1        2 0.34873639E-01 0.82396575E+02</pdfrwt>
<pdfrwt beam="2">  1       -1 0.11519519E-02 0.82396575E+02</pdfrwt>
<totfact> 0.21323591E+05</totfact>
</mgrwt>
</event>
<event>
 8    1  0.1627221E-013  0.8024492E+02  0.7818608E-02  0.1328358E+00
         -1   -1    0    0    0  501 -0.00000000000E+00  0.00000000000E+00  0.50566228078E+01  0.50566253195E+01  0.50400000000E-02 0.  1.
          2   -1    0    0  501    0  0.00000000000E+00 -0.00000000000E+00 -0.31835702210E+03  0.31835702211E+03  0.25500000000E-02 0. -1.
         24    2    1    2    0    0  0.22204460493E-15  0.00000000000E+00 -0.31330039930E+03  0.32341364743E+03  0.80244919760E+02 0.  0.
         66    2    3    3    0    0 -0.16334569116E+01  0.39927647655E+02 -0.17006661258E+03  0.17470986789E+03  0.19999989405E+01 0.  0.
        -13    1    3    3    0    0  0.16334569116E+01 -0.39927647655E+02 -0.14323378671E+03  0.14870377954E+03  0.10566000000E+00 0.  1.
         13    1    4    4    0    0 -0.17650960790E+01  0.23335617761E+02 -0.99446249466E+02  0.10216278343E+03  0.10566000000E+00 0. -1.
        -13    1    4    4    0    0 -0.64050795134E-01  0.60258051364E+00 -0.28778677094E+01  0.29428714495E+01  0.10566000000E+00 0.  1.
        -14    1    4    4    0    0  0.19568996261E+00  0.15989449381E+02 -0.67742495406E+02  0.69604213019E+02  0.00000000000E+00 0.  1.
<mgrwt>
<rscale>  0 0.80244920E+02</rscale>
<asrwt>0</asrwt>
<pdfrwt beam="1">  1        2 0.48977988E-01 0.80244920E+02</pdfrwt>
<pdfrwt beam="2">  1       -1 0.77794242E-03 0.80244920E+02</pdfrwt>
<totfact> 0.25840031E+05</totfact>
</mgrwt>
</event>
<event>
 8    1  0.1627221E-013  0.7967597E+02  0.7818608E-02  0.1329974E+00
         -1   -1    0    0    0  501 -0.00000000000E+00  0.00000000000E+00  0.63499929911E+02  0.63499930111E+02  0.50400000000E-02 0.  1.
          2   -1    0    0  501    0  0.00000000000E+00 -0.00000000000E+00 -0.24993176413E+02  0.24993176543E+02  0.25500000000E-02 0. -1.
         24    2    1    2    0    0  0.00000000000E+00 -0.35527136788E-14  0.38506753498E+02  0.88493106654E+02  0.79675967897E+02 0.  0.
         66    2    3    3    0    0 -0.83491823030E+01  0.24828628272E+02 -0.14033852992E+02  0.29784537251E+02  0.20000006036E+01 0.  0.
        -13    1    3    3    0    0  0.83491823030E+01 -0.24828628272E+02  0.52540606490E+02  0.58708569403E+02  0.10566000000E+00 0.  1.
         13    1    4    4    0    0 -0.72511012781E+00  0.13511450636E+01 -0.72108979325E+00  0.16977962793E+01  0.10566000000E+00 0. -1.
        -13    1    4    4    0    0 -0.14748666727E+01  0.64833809582E+01 -0.32473708779E+01  0.74004082323E+01  0.10566000000E+00 0.  1.
        -14    1    4    4    0    0 -0.61492055024E+01  0.16994102251E+02 -0.10065392321E+02  0.20686332739E+02  0.00000000000E+00 0.  1.
<mgrwt>
<rscale>  0 0.79675968E+02</rscale>
<asrwt>0</asrwt>
<pdfrwt beam="1">  1        2 0.38451041E-02 0.79675968E+02</pdfrwt>
<pdfrwt beam="2">  1       -1 0.97692201E-02 0.79675968E+02</pdfrwt>
<totfact> 0.13129661E+05</totfact>
</mgrwt>
</event>
<event>
 8    1  0.1627221E-013  0.8882667E+02  0.7818608E-02  0.1305718E+00
          2   -1    0    0  501    0  0.00000000000E+00  0.00000000000E+00  0.50246186299E+03  0.50246186300E+03  0.25500000000E-02 0. -1.
         -1   -1    0    0    0  501 -0.00000000000E+00 -0.00000000000E+00 -0.39257578913E+01  0.39257611266E+01  0.50400000000E-02 0.  1.
         24    2    1    2    0    0  0.35527136788E-14  0.17763568394E-14  0.49853610510E+03  0.50638762413E+03  0.88826672673E+02 0.  0.
         66    2    3    3    0    0 -0.17544661080E+02 -0.12107670996E+02  0.47137092675E+03  0.47185692896E+03  0.19999997112E+01 0.  0.
        -13    1    3    3    0    0  0.17544661080E+02  0.12107670996E+02  0.27165178355E+02  0.34530695163E+02  0.10566000000E+00 0.  1.
         13    1    4    4    0    0 -0.72285242222E+01 -0.46080047858E+01  0.17756437347E+03  0.17777121016E+03  0.10566000000E+00 0.  1.
        -13    1    4    4    0    0 -0.97463541025E+01 -0.71895065978E+01  0.28365679903E+03  0.28391525359E+03  0.10566000000E+00 0. -1.
         14    1    4    4    0    0 -0.56978275561E+00 -0.31015961198E+00  0.10149754248E+02  0.10170465213E+02  0.00000000000E+00 0. -1.
<mgrwt>
<rscale>  0 0.88826673E+02</rscale>
<asrwt>0</asrwt>
<pdfrwt beam="1">  1        2 0.77301841E-01 0.88826673E+02</pdfrwt>
<pdfrwt beam="2">  1       -1 0.60396288E-03 0.88826673E+02</pdfrwt>
<totfact> 0.23185925E+05</totfact>
</mgrwt>
</event>
<event>
 8    1  0.1627221E-013  0.8449444E+02  0.7818608E-02  0.1316760E+00
         -1   -1    0    0    0  501 -0.00000000000E+00  0.00000000000E+00  0.22658542101E+02  0.22658542662E+02  0.50400000000E-02 0.  1.
          2   -1    0    0  501    0  0.00000000000E+00 -0.00000000000E+00 -0.78770619137E+02  0.78770619178E+02  0.25500000000E-02 0. -1.
         24    2    1    2    0    0  0.00000000000E+00  0.00000000000E+00 -0.56112077036E+02  0.10142916184E+03  0.84494435806E+02 0.  0.
         66    2    3    3    0    0 -0.33919029943E+02  0.20869467464E+02 -0.11232062533E+02  0.41426977460E+02  0.19999920428E+01 0.  0.
        -13    1    3    3    0    0  0.33919029943E+02 -0.20869467464E+02 -0.44880014503E+02  0.60002184380E+02  0.10566000000E+00 0.  1.
         13    1    4    4    0    0 -0.91367812564E+01  0.55546516716E+01 -0.31502467648E+01  0.11147652023E+02  0.10566000000E+00 0. -1.
        -13    1    4    4    0    0 -0.68694805511E+00  0.34354055576E+00 -0.47603366186E+00  0.90977460214E+00  0.10566000000E+00 0.  1.
         14    1    4    4    0    0 -0.24095300632E+02  0.14971275237E+02 -0.76057821059E+01  0.29369550834E+02  0.00000000000E+00 0. -1.
<mgrwt>
<rscale>  0 0.84494436E+02</rscale>
<asrwt>0</asrwt>
<pdfrwt beam="1">  1        2 0.12118557E-01 0.84494436E+02</pdfrwt>
<pdfrwt beam="2">  1       -1 0.34859297E-02 0.84494436E+02</pdfrwt>
<totfact> 0.14342818E+05</totfact>
</mgrwt>
</event>
<event>
 8    1  0.1627221E-013  0.7785626E+02  0.7818608E-02  0.1335248E+00
         -1   -1    0    0    0  501 -0.00000000000E+00  0.00000000000E+00  0.18781824027E+03  0.18781824033E+03  0.50400000000E-02 0.  1.
          2   -1    0    0  501    0  0.00000000000E+00 -0.00000000000E+00 -0.80684342787E+01  0.80684346816E+01  0.25500000000E-02 0. -1.
         24    2    1    2    0    0  0.22204460493E-15 -0.71054273576E-14  0.17974980599E+03  0.19588667501E+03  0.77856256627E+02 0.  0.
         66    2    3    3    0    0 -0.13801326256E+01 -0.37654221111E+02  0.65586049492E+02  0.75665547111E+02  0.19999995109E+01 0.  0.
        -13    1    3    3    0    0  0.13801326256E+01  0.37654221111E+02  0.11416375649E+03  0.12022112790E+03  0.10566000000E+00 0.  1.
         13    1    4    4    0    0 -0.12978539455E+01 -0.27303456675E+02  0.46748630682E+02  0.54153566881E+02  0.10566000000E+00 0. -1.
        -13    1    4    4    0    0  0.41483247009E-01 -0.18842309045E+01  0.28069820253E+01  0.33826556264E+01  0.10566000000E+00 0.  1.
        -14    1    4    4    0    0 -0.12376192710E+00 -0.84665335310E+01  0.16030436785E+02  0.18129324603E+02  0.00000000000E+00 0.  1.
<mgrwt>
<rscale>  0 0.77856257E+02</rscale>
<asrwt>0</asrwt>
<pdfrwt beam="1">  1        2 0.12412977E-02 0.77856257E+02</pdfrwt>
<pdfrwt beam="2">  1       -1 0.28895112E-01 0.77856257E+02</pdfrwt>
<totfact> 0.10872802E+05</totfact>
</mgrwt>
</event>
<event>
 8    1  0.1627221E-013  0.7111768E+02  0.7818608E-02  0.1356333E+00
         -1   -1    0    0    0  501 -0.00000000000E+00  0.00000000000E+00  0.53830629506E+01  0.53830653100E+01  0.50400000000E-02 0.  1.
          2   -1    0    0  501    0  0.00000000000E+00 -0.00000000000E+00 -0.23489060015E+03  0.23489060017E+03  0.25500000000E-02 0. -1.
         24    2    1    2    0    0 -0.71054273576E-14  0.00000000000E+00 -0.22950753720E+03  0.24027366548E+03  0.71117681971E+02 0.  0.
         66    2    3    3    0    0  0.24470506740E+02 -0.21763229970E+02 -0.16141203357E+03  0.16471274530E+03  0.20000011440E+01 0.  0.
        -13    1    3    3    0    0 -0.24470506740E+02  0.21763229970E+02 -0.68095503633E+02  0.75560920176E+02  0.10566000000E+00 0.  1.
         13    1    4    4    0    0  0.10109862358E+02 -0.95034207287E+01 -0.72272636396E+02  0.73592591054E+02  0.10566000000E+00 0. -1.
        -13    1    4    4    0    0  0.10305990887E+02 -0.84284980430E+01 -0.63584937891E+02  0.64963901654E+02  0.10566000000E+00 0. -1.
        -14    1    4    4    0    0  0.40546534947E+01 -0.38313111982E+01 -0.25554459284E+02  0.26156252594E+02  0.00000000000E+00 0.  1.
<mgrwt>
<rscale>  0 0.71117682E+02</rscale>
<asrwt>0</asrwt>
<pdfrwt beam="1">  1        2 0.36137008E-01 0.71117682E+02</pdfrwt>
<pdfrwt beam="2">  1       -1 0.82816390E-03 0.71117682E+02</pdfrwt>
<totfact> 0.31750325E+05</totfact>
</mgrwt>
</event>
<event>
 8    1  0.1627221E-013  0.7975887E+02  0.7818608E-02  0.1329737E+00
          2   -1    0    0  501    0  0.00000000000E+00  0.00000000000E+00  0.20354158086E+03  0.20354158087E+03  0.25500000000E-02 0. -1.
         -1   -1    0    0    0  501 -0.00000000000E+00 -0.00000000000E+00 -0.78134859208E+01  0.78134875463E+01  0.50400000000E-02 0.  1.
         24    2    1    2    0    0  0.17763568394E-14 -0.44408920985E-15  0.19572809494E+03  0.21135506842E+03  0.79758872855E+02 0.  0.
         66    2    3    3    0    0 -0.13821095026E+02 -0.26823395265E+01  0.19672701706E+03  0.19724030230E+03  0.19999996709E+01 0.  0.
        -13    1    3    3    0    0  0.13821095026E+02  0.26823395265E+01 -0.99892212281E+00  0.14114766116E+02  0.10566000000E+00 0.  1.
         13    1    4    4    0    0 -0.10454769422E+02 -0.15844876139E+01  0.14376095166E+03  0.14414935030E+03  0.10566000000E+00 0. -1.
        -13    1    4    4    0    0 -0.20743372168E+01 -0.51683300211E+00  0.26125875349E+02  0.26213403404E+02  0.10566000000E+00 0.  1.
        -14    1    4    4    0    0 -0.12919883875E+01 -0.58101891045E+00  0.26840190052E+02  0.26877548604E+02  0.00000000000E+00 0.  1.
<mgrwt>
<rscale>  0 0.79758873E+02</rscale>
<asrwt>0</asrwt>
<pdfrwt beam="1">  1        2 0.31314087E-01 0.79758873E+02</pdfrwt>
<pdfrwt beam="2">  1       -1 0.12020750E-02 0.79758873E+02</pdfrwt>
<totfact> 0.22371053E+05</totfact>
</mgrwt>
</event>
<event>
 8    1  0.1627221E-013  0.8073888E+02  0.7818608E-02  0.1326968E+00
         -1   -1    0    0    0  501 -0.00000000000E+00  0.00000000000E+00  0.15195787935E+02  0.15195788770E+02  0.50400000000E-02 0.  1.
          2   -1    0    0  501    0  0.00000000000E+00 -0.00000000000E+00 -0.10724626459E+03  0.10724626462E+03  0.25500000000E-02 0. -1.
         24    2    1    2    0    0 -0.35527136788E-14  0.17763568394E-14 -0.92050476651E+02  0.12244205339E+03  0.80738876545E+02 0.  0.
         66    2    3    3    0    0  0.19352701155E+02 -0.13711476399E+02 -0.95547599775E+02  0.98467636580E+02  0.20000009638E+01 0.  0.
        -13    1    3    3    0    0 -0.19352701155E+02  0.13711476399E+02  0.34971231240E+01  0.23974416806E+02  0.10566000000E+00 0.  1.
         13    1    4    4    0    0  0.43730080655E+01 -0.25883918617E+01 -0.20398407245E+02  0.21022111077E+02  0.10566000000E+00 0. -1.
        -13    1    4    4    0    0  0.13530214196E+02 -0.10465446435E+02 -0.69725728719E+02  0.71793319151E+02  0.10566000000E+00 0.  1.
        -14    1    4    4    0    0  0.14494788930E+01 -0.65763810202E+00 -0.54234638105E+01  0.56522063513E+01  0.00000000000E+00 0.  1.
<mgrwt>
<rscale>  0 0.80738877E+02</rscale>
<asrwt>0</asrwt>
<pdfrwt beam="1">  1        2 0.16499425E-01 0.80738877E+02</pdfrwt>
<pdfrwt beam="2">  1       -1 0.23378137E-02 0.80738877E+02</pdfrwt>
<totfact> 0.17641675E+05</totfact>
</mgrwt>
</event>
<event>
 8    1  0.1627221E-013  0.8045850E+02  0.7818608E-02  0.1327755E+00
         -1   -1    0    0    0  501 -0.00000000000E+00  0.00000000000E+00  0.12453775990E+02  0.12453777010E+02  0.50400000000E-02 0.  1.
          2   -1    0    0  501    0  0.00000000000E+00 -0.00000000000E+00 -0.12995193863E+03  0.12995193865E+03  0.25500000000E-02 0. -1.
         24    2    1    2    0    0  0.35527136788E-14 -0.22204460493E-15 -0.11749816264E+03  0.14240571566E+03  0.80458496319E+02 0.  0.
         66    2    3    3    0    0 -0.24055889217E+02  0.71231303782E+00 -0.11578668548E+03  0.11827827249E+03  0.20000035598E+01 0.  0.
        -13    1    3    3    0    0  0.24055889217E+02 -0.71231303782E+00 -0.17114771628E+01  0.24127443171E+02  0.10566000000E+00 0.  1.
         13    1    4    4    0    0 -0.35199002044E+01 -0.24780884107E+00 -0.16587857282E+02  0.16959341966E+02  0.10566000000E+00 0.  1.
        -13    1    4    4    0    0 -0.71346995200E+01  0.10701844940E+01 -0.35274064279E+02  0.36004444266E+02  0.10566000000E+00 0.  1.
         14    1    4    4    0    0 -0.13401289492E+02 -0.11006261507E+00 -0.63924763914E+02  0.65314486259E+02  0.00000000000E+00 0. -1.
<mgrwt>
<rscale>  0 0.80458496E+02</rscale>
<asrwt>0</asrwt>
<pdfrwt beam="1">  1        2 0.19992605E-01 0.80458496E+02</pdfrwt>
<pdfrwt beam="2">  1       -1 0.19159657E-02 0.80458496E+02</pdfrwt>
<totfact> 0.18855265E+05</totfact>
</mgrwt>
</event>
<event>
 8    1  0.1627221E-013  0.7902133E+02  0.7818608E-02  0.1331852E+00
          2   -1    0    0  501    0  0.00000000000E+00  0.00000000000E+00  0.71086868743E+02  0.71086868789E+02  0.25500000000E-02 0. -1.
         -1   -1    0    0    0  501 -0.00000000000E+00 -0.00000000000E+00 -0.21960353698E+02  0.21960354277E+02  0.50400000000E-02 0.  1.
         24    2    1    2    0    0  0.00000000000E+00 -0.88817841970E-15  0.49126515045E+02  0.93047223065E+02  0.79021334080E+02 0.  0.
         66    2    3    3    0    0 -0.10324372564E+02  0.65043025943E+01  0.68796812101E+02  0.69899212970E+02  0.19999993823E+01 0.  0.
        -13    1    3    3    0    0  0.10324372564E+02 -0.65043025943E+01 -0.19670297056E+02  0.23148010095E+02  0.10566000000E+00 0.  1.
         13    1    4    4    0    0 -0.20448414422E+01  0.18333066704E+01  0.15274877938E+02  0.15520162690E+02  0.10566000000E+00 0. -1.
        -13    1    4    4    0    0 -0.49454057811E+01  0.30796679749E+01  0.28908095385E+02  0.29489498741E+02  0.10566000000E+00 0.  1.
        -14    1    4    4    0    0 -0.33341253404E+01  0.15913279489E+01  0.24613838778E+02  0.24889551539E+02  0.00000000000E+00 0.  1.
<mgrwt>
<rscale>  0 0.79021334E+02</rscale>
<asrwt>0</asrwt>
<pdfrwt beam="1">  1        2 0.10936442E-01 0.79021334E+02</pdfrwt>
<pdfrwt beam="2">  1       -1 0.33785160E-02 0.79021334E+02</pdfrwt>
<totfact> 0.16755941E+05</totfact>
</mgrwt>
</event>
<event>
 8    1  0.1627221E-013  0.8526071E+02  0.7818608E-02  0.1314752E+00
         -1   -1    0    0    0  501 -0.00000000000E+00  0.00000000000E+00  0.10357558816E+02  0.10357560042E+02  0.50400000000E-02 0.  1.
          2   -1    0    0  501    0  0.00000000000E+00 -0.00000000000E+00 -0.17546093560E+03  0.17546093562E+03  0.25500000000E-02 0. -1.
         24    2    1    2    0    0  0.00000000000E+00  0.35527136788E-14 -0.16510337679E+03  0.18581849567E+03  0.85260707858E+02 0.  0.
         66    2    3    3    0    0 -0.27209853324E+02 -0.20395511667E+02 -0.13854428139E+03  0.14267049772E+03  0.20000000596E+01 0.  0.
        -13    1    3    3    0    0  0.27209853324E+02  0.20395511667E+02 -0.26559095395E+02  0.43147997941E+02  0.10566000000E+00 0.  1.
         13    1    4    4    0    0 -0.87207154800E+01 -0.56082830874E+01 -0.43208268134E+02  0.44435001034E+02  0.10566000000E+00 0. -1.
        -13    1    4    4    0    0 -0.55243689247E+00 -0.44731528957E+00 -0.33604859252E+01  0.34364672525E+01  0.10566000000E+00 0.  1.
        -14    1    4    4    0    0 -0.17936700952E+02 -0.14339913290E+02 -0.91975527334E+02  0.94799029438E+02  0.00000000000E+00 0.  1.
<mgrwt>
<rscale>  0 0.85260708E+02</rscale>
<asrwt>0</asrwt>
<pdfrwt beam="1">  1        2 0.26993988E-01 0.85260708E+02</pdfrwt>
<pdfrwt beam="2">  1       -1 0.15934708E-02 0.85260708E+02</pdfrwt>
<totfact> 0.17811251E+05</totfact>
</mgrwt>
</event>
<event>
 8    1  0.1627221E-013  0.7912635E+02  0.7818608E-02  0.1331549E+00
         -1   -1    0    0    0  501 -0.00000000000E+00  0.00000000000E+00  0.22589306020E+01  0.22589362245E+01  0.50400000000E-02 0.  1.
          2   -1    0    0  501    0  0.00000000000E+00 -0.00000000000E+00 -0.69291316477E+03  0.69291316478E+03  0.25500000000E-02 0. -1.
         24    2    1    2    0    0  0.00000000000E+00  0.00000000000E+00 -0.69065423417E+03  0.69517210100E+03  0.79126347277E+02 0.  0.
         66    2    3    3    0    0  0.13905413004E+02 -0.24595463794E+02 -0.58853554863E+03  0.58921675923E+03  0.20000006215E+01 0.  0.
        -13    1    3    3    0    0 -0.13905413004E+02  0.24595463794E+02 -0.10211868554E+03  0.10595534177E+03  0.10566000000E+00 0.  1.
         13    1    4    4    0    0  0.45632943001E+01 -0.81967211711E+01 -0.19273353768E+03  0.19296175166E+03  0.10566000000E+00 0. -1.
        -13    1    4    4    0    0  0.66062563246E+00 -0.94388818183E+00 -0.32883764764E+02  0.32904110689E+02  0.10566000000E+00 0.  1.
        -14    1    4    4    0    0  0.86814930717E+01 -0.15454854441E+02 -0.36291824619E+03  0.36335089688E+03  0.00000000000E+00 0.  1.
<mgrwt>
<rscale>  0 0.79126347E+02</rscale>
<asrwt>0</asrwt>
<pdfrwt beam="1">  1        2 0.10660186E+00 0.79126347E+02</pdfrwt>
<pdfrwt beam="2">  1       -1 0.34752877E-03 0.79126347E+02</pdfrwt>
<totfact> 0.34339126E+05</totfact>
</mgrwt>
</event>
<event>
 8    1  0.1627221E-013  0.7419507E+02  0.7818608E-02  0.1346382E+00
         -1   -1    0    0    0  501 -0.00000000000E+00  0.00000000000E+00  0.21759874619E+01  0.21759932987E+01  0.50400000000E-02 0.  1.
          2   -1    0    0  501    0  0.00000000000E+00 -0.00000000000E+00 -0.63246011116E+03  0.63246011117E+03  0.25500000000E-02 0. -1.
         24    2    1    2    0    0  0.00000000000E+00  0.71054273576E-14 -0.63028412370E+03  0.63463610447E+03  0.74195070612E+02 0.  0.
         66    2    3    3    0    0 -0.15558944256E+02 -0.30543259643E+02 -0.43611002303E+03  0.43745962516E+03  0.20000006686E+01 0.  0.
        -13    1    3    3    0    0  0.15558944256E+02  0.30543259643E+02 -0.19417410067E+03  0.19717647930E+03  0.10566000000E+00 0.  1.
         13    1    4    4    0    0 -0.31179676893E+01 -0.63704560915E+01 -0.93049045904E+02  0.93319025611E+02  0.10566000000E+00 0. -1.
        -13    1    4    4    0    0 -0.88252262824E+01 -0.18609313787E+02 -0.26272524059E+03  0.26353131576E+03  0.10566000000E+00 0.  1.
        -14    1    4    4    0    0 -0.36157502845E+01 -0.55634897641E+01 -0.80335736536E+02  0.80609283791E+02  0.00000000000E+00 0.  1.
<mgrwt>
<rscale>  0 0.74195071E+02</rscale>
<asrwt>0</asrwt>
<pdfrwt beam="1">  1        2 0.97301409E-01 0.74195071E+02</pdfrwt>
<pdfrwt beam="2">  1       -1 0.33476826E-03 0.74195071E+02</pdfrwt>
<totfact> 0.39657578E+05</totfact>
</mgrwt>
</event>
<event>
 8    1  0.1627221E-013  0.7619949E+02  0.7818608E-02  0.1340196E+00
         -1   -1    0    0    0  501 -0.00000000000E+00  0.00000000000E+00  0.34123292598E+01  0.34123329819E+01  0.50400000000E-02 0.  1.
          2   -1    0    0  501    0  0.00000000000E+00 -0.00000000000E+00 -0.42539559828E+03  0.42539559829E+03  0.25500000000E-02 0. -1.
         24    2    1    2    0    0  0.00000000000E+00 -0.71054273576E-14 -0.42198326902E+03  0.42880793127E+03  0.76199492037E+02 0.  0.
         66    2    3    3    0    0  0.80686369454E+01  0.35624363823E+02 -0.27158573146E+03  0.27403833261E+03  0.20000022467E+01 0.  0.
        -13    1    3    3    0    0 -0.80686369454E+01 -0.35624363823E+02 -0.15039753756E+03  0.15476959866E+03  0.10566000000E+00 0.  1.
         13    1    4    4    0    0  0.38812313768E+01  0.17730721847E+02 -0.13947424984E+03  0.14065034656E+03  0.10566000000E+00 0. -1.
        -13    1    4    4    0    0  0.27280512358E+01  0.92896089905E+01 -0.69755307067E+02  0.70424094789E+02  0.10566000000E+00 0.  1.
        -14    1    4    4    0    0  0.14593543328E+01  0.86040329856E+01 -0.62356174553E+02  0.62963891267E+02  0.00000000000E+00 0.  1.
<mgrwt>
<rscale>  0 0.76199492E+02</rscale>
<asrwt>0</asrwt>
<pdfrwt beam="1">  1        2 0.65445435E-01 0.76199492E+02</pdfrwt>
<pdfrwt beam="2">  1       -1 0.52497436E-03 0.76199492E+02</pdfrwt>
<totfact> 0.32762701E+05</totfact>
</mgrwt>
</event>
<event>
 8    1  0.1627221E-013  0.8077557E+02  0.7818608E-02  0.1326865E+00
         -1   -1    0    0    0  501 -0.00000000000E+00  0.00000000000E+00  0.42066889096E+02  0.42066889398E+02  0.50400000000E-02 0.  1.
          2   -1    0    0  501    0  0.00000000000E+00 -0.00000000000E+00 -0.38775701562E+02  0.38775701646E+02  0.25500000000E-02 0. -1.
         24    2    1    2    0    0  0.35527136788E-14 -0.71054273576E-14  0.32911875344E+01  0.80842591044E+02  0.80775569396E+02 0.  0.
         66    2    3    3    0    0 -0.21643973525E+02  0.28145365487E+02 -0.17566854518E+02  0.39663806814E+02  0.20000012476E+01 0.  0.
        -13    1    3    3    0    0  0.21643973525E+02 -0.28145365487E+02  0.20858042052E+02  0.41178784230E+02  0.10566000000E+00 0.  1.
         13    1    4    4    0    0 -0.47926443236E+01  0.55068479995E+01 -0.33016253838E+01  0.80129088796E+01  0.10566000000E+00 0.  1.
        -13    1    4    4    0    0 -0.55086671962E+01  0.82066536249E+01 -0.54616464726E+01  0.11293153865E+02  0.10566000000E+00 0. -1.
        -14    1    4    4    0    0 -0.11342662006E+02  0.14431863862E+02 -0.88035826613E+01  0.20357744069E+02  0.00000000000E+00 0.  1.
<mgrwt>
<rscale>  0 0.80775569E+02</rscale>
<asrwt>0</asrwt>
<pdfrwt beam="1">  1        2 0.59654926E-02 0.80775569E+02</pdfrwt>
<pdfrwt beam="2">  1       -1 0.64718291E-02 0.80775569E+02</pdfrwt>
<totfact> 0.13791107E+05</totfact>
</mgrwt>
</event>
<event>
 8    1  0.1627221E-013  0.8175011E+02  0.7818608E-02  0.1324157E+00
         -1   -1    0    0    0  501 -0.00000000000E+00  0.00000000000E+00  0.25746387025E+02  0.25746387518E+02  0.50400000000E-02 0.  1.
          2   -1    0    0  501    0  0.00000000000E+00 -0.00000000000E+00 -0.64893373471E+02  0.64893373521E+02  0.25500000000E-02 0. -1.
         24    2    1    2    0    0 -0.35527136788E-14  0.17763568394E-14 -0.39146986446E+02  0.90639761039E+02  0.81750105403E+02 0.  0.
         66    2    3    3    0    0 -0.20030026581E+02  0.76599134218E+01 -0.58135105579E+02  0.61996505800E+02  0.19999980762E+01 0.  0.
        -13    1    3    3    0    0  0.20030026581E+02 -0.76599134218E+01  0.18988119133E+02  0.28643255239E+02  0.10566000000E+00 0.  1.
         13    1    4    4    0    0 -0.59183935749E+01  0.20724024073E+01 -0.15537325722E+02  0.16755354036E+02  0.10566000000E+00 0. -1.
        -13    1    4    4    0    0 -0.11731010839E+01  0.19166038144E+00 -0.26909929738E+01  0.29437233354E+01  0.10566000000E+00 0. -1.
         14    1    4    4    0    0 -0.12938531922E+02  0.53958506330E+01 -0.39906786883E+02  0.42297428429E+02  0.00000000000E+00 0. -1.
<mgrwt>
<rscale>  0 0.81750105E+02</rscale>
<asrwt>0</asrwt>
<pdfrwt beam="1">  1        2 0.99835959E-02 0.81750105E+02</pdfrwt>
<pdfrwt beam="2">  1       -1 0.39609827E-02 0.81750105E+02</pdfrwt>
<totfact> 0.14949173E+05</totfact>
</mgrwt>
</event>
<event>
 8    1  0.1627221E-013  0.7974758E+02  0.7818608E-02  0.1329769E+00
         -1   -1    0    0    0  501 -0.00000000000E+00  0.00000000000E+00  0.88174839710E+01  0.88174854114E+01  0.50400000000E-02 0.  1.
          2   -1    0    0  501    0  0.00000000000E+00 -0.00000000000E+00 -0.18031435805E+03  0.18031435807E+03  0.25500000000E-02 0. -1.
         24    2    1    2    0    0  0.44408920985E-15 -0.71054273576E-14 -0.17149687408E+03  0.18913184348E+03  0.79747579268E+02 0.  0.
         66    2    3    3    0    0  0.24409370089E+01 -0.33550500047E+02 -0.35140273756E+02  0.48687093337E+02  0.19999977641E+01 0.  0.
        -13    1    3    3    0    0 -0.24409370089E+01  0.33550500047E+02 -0.13635660033E+03  0.14044475015E+03  0.10566000000E+00 0.  1.
         13    1    4    4    0    0  0.53758986482E+00 -0.95396179894E+01 -0.98867685702E+01  0.13749642579E+02  0.10566000000E+00 0. -1.
        -13    1    4    4    0    0  0.53006889688E+00 -0.59532082211E+01 -0.52726112993E+01  0.79707750633E+01  0.10566000000E+00 0. -1.
        -14    1    4    4    0    0  0.13732782472E+01 -0.18057673837E+02 -0.19980893886E+02  0.26966675695E+02  0.00000000000E+00 0.  1.
<mgrwt>
<rscale>  0 0.79747579E+02</rscale>
<asrwt>0</asrwt>
<pdfrwt beam="1">  1        2 0.27740668E-01 0.79747579E+02</pdfrwt>
<pdfrwt beam="2">  1       -1 0.13565362E-02 0.79747579E+02</pdfrwt>
<totfact> 0.21465600E+05</totfact>
</mgrwt>
</event>
<event>
 8    1  0.1627221E-013  0.7934632E+02  0.7818608E-02  0.1330917E+00
          2   -1    0    0  501    0  0.00000000000E+00  0.00000000000E+00  0.61090568627E+03  0.61090568628E+03  0.25500000000E-02 0. -1.
         -1   -1    0    0    0  501 -0.00000000000E+00 -0.00000000000E+00 -0.25764336017E+01  0.25764385313E+01  0.50400000000E-02 0.  1.
         24    2    1    2    0    0  0.00000000000E+00  0.00000000000E+00  0.60832925267E+03  0.61348212481E+03  0.79346315637E+02 0.  0.
         66    2    3    3    0    0  0.13732342477E+02 -0.90754580826E+01  0.58323646898E+03  0.58347212436E+03  0.19999982980E+01 0.  0.
        -13    1    3    3    0    0 -0.13732342477E+02  0.90754580826E+01  0.25092783696E+02  0.30010000449E+02  0.10566000000E+00 0.  1.
         13    1    4    4    0    0  0.33874208578E+01 -0.30755287744E+01  0.15702980878E+03  0.15709648471E+03  0.10566000000E+00 0. -1.
        -13    1    4    4    0    0  0.68819441266E+00 -0.64486854613E+00  0.39175185082E+02  0.39186678313E+02  0.10566000000E+00 0.  1.
         14    1    4    4    0    0  0.96567272069E+01 -0.53550607621E+01  0.38703147511E+03  0.38718896134E+03  0.00000000000E+00 0. -1.
<mgrwt>
<rscale>  0 0.79346316E+02</rscale>
<asrwt>0</asrwt>
<pdfrwt beam="1">  1        2 0.93985516E-01 0.79346316E+02</pdfrwt>
<pdfrwt beam="2">  1       -1 0.39637467E-03 0.79346316E+02</pdfrwt>
<totfact> 0.33020844E+05</totfact>
</mgrwt>
</event>
<event>
 8    1  0.1627221E-013  0.8054878E+02  0.7818608E-02  0.1327501E+00
         -1   -1    0    0    0  501 -0.00000000000E+00  0.00000000000E+00  0.21785416878E+01  0.21785475177E+01  0.50400000000E-02 0.  1.
          2   -1    0    0  501    0  0.00000000000E+00 -0.00000000000E+00 -0.74454599978E+03  0.74454599978E+03  0.25500000000E-02 0. -1.
         24    2    1    2    0    0 -0.35527136788E-14  0.00000000000E+00 -0.74236745809E+03  0.74672454730E+03  0.80548784653E+02 0.  0.
         66    2    3    3    0    0  0.18893635989E+02 -0.20675406936E+01 -0.70032105470E+03  0.70058177531E+03  0.20000064833E+01 0.  0.
        -13    1    3    3    0    0 -0.18893635989E+02  0.20675406936E+01 -0.42046403387E+02  0.46142771994E+02  0.10566000000E+00 0.  1.
         13    1    4    4    0    0  0.15900292369E+02 -0.18036547272E+01 -0.57753000782E+03  0.57775167120E+03  0.10566000000E+00 0. -1.
        -13    1    4    4    0    0  0.18659189908E+01 -0.38995362864E+00 -0.65461662961E+02  0.65489496862E+02  0.10566000000E+00 0.  1.
        -14    1    4    4    0    0  0.11274246297E+01  0.12606766217E+00 -0.57329383917E+02  0.57340607249E+02  0.00000000000E+00 0.  1.
<mgrwt>
<rscale>  0 0.80548785E+02</rscale>
<asrwt>0</asrwt>
<pdfrwt beam="1">  1        2 0.11454534E+00 0.80548785E+02</pdfrwt>
<pdfrwt beam="2">  1       -1 0.33516130E-03 0.80548785E+02</pdfrwt>
<totfact> 0.33305290E+05</totfact>
</mgrwt>
</event>
<event>
 8    1  0.1627221E-013  0.7873844E+02  0.7818608E-02  0.1332670E+00
         -1   -1    0    0    0  501 -0.00000000000E+00  0.00000000000E+00  0.34420859628E+02  0.34420859997E+02  0.50400000000E-02 0.  1.
          2   -1    0    0  501    0  0.00000000000E+00 -0.00000000000E+00 -0.45028955933E+02  0.45028956006E+02  0.25500000000E-02 0. -1.
         24    2    1    2    0    0  0.00000000000E+00  0.00000000000E+00 -0.10608096306E+02  0.79449816002E+02  0.78738437599E+02 0.  0.
         66    2    3    3    0    0  0.22126653338E+00 -0.33069186338E+02  0.16199668600E+02  0.36878846232E+02  0.19999981778E+01 0.  0.
        -13    1    3    3    0    0 -0.22126653338E+00  0.33069186338E+02 -0.26807764906E+02  0.42570969771E+02  0.10566000000E+00 0.  1.
         13    1    4    4    0    0 -0.49579028426E+00 -0.11883895152E+02  0.64890259731E+01  0.13549590182E+02  0.10566000000E+00 0. -1.
        -13    1    4    4    0    0  0.88435829351E-01 -0.28443282798E+01  0.10320888917E+01  0.30289265054E+01  0.10566000000E+00 0.  1.
         14    1    4    4    0    0  0.62862098829E+00 -0.18340962906E+02  0.86785537352E+01  0.20300329545E+02  0.00000000000E+00 0. -1.
<mgrwt>
<rscale>  0 0.78738438E+02</rscale>
<asrwt>0</asrwt>
<pdfrwt beam="1">  1        2 0.69275317E-02 0.78738438E+02</pdfrwt>
<pdfrwt beam="2">  1       -1 0.52955169E-02 0.78738438E+02</pdfrwt>
<totfact> 0.15263427E+05</totfact>
</mgrwt>
</event>
<event>
 8    1  0.1627221E-013  0.7917528E+02  0.7818608E-02  0.1331408E+00
          2   -1    0    0  501    0  0.00000000000E+00  0.00000000000E+00  0.29640760266E+03  0.29640760267E+03  0.25500000000E-02 0. -1.
         -1   -1    0    0    0  501 -0.00000000000E+00 -0.00000000000E+00 -0.52872495977E+01  0.52872519998E+01  0.50400000000E-02 0.  1.
         24    2    1    2    0    0 -0.71054273576E-14  0.00000000000E+00  0.29112035306E+03  0.30169485467E+03  0.79175282555E+02 0.  0.
         66    2    3    3    0    0  0.38001243662E+02 -0.10092774218E+02  0.16235716306E+03  0.16706228479E+03  0.19999970991E+01 0.  0.
        -13    1    3    3    0    0 -0.38001243662E+02  0.10092774218E+02  0.12876319000E+03  0.13463256989E+03  0.10566000000E+00 0.  1.
         13    1    4    4    0    0  0.56632628945E+01 -0.11525694823E+01  0.24905406508E+02  0.25567389393E+02  0.10566000000E+00 0. -1.
        -13    1    4    4    0    0  0.20271001607E+01 -0.22062811747E+00  0.86327579461E+01  0.88709348785E+01  0.10566000000E+00 0.  1.
         14    1    4    4    0    0  0.30310880607E+02 -0.87195766187E+01  0.12881899861E+03  0.13262396051E+03  0.00000000000E+00 0. -1.
<mgrwt>
<rscale>  0 0.79175283E+02</rscale>
<asrwt>0</asrwt>
<pdfrwt beam="1">  1        2 0.45601173E-01 0.79175283E+02</pdfrwt>
<pdfrwt beam="2">  1       -1 0.81342314E-03 0.79175283E+02</pdfrwt>
<totfact> 0.26082347E+05</totfact>
</mgrwt>
</event>
<event>
 8    1  0.1627221E-013  0.8027840E+02  0.7818608E-02  0.1328263E+00
          2   -1    0    0  501    0  0.00000000000E+00  0.00000000000E+00  0.28317484008E+02  0.28317484123E+02  0.25500000000E-02 0. -1.
         -1   -1    0    0    0  501 -0.00000000000E+00 -0.00000000000E+00 -0.56896137841E+02  0.56896138064E+02  0.50400000000E-02 0.  1.
         24    2    1    2    0    0  0.00000000000E+00  0.00000000000E+00 -0.28578653834E+02  0.85213622187E+02  0.80278402770E+02 0.  0.
         66    2    3    3    0    0  0.10719983032E+02  0.36258625804E+02 -0.75001044723E-01  0.37863063925E+02  0.20000007963E+01 0.  0.
        -13    1    3    3    0    0 -0.10719983032E+02 -0.36258625804E+02 -0.28503652789E+02  0.47350558262E+02  0.10566000000E+00 0.  1.
         13    1    4    4    0    0  0.23692952304E+01  0.89475515186E+01 -0.35741949563E+00  0.92634308330E+01  0.10566000000E+00 0. -1.
        -13    1    4    4    0    0  0.35418055117E+01  0.11803913687E+02 -0.61070627027E+00  0.12339403989E+02  0.10566000000E+00 0.  1.
         14    1    4    4    0    0  0.48088822903E+01  0.15507160598E+02  0.89312472118E+00  0.16260229103E+02  0.00000000000E+00 0. -1.
<mgrwt>
<rscale>  0 0.80278403E+02</rscale>
<asrwt>0</asrwt>
<pdfrwt beam="1">  1        2 0.43565360E-02 0.80278403E+02</pdfrwt>
<pdfrwt beam="2">  1       -1 0.87532520E-02 0.80278403E+02</pdfrwt>
<totfact> 0.13173689E+05</totfact>
</mgrwt>
</event>
<event>
 8    1  0.1627221E-013  0.7442744E+02  0.7818608E-02  0.1345653E+00
          2   -1    0    0  501    0  0.00000000000E+00  0.00000000000E+00  0.32551851456E+03  0.32551851457E+03  0.25500000000E-02 0. -1.
         -1   -1    0    0    0  501 -0.00000000000E+00 -0.00000000000E+00 -0.42543214064E+01  0.42543243918E+01  0.50400000000E-02 0.  1.
         24    2    1    2    0    0  0.00000000000E+00  0.00000000000E+00  0.32126419316E+03  0.32977283896E+03  0.74427437913E+02 0.  0.
         66    2    3    3    0    0 -0.34029932267E+02  0.79923860691E+00  0.22708863218E+03  0.22963432229E+03  0.20000089707E+01 0.  0.
        -13    1    3    3    0    0  0.34029932267E+02 -0.79923860691E+00  0.94175560974E+02  0.10013851667E+03  0.10566000000E+00 0.  1.
         13    1    4    4    0    0 -0.27263932534E+02  0.10361237197E+01  0.18617564835E+03  0.18816423351E+03  0.10566000000E+00 0. -1.
        -13    1    4    4    0    0 -0.31046429532E+01 -0.57443248816E-01  0.18275568485E+02  0.18537790458E+02  0.10566000000E+00 0. -1.
        -14    1    4    4    0    0 -0.36613567801E+01 -0.17944186398E+00  0.22637415346E+02  0.22932298323E+02  0.00000000000E+00 0.  1.
<mgrwt>
<rscale>  0 0.74427438E+02</rscale>
<asrwt>0</asrwt>
<pdfrwt beam="1">  1        2 0.50079783E-01 0.74427438E+02</pdfrwt>
<pdfrwt beam="2">  1       -1 0.65451107E-03 0.74427438E+02</pdfrwt>
<totfact> 0.31700230E+05</totfact>
</mgrwt>
</event>
<event>
 8    1  0.1627221E-013  0.8166815E+02  0.7818608E-02  0.1324383E+00
         -1   -1    0    0    0  501 -0.00000000000E+00  0.00000000000E+00  0.10428824755E+01  0.10428946539E+01  0.50400000000E-02 0.  1.
          2   -1    0    0  501    0  0.00000000000E+00 -0.00000000000E+00 -0.15988491761E+04  0.15988491761E+04  0.25500000000E-02 0. -1.
         24    2    1    2    0    0 -0.17763568394E-14  0.00000000000E+00 -0.15978062937E+04  0.15998920708E+04  0.81668146311E+02 0.  0.
         66    2    3    3    0    0 -0.15690847587E+02  0.14717420490E+02 -0.14787419827E+04  0.14788998129E+04  0.20000006355E+01 0.  0.
        -13    1    3    3    0    0  0.15690847587E+02 -0.14717420490E+02 -0.11906431101E+03  0.12099225795E+03  0.10566000000E+00 0.  1.
         13    1    4    4    0    0 -0.59768821891E+01  0.53444722216E+01 -0.57369096139E+03  0.57374699724E+03  0.10566000000E+00 0. -1.
        -13    1    4    4    0    0 -0.72010241673E+00  0.51034433220E+00 -0.41776763486E+02  0.41786219382E+02  0.10566000000E+00 0.  1.
         14    1    4    4    0    0 -0.89938629813E+01  0.88626039358E+01 -0.86327425779E+03  0.86336659623E+03  0.00000000000E+00 0. -1.
<mgrwt>
<rscale>  0 0.81668146E+02</rscale>
<asrwt>0</asrwt>
<pdfrwt beam="1">  1        2 0.24597484E+00 0.81668146E+02</pdfrwt>
<pdfrwt beam="2">  1       -1 0.16044567E-03 0.81668146E+02</pdfrwt>
<totfact> 0.30670034E+05</totfact>
</mgrwt>
</event>
<event>
 8    1  0.1627221E-013  0.7870040E+02  0.7818608E-02  0.1332780E+00
         -1   -1    0    0    0  501 -0.00000000000E+00  0.00000000000E+00  0.44367453966E+01  0.44367482593E+01  0.50400000000E-02 0.  1.
          2   -1    0    0  501    0  0.00000000000E+00 -0.00000000000E+00 -0.34900308016E+03  0.34900308017E+03  0.25500000000E-02 0. -1.
         24    2    1    2    0    0 -0.17763568394E-14  0.17763568394E-14 -0.34456633477E+03  0.35343982843E+03  0.78700401952E+02 0.  0.
         66    2    3    3    0    0  0.89221566718E+01 -0.15561091893E+02 -0.32955701158E+03  0.33005086935E+03  0.20000034376E+01 0.  0.
        -13    1    3    3    0    0 -0.89221566718E+01  0.15561091893E+02 -0.15009323186E+02  0.23388959086E+02  0.10566000000E+00 0.  1.
         13    1    4    4    0    0  0.73448256931E+00 -0.15541925122E+01 -0.23965858622E+02  0.24027661612E+02  0.10566000000E+00 0. -1.
        -13    1    4    4    0    0  0.43285931898E+00 -0.12467226957E+01 -0.25032190283E+02  0.25067177724E+02  0.10566000000E+00 0.  1.
         14    1    4    4    0    0  0.77548147835E+01 -0.12760176685E+02 -0.28055896268E+03  0.28095603001E+03  0.00000000000E+00 0. -1.
<mgrwt>
<rscale>  0 0.78700402E+02</rscale>
<asrwt>0</asrwt>
<pdfrwt beam="1">  1        2 0.53692760E-01 0.78700402E+02</pdfrwt>
<pdfrwt beam="2">  1       -1 0.68257671E-03 0.78700402E+02</pdfrwt>
<totfact> 0.28100010E+05</totfact>
</mgrwt>
</event>
<event>
 8    1  0.1627221E-013  0.8369859E+02  0.7818608E-02  0.1318871E+00
         -1   -1    0    0    0  501 -0.00000000000E+00  0.00000000000E+00  0.77779921335E+02  0.77779921498E+02  0.50400000000E-02 0.  1.
          2   -1    0    0  501    0  0.00000000000E+00 -0.00000000000E+00 -0.22516908860E+02  0.22516909005E+02  0.25500000000E-02 0. -1.
         24    2    1    2    0    0  0.00000000000E+00  0.17763568394E-14  0.55263012474E+02  0.10029683050E+03  0.83698588167E+02 0.  0.
         66    2    3    3    0    0 -0.82993333421E+00  0.13332845155E+02 -0.19847337012E+02  0.24007713892E+02  0.19999976491E+01 0.  0.
        -13    1    3    3    0    0  0.82993333421E+00 -0.13332845155E+02  0.75110349486E+02  0.76289116611E+02  0.10566000000E+00 0.  1.
         13    1    4    4    0    0 -0.12503320344E+00  0.16626572691E+01 -0.23002250306E+01  0.28429318887E+01  0.10566000000E+00 0. -1.
        -13    1    4    4    0    0 -0.28472978717E+00  0.10646496470E+02 -0.16514958517E+02  0.19651564238E+02  0.10566000000E+00 0.  1.
        -14    1    4    4    0    0 -0.42017034360E+00  0.10236914157E+01 -0.10321534641E+01  0.15132177655E+01  0.00000000000E+00 0.  1.
<mgrwt>
<rscale>  0 0.83698588E+02</rscale>
<asrwt>0</asrwt>
<pdfrwt beam="1">  1        2 0.34641399E-02 0.83698588E+02</pdfrwt>
<pdfrwt beam="2">  1       -1 0.11966142E-01 0.83698588E+02</pdfrwt>
<totfact> 0.11171387E+05</totfact>
</mgrwt>
</event>
<event>
 8    1  0.1627221E-013  0.8106044E+02  0.7818608E-02  0.1326069E+00
         -1   -1    0    0    0  501 -0.00000000000E+00  0.00000000000E+00  0.59790479040E+01  0.59790500282E+01  0.50400000000E-02 0.  1.
          2   -1    0    0  501    0  0.00000000000E+00 -0.00000000000E+00 -0.27474250875E+03  0.27474250877E+03  0.25500000000E-02 0. -1.
         24    2    1    2    0    0  0.00000000000E+00  0.00000000000E+00 -0.26876346085E+03  0.28072155879E+03  0.81060444630E+02 0.  0.
         66    2    3    3    0    0 -0.12297780336E+02 -0.72637185029E+01 -0.26572843606E+03  0.26611951965E+03  0.20000001347E+01 0.  0.
        -13    1    3    3    0    0  0.12297780336E+02  0.72637185029E+01 -0.30350247921E+01  0.14602039145E+02  0.10566000000E+00 0.  1.
         13    1    4    4    0    0 -0.92666144194E+01 -0.52189694617E+01 -0.20937896363E+03  0.20964891930E+03  0.10566000000E+00 0. -1.
        -13    1    4    4    0    0 -0.10946905946E+01 -0.54182132889E+00 -0.21613501304E+02  0.21648245206E+02  0.10566000000E+00 0. -1.
         14    1    4    4    0    0 -0.19364753219E+01 -0.15029277123E+01 -0.34735971120E+02  0.34822355147E+02  0.00000000000E+00 0. -1.
<mgrwt>
<rscale>  0 0.81060445E+02</rscale>
<asrwt>0</asrwt>
<pdfrwt beam="1">  1        2 0.42268068E-01 0.81060445E+02</pdfrwt>
<pdfrwt beam="2">  1       -1 0.91985391E-03 0.81060445E+02</pdfrwt>
<totfact> 0.23855428E+05</totfact>
</mgrwt>
</event>
<event>
 8    1  0.1627221E-013  0.8320033E+02  0.7818608E-02  0.1320207E+00
          2   -1    0    0  501    0  0.00000000000E+00  0.00000000000E+00  0.78198059005E+03  0.78198059005E+03  0.25500000000E-02 0. -1.
         -1   -1    0    0    0  501 -0.00000000000E+00 -0.00000000000E+00 -0.22130617906E+01  0.22130675296E+01  0.50400000000E-02 0.  1.
         24    2    1    2    0    0 -0.71054273576E-14  0.44408920985E-15  0.77976752826E+03  0.78419365758E+03  0.83200327324E+02 0.  0.
         66    2    3    3    0    0 -0.35825551948E+02 -0.24130836935E+01  0.58765375565E+03  0.58875311436E+03  0.19999984490E+01 0.  0.
        -13    1    3    3    0    0  0.35825551948E+02  0.24130836935E+01  0.19211377261E+03  0.19544054322E+03  0.10566000000E+00 0.  1.
         13    1    4    4    0    0 -0.41813415334E+01 -0.64535778419E+00  0.67327000558E+02  0.67459886391E+02  0.10566000000E+00 0. -1.
        -13    1    4    4    0    0 -0.56033656514E+00  0.78028523469E-01  0.11773628798E+02  0.11787686992E+02  0.10566000000E+00 0. -1.
         14    1    4    4    0    0 -0.31083873850E+02 -0.18457544327E+01  0.50855312629E+03  0.50950554098E+03  0.00000000000E+00 0. -1.
<mgrwt>
<rscale>  0 0.83200327E+02</rscale>
<asrwt>0</asrwt>
<pdfrwt beam="1">  1        2 0.12030468E+00 0.83200327E+02</pdfrwt>
<pdfrwt beam="2">  1       -1 0.34047157E-03 0.83200327E+02</pdfrwt>
<totfact> 0.30904450E+05</totfact>
</mgrwt>
</event>
<event>
 8    1  0.1627221E-013  0.8010978E+02  0.7818608E-02  0.1328740E+00
          2   -1    0    0  501    0  0.00000000000E+00  0.00000000000E+00  0.34135453517E+03  0.34135453518E+03  0.25500000000E-02 0. -1.
         -1   -1    0    0    0  501 -0.00000000000E+00 -0.00000000000E+00 -0.47000806631E+01  0.47000833653E+01  0.50400000000E-02 0.  1.
         24    2    1    2    0    0  0.00000000000E+00  0.35527136788E-14  0.33665445451E+03  0.34605461855E+03  0.80109782655E+02 0.  0.
         66    2    3    3    0    0 -0.30638094952E+02  0.24511970114E+02  0.20268067451E+03  0.20645334909E+03  0.19999979801E+01 0.  0.
        -13    1    3    3    0    0  0.30638094952E+02 -0.24511970114E+02  0.13397378000E+03  0.13960126946E+03  0.10566000000E+00 0.  1.
         13    1    4    4    0    0 -0.25092512715E+02  0.19906389270E+02  0.16344287414E+03  0.16655174210E+03  0.10566000000E+00 0. -1.
        -13    1    4    4    0    0 -0.22525792311E+01  0.17595680184E+01  0.13676630326E+02  0.13972529260E+02  0.10566000000E+00 0.  1.
         14    1    4    4    0    0 -0.32930030058E+01  0.28460128248E+01  0.25561170045E+02  0.25929077729E+02  0.00000000000E+00 0. -1.
<mgrwt>
<rscale>  0 0.80109783E+02</rscale>
<asrwt>0</asrwt>
<pdfrwt beam="1">  1        2 0.52516084E-01 0.80109783E+02</pdfrwt>
<pdfrwt beam="2">  1       -1 0.72308953E-03 0.80109783E+02</pdfrwt>
<totfact> 0.26613860E+05</totfact>
</mgrwt>
</event>
<event>
 8    1  0.1627221E-013  0.7894684E+02  0.7818608E-02  0.1332067E+00
         -1   -1    0    0    0  501 -0.00000000000E+00  0.00000000000E+00  0.82577474382E+01  0.82577489762E+01  0.50400000000E-02 0.  1.
          2   -1    0    0  501    0  0.00000000000E+00 -0.00000000000E+00 -0.18868957350E+03  0.18868957352E+03  0.25500000000E-02 0. -1.
         24    2    1    2    0    0  0.00000000000E+00  0.17763568394E-14 -0.18043182606E+03  0.19694732250E+03  0.78946842758E+02 0.  0.
         66    2    3    3    0    0  0.15460500057E+02 -0.10069071492E+02 -0.17725665025E+03  0.17822551253E+03  0.19999994478E+01 0.  0.
        -13    1    3    3    0    0 -0.15460500057E+02  0.10069071492E+02 -0.31751758141E+01  0.18721809961E+02  0.10566000000E+00 0.  1.
         13    1    4    4    0    0  0.73377883619E+01 -0.56663460810E+01 -0.89920213285E+02  0.90396938760E+02  0.10566000000E+00 0. -1.
        -13    1    4    4    0    0  0.52234678652E+01 -0.28986053596E+01 -0.60419194837E+02  0.60713892960E+02  0.10566000000E+00 0.  1.
        -14    1    4    4    0    0  0.28992438298E+01 -0.15041200513E+01 -0.26917242128E+02  0.27114680815E+02  0.00000000000E+00 0.  1.
<mgrwt>
<rscale>  0 0.78946843E+02</rscale>
<asrwt>0</asrwt>
<pdfrwt beam="1">  1        2 0.29029162E-01 0.78946843E+02</pdfrwt>
<pdfrwt beam="2">  1       -1 0.12704230E-02 0.78946843E+02</pdfrwt>
<totfact> 0.22389240E+05</totfact>
</mgrwt>
</event>
<event>
 8    1  0.1627221E-013  0.8272012E+02  0.7818608E-02  0.1321505E+00
         -1   -1    0    0    0  501 -0.00000000000E+00  0.00000000000E+00  0.41382261287E+02  0.41382261594E+02  0.50400000000E-02 0.  1.
          2   -1    0    0  501    0  0.00000000000E+00 -0.00000000000E+00 -0.41337874684E+02  0.41337874762E+02  0.25500000000E-02 0. -1.
         24    2    1    2    0    0  0.00000000000E+00  0.00000000000E+00  0.44386603247E-01  0.82720136356E+02  0.82720124447E+02 0.  0.
         66    2    3    3    0    0 -0.30885545425E+02 -0.82156566951E+01 -0.26192980405E+02  0.41370111898E+02  0.20000012067E+01 0.  0.
        -13    1    3    3    0    0  0.30885545425E+02  0.82156566951E+01  0.26237367008E+02  0.41350024458E+02  0.10566000000E+00 0.  1.
         13    1    4    4    0    0 -0.20216134862E+02 -0.53997509206E+01 -0.16238966245E+02  0.26487064909E+02  0.10566000000E+00 0. -1.
        -13    1    4    4    0    0 -0.91599339473E+01 -0.26763016954E+01 -0.84312352640E+01  0.12734357966E+02  0.10566000000E+00 0.  1.
        -14    1    4    4    0    0 -0.15094766158E+01 -0.13960407915E+00 -0.15227788964E+01  0.21486890235E+01  0.00000000000E+00 0.  1.
<mgrwt>
<rscale>  0 0.82720124E+02</rscale>
<asrwt>0</asrwt>
<pdfrwt beam="1">  1        2 0.63596730E-02 0.82720124E+02</pdfrwt>
<pdfrwt beam="2">  1       -1 0.63665018E-02 0.82720124E+02</pdfrwt>
<totfact> 0.13083720E+05</totfact>
</mgrwt>
</event>
<event>
 8    1  0.1627221E-013  0.7812731E+02  0.7818608E-02  0.1334451E+00
         -1   -1    0    0    0  501 -0.00000000000E+00  0.00000000000E+00  0.12463083524E+02  0.12463084543E+02  0.50400000000E-02 0.  1.
          2   -1    0    0  501    0  0.00000000000E+00 -0.00000000000E+00 -0.12243914108E+03  0.12243914111E+03  0.25500000000E-02 0. -1.
         24    2    1    2    0    0 -0.17763568394E-14  0.00000000000E+00 -0.10997605756E+03  0.13490222565E+03  0.78127314363E+02 0.  0.
         66    2    3    3    0    0 -0.12663713083E+02 -0.34531713363E+02 -0.77613726344E+02  0.85910996819E+02  0.20000001550E+01 0.  0.
        -13    1    3    3    0    0  0.12663713083E+02  0.34531713363E+02 -0.32362331212E+02  0.48991228830E+02  0.10566000000E+00 0.  1.
         13    1    4    4    0    0 -0.11484689701E+02 -0.30821709722E+02 -0.68734471346E+02  0.76199177180E+02  0.10566000000E+00 0. -1.
        -13    1    4    4    0    0 -0.31943442778E+00 -0.10091548127E+01 -0.30463732517E+01  0.32267608857E+01  0.10566000000E+00 0.  1.
        -14    1    4    4    0    0 -0.85958895464E+00 -0.27008488278E+01 -0.58328817469E+01  0.64850587534E+01  0.00000000000E+00 0.  1.
<mgrwt>
<rscale>  0 0.78127314E+02</rscale>
<asrwt>0</asrwt>
<pdfrwt beam="1">  1        2 0.18836790E-01 0.78127314E+02</pdfrwt>
<pdfrwt beam="2">  1       -1 0.19173976E-02 0.78127314E+02</pdfrwt>
<totfact> 0.20023274E+05</totfact>
</mgrwt>
</event>
<event>
 8    1  0.1627221E-013  0.8226975E+02  0.7818608E-02  0.1322731E+00
          2   -1    0    0  501    0  0.00000000000E+00  0.00000000000E+00  0.44784195148E+03  0.44784195149E+03  0.25500000000E-02 0. -1.
         -1   -1    0    0    0  501 -0.00000000000E+00 -0.00000000000E+00 -0.37782907300E+01  0.37782940915E+01  0.50400000000E-02 0.  1.
         24    2    1    2    0    0  0.35527136788E-14  0.00000000000E+00  0.44406366075E+03  0.45162024558E+03  0.82269747890E+02 0.  0.
         66    2    3    3    0    0 -0.18374256752E+02 -0.43886982232E+01  0.42260098032E+03  0.42302773260E+03  0.19999990222E+01 0.  0.
        -13    1    3    3    0    0  0.18374256752E+02  0.43886982232E+01  0.21462680430E+02  0.28592512981E+02  0.10566000000E+00 0.  1.
         13    1    4    4    0    0 -0.22799646282E+01 -0.44956811905E+00  0.49617391318E+02  0.49671893818E+02  0.10566000000E+00 0. -1.
        -13    1    4    4    0    0 -0.12683979151E+02 -0.25777248169E+01  0.27761466174E+03  0.27791624560E+03  0.10566000000E+00 0.  1.
        -14    1    4    4    0    0 -0.34103129734E+01 -0.13614052873E+01  0.95368927262E+02  0.95439593179E+02  0.00000000000E+00 0.  1.
<mgrwt>
<rscale>  0 0.82269748E+02</rscale>
<asrwt>0</asrwt>
<pdfrwt beam="1">  1        2 0.68898716E-01 0.82269748E+02</pdfrwt>
<pdfrwt beam="2">  1       -1 0.58127614E-03 0.82269748E+02</pdfrwt>
<totfact> 0.27300793E+05</totfact>
</mgrwt>
</event>
<event>
 8    1  0.1627221E-013  0.8024229E+02  0.7818608E-02  0.1328365E+00
         -1   -1    0    0    0  501 -0.00000000000E+00  0.00000000000E+00  0.12844260434E+01  0.12844359316E+01  0.50400000000E-02 0.  1.
          2   -1    0    0  501    0  0.00000000000E+00 -0.00000000000E+00 -0.12532446432E+04  0.12532446432E+04  0.25500000000E-02 0. -1.
         24    2    1    2    0    0  0.00000000000E+00 -0.35527136788E-14 -0.12519602172E+04  0.12545290792E+04  0.80242289665E+02 0.  0.
         66    2    3    3    0    0 -0.13532284429E+02  0.19457123837E+02 -0.11320097796E+04  0.11322596184E+04  0.20000005615E+01 0.  0.
        -13    1    3    3    0    0  0.13532284429E+02 -0.19457123837E+02 -0.11995043762E+03  0.12226946078E+03  0.10566000000E+00 0.  1.
         13    1    4    4    0    0 -0.38916598630E+01  0.64529651528E+01 -0.35597811322E+03  0.35605788017E+03  0.10566000000E+00 0. -1.
        -13    1    4    4    0    0 -0.64057891933E+01  0.96882963281E+01 -0.55723268433E+03  0.55735372330E+03  0.10566000000E+00 0.  1.
        -14    1    4    4    0    0 -0.32348353725E+01  0.33158623559E+01 -0.21879898202E+03  0.21884801492E+03  0.00000000000E+00 0.  1.
<mgrwt>
<rscale>  0 0.80242290E+02</rscale>
<asrwt>0</asrwt>
<pdfrwt beam="1">  1        2 0.19280589E+00 0.80242290E+02</pdfrwt>
<pdfrwt beam="2">  1       -1 0.19760577E-03 0.80242290E+02</pdfrwt>
<totfact> 0.34565434E+05</totfact>
</mgrwt>
</event>
<event>
 8    1  0.1627221E-013  0.8005296E+02  0.7818608E-02  0.1328901E+00
          2   -1    0    0  501    0  0.00000000000E+00  0.00000000000E+00  0.69956783453E+03  0.69956783454E+03  0.25500000000E-02 0. -1.
         -1   -1    0    0    0  501 -0.00000000000E+00 -0.00000000000E+00 -0.22901524344E+01  0.22901579802E+01  0.50400000000E-02 0.  1.
         24    2    1    2    0    0  0.00000000000E+00  0.22204460493E-15  0.69727768210E+03  0.70185799252E+03  0.80052955650E+02 0.  0.
         66    2    3    3    0    0 -0.35360454745E+02  0.10438559947E+01  0.51256559370E+03  0.51378880801E+03  0.20000002539E+01 0.  0.
        -13    1    3    3    0    0  0.35360454745E+02 -0.10438559947E+01  0.18471208840E+03  0.18806918451E+03  0.10566000000E+00 0.  1.
         13    1    4    4    0    0 -0.23044948587E+02  0.11808535064E+01  0.34281432569E+03  0.34359007135E+03  0.10566000000E+00 0. -1.
        -13    1    4    4    0    0 -0.20107653770E+01  0.14185540399E+00  0.25807153111E+02  0.25885973346E+02  0.10566000000E+00 0. -1.
        -14    1    4    4    0    0 -0.10304740781E+02 -0.27885291562E+00  0.14394411489E+03  0.14431276331E+03  0.00000000000E+00 0.  1.
<mgrwt>
<rscale>  0 0.80052956E+02</rscale>
<asrwt>0</asrwt>
<pdfrwt beam="1">  1        2 0.10762575E+00 0.80052956E+02</pdfrwt>
<pdfrwt beam="2">  1       -1 0.35233179E-03 0.80052956E+02</pdfrwt>
<totfact> 0.33389484E+05</totfact>
</mgrwt>
</event>
<event>
 8    1  0.1627221E-013  0.8007319E+02  0.7818608E-02  0.1328844E+00
         -1   -1    0    0    0  501 -0.00000000000E+00  0.00000000000E+00  0.18938007936E+03  0.18938007942E+03  0.50400000000E-02 0.  1.
          2   -1    0    0  501    0  0.00000000000E+00 -0.00000000000E+00 -0.84640844696E+01  0.84640848537E+01  0.25500000000E-02 0. -1.
         24    2    1    2    0    0  0.00000000000E+00  0.17763568394E-14  0.18091599489E+03  0.19784416428E+03  0.80073192347E+02 0.  0.
         66    2    3    3    0    0  0.31974420244E+02  0.13870730671E+02  0.41960651692E+02  0.54584402706E+02  0.20000022555E+01 0.  0.
        -13    1    3    3    0    0 -0.31974420244E+02 -0.13870730671E+02  0.13895534319E+03  0.14325976157E+03  0.10566000000E+00 0.  1.
         13    1    4    4    0    0  0.78902160795E+00  0.39441509460E+00  0.69330104813E+00  0.11269200254E+01  0.10566000000E+00 0. -1.
        -13    1    4    4    0    0  0.55929584599E+01  0.26839015068E+01  0.77327353945E+01  0.99141753236E+01  0.10566000000E+00 0.  1.
         14    1    4    4    0    0  0.25592440176E+02  0.10792414069E+02  0.33534615250E+02  0.43543307356E+02  0.00000000000E+00 0. -1.
<mgrwt>
<rscale>  0 0.80073192E+02</rscale>
<asrwt>0</asrwt>
<pdfrwt beam="1">  1        2 0.13021670E-02 0.80073192E+02</pdfrwt>
<pdfrwt beam="2">  1       -1 0.29135395E-01 0.80073192E+02</pdfrwt>
<totfact> 0.10099812E+05</totfact>
</mgrwt>
</event>
<event>
 8    1  0.1627221E-013  0.8646012E+02  0.7818608E-02  0.1311658E+00
         -1   -1    0    0    0  501 -0.00000000000E+00  0.00000000000E+00  0.41579942901E+01  0.41579973446E+01  0.50400000000E-02 0.  1.
          2   -1    0    0  501    0  0.00000000000E+00 -0.00000000000E+00 -0.44945645305E+03  0.44945645306E+03  0.25500000000E-02 0. -1.
         24    2    1    2    0    0  0.00000000000E+00 -0.71054273576E-14 -0.44529845876E+03  0.45361445040E+03  0.86460119358E+02 0.  0.
         66    2    3    3    0    0  0.96227793689E+01 -0.40462890216E+02 -0.28417461623E+03  0.28720908041E+03  0.19999978298E+01 0.  0.
        -13    1    3    3    0    0 -0.96227793689E+01  0.40462890216E+02 -0.16112384253E+03  0.16640536999E+03  0.10566000000E+00 0.  1.
         13    1    4    4    0    0  0.20040700068E+01 -0.76483259268E+01 -0.58085085791E+02  0.58620828563E+02  0.10566000000E+00 0. -1.
        -13    1    4    4    0    0  0.52932001063E+00 -0.23667262533E+01 -0.18237092068E+02  0.18397941841E+02  0.10566000000E+00 0.  1.
         14    1    4    4    0    0  0.70893893515E+01 -0.30447838036E+02 -0.20785243838E+03  0.21019031001E+03  0.00000000000E+00 0. -1.
<mgrwt>
<rscale>  0 0.86460119E+02</rscale>
<asrwt>0</asrwt>
<pdfrwt beam="1">  1        2 0.69147108E-01 0.86460119E+02</pdfrwt>
<pdfrwt beam="2">  1       -1 0.63969202E-03 0.86460119E+02</pdfrwt>
<totfact> 0.23995063E+05</totfact>
</mgrwt>
</event>
<event>
 8    1  0.1627221E-013  0.7985823E+02  0.7818608E-02  0.1329454E+00
         -1   -1    0    0    0  501 -0.00000000000E+00  0.00000000000E+00  0.43511616173E+01  0.43511645362E+01  0.50400000000E-02 0.  1.
          2   -1    0    0  501    0  0.00000000000E+00 -0.00000000000E+00 -0.36641560123E+03  0.36641560123E+03  0.25500000000E-02 0. -1.
         24    2    1    2    0    0  0.00000000000E+00  0.00000000000E+00 -0.36206443961E+03  0.37076676577E+03  0.79858225445E+02 0.  0.
         66    2    3    3    0    0 -0.19482915596E+02  0.15509161767E+01 -0.34266860564E+03  0.34323135438E+03  0.19999990952E+01 0.  0.
        -13    1    3    3    0    0  0.19482915596E+02 -0.15509161767E+01 -0.19395833966E+02  0.27535411389E+02  0.10566000000E+00 0.  1.
         13    1    4    4    0    0 -0.62230445071E+01  0.61029842794E+00 -0.97569030311E+02  0.97769246632E+02  0.10566000000E+00 0. -1.
        -13    1    4    4    0    0 -0.30693848657E+01 -0.50161853946E-01 -0.63236833685E+02  0.63311388693E+02  0.10566000000E+00 0.  1.
         14    1    4    4    0    0 -0.10190486223E+02  0.99077960273E+00 -0.18186274165E+03  0.18215071906E+03  0.00000000000E+00 0. -1.
<mgrwt>
<rscale>  0 0.79858225E+02</rscale>
<asrwt>0</asrwt>
<pdfrwt beam="1">  1        2 0.56371607E-01 0.79858225E+02</pdfrwt>
<pdfrwt beam="2">  1       -1 0.66940999E-03 0.79858225E+02</pdfrwt>
<totfact> 0.27519970E+05</totfact>
</mgrwt>
</event>
<event>
 8    1  0.1627221E-013  0.8205012E+02  0.7818608E-02  0.1323332E+00
          2   -1    0    0  501    0  0.00000000000E+00  0.00000000000E+00  0.56829741876E+02  0.56829741933E+02  0.25500000000E-02 0. -1.
         -1   -1    0    0    0  501 -0.00000000000E+00 -0.00000000000E+00 -0.29615749595E+02  0.29615750024E+02  0.50400000000E-02 0.  1.
         24    2    1    2    0    0  0.35527136788E-14  0.35527136788E-14  0.27213992281E+02  0.86445491956E+02  0.82050117024E+02 0.  0.
         66    2    3    3    0    0  0.23463868405E+02  0.27339881897E+02  0.34234576172E+02  0.49739606531E+02  0.19999973732E+01 0.  0.
        -13    1    3    3    0    0 -0.23463868405E+02 -0.27339881897E+02 -0.70205838911E+01  0.36705885426E+02  0.10566000000E+00 0.  1.
         13    1    4    4    0    0  0.17698783084E+01  0.16251294393E+01  0.19075031533E+01  0.30697308085E+01  0.10566000000E+00 0. -1.
        -13    1    4    4    0    0  0.90246435251E+00  0.84097347370E+00  0.10649714364E+01  0.16330972068E+01  0.10566000000E+00 0. -1.
         14    1    4    4    0    0  0.20791525744E+02  0.24873778984E+02  0.31262101582E+02  0.45036778516E+02  0.00000000000E+00 0. -1.
<mgrwt>
<rscale>  0 0.82050117E+02</rscale>
<asrwt>0</asrwt>
<pdfrwt beam="1">  1        2 0.87430372E-02 0.82050117E+02</pdfrwt>
<pdfrwt beam="2">  1       -1 0.45562692E-02 0.82050117E+02</pdfrwt>
<totfact> 0.14347446E+05</totfact>
</mgrwt>
</event>
<event>
 8    1  0.1627221E-013  0.7728439E+02  0.7818608E-02  0.1336939E+00
          2   -1    0    0  501    0  0.00000000000E+00  0.00000000000E+00  0.12891054594E+03  0.12891054597E+03  0.25500000000E-02 0. -1.
         -1   -1    0    0    0  501 -0.00000000000E+00 -0.00000000000E+00 -0.11583373395E+02  0.11583374492E+02  0.50400000000E-02 0.  1.
         24    2    1    2    0    0 -0.44408920985E-15  0.00000000000E+00  0.11732717255E+03  0.14049392046E+03  0.77284385669E+02 0.  0.
         66    2    3    3    0    0  0.29241632597E+01 -0.34015757216E+02  0.91504921742E+02  0.97687118776E+02  0.20000005045E+01 0.  0.
        -13    1    3    3    0    0 -0.29241632597E+01  0.34015757216E+02  0.25822250806E+02  0.42806801684E+02  0.10566000000E+00 0.  1.
         13    1    4    4    0    0  0.11736448152E+01 -0.23918007100E+02  0.64135089745E+02  0.68459983980E+02  0.10566000000E+00 0. -1.
        -13    1    4    4    0    0  0.10465540640E+01 -0.65515956430E+01  0.17450756013E+02  0.18669727645E+02  0.10566000000E+00 0.  1.
         14    1    4    4    0    0  0.70396438056E+00 -0.35461544723E+01  0.99190759844E+01  0.10557407152E+02  0.00000000000E+00 0. -1.
<mgrwt>
<rscale>  0 0.77284386E+02</rscale>
<asrwt>0</asrwt>
<pdfrwt beam="1">  1        2 0.19832392E-01 0.77284386E+02</pdfrwt>
<pdfrwt beam="2">  1       -1 0.17820575E-02 0.77284386E+02</pdfrwt>
<totfact> 0.20932260E+05</totfact>
</mgrwt>
</event>
<event>
 8    1  0.1627221E-013  0.8278352E+02  0.7818608E-02  0.1321333E+00
          2   -1    0    0  501    0  0.00000000000E+00  0.00000000000E+00  0.64470668300E+03  0.64470668301E+03  0.25500000000E-02 0. -1.
         -1   -1    0    0    0  501 -0.00000000000E+00 -0.00000000000E+00 -0.26574504339E+01  0.26574552132E+01  0.50400000000E-02 0.  1.
         24    2    1    2    0    0  0.00000000000E+00  0.00000000000E+00  0.64204923257E+03  0.64736413822E+03  0.82783515341E+02 0.  0.
         66    2    3    3    0    0  0.35464043571E+01  0.37205508301E+02  0.45987991452E+03  0.46140043629E+03  0.20000005160E+01 0.  0.
        -13    1    3    3    0    0 -0.35464043571E+01 -0.37205508301E+02  0.18216931805E+03  0.18596370193E+03  0.10566000000E+00 0.  1.
         13    1    4    4    0    0  0.87772893633E+00  0.82480913609E+01  0.99946353915E+02  0.10029001069E+03  0.10566000000E+00 0. -1.
        -13    1    4    4    0    0  0.25263710732E+01  0.18852893053E+02  0.23257114045E+03  0.23334772478E+03  0.10566000000E+00 0.  1.
        -14    1    4    4    0    0  0.14230434756E+00  0.10104523887E+02  0.12736242015E+03  0.12776270082E+03  0.00000000000E+00 0.  1.
<mgrwt>
<rscale>  0 0.82783515E+02</rscale>
<asrwt>0</asrwt>
<pdfrwt beam="1">  1        2 0.99185649E-01 0.82783515E+02</pdfrwt>
<pdfrwt beam="2">  1       -1 0.40883887E-03 0.82783515E+02</pdfrwt>
<totfact> 0.29993453E+05</totfact>
</mgrwt>
</event>
<event>
 8    1  0.1627221E-013  0.7918416E+02  0.7818608E-02  0.1331383E+00
          2   -1    0    0  501    0  0.00000000000E+00  0.00000000000E+00  0.66049384704E+03  0.66049384705E+03  0.25500000000E-02 0. -1.
         -1   -1    0    0    0  501 -0.00000000000E+00 -0.00000000000E+00 -0.23732714037E+01  0.23732767553E+01  0.50400000000E-02 0.  1.
         24    2    1    2    0    0  0.00000000000E+00  0.00000000000E+00  0.65812057564E+03  0.66286712380E+03  0.79184163437E+02 0.  0.
         66    2    3    3    0    0  0.12075774327E+02  0.35043243467E+02  0.44516619740E+03  0.44671108846E+03  0.20000026984E+01 0.  0.
        -13    1    3    3    0    0 -0.12075774327E+02 -0.35043243467E+02  0.21295437824E+03  0.21615603534E+03  0.10566000000E+00 0.  1.
         13    1    4    4    0    0  0.32661770433E+01  0.86162051340E+01  0.11435516976E+03  0.11472585985E+03  0.10566000000E+00 0. -1.
        -13    1    4    4    0    0  0.81718483425E+01  0.23046698648E+02  0.29192143057E+03  0.29294378678E+03  0.10566000000E+00 0.  1.
        -14    1    4    4    0    0  0.63774894096E+00  0.33803396850E+01  0.38889597074E+02  0.39041441837E+02  0.00000000000E+00 0.  1.
<mgrwt>
<rscale>  0 0.79184163E+02</rscale>
<asrwt>0</asrwt>
<pdfrwt beam="1">  1        2 0.10161435E+00 0.79184163E+02</pdfrwt>
<pdfrwt beam="2">  1       -1 0.36511942E-03 0.79184163E+02</pdfrwt>
<totfact> 0.33880817E+05</totfact>
</mgrwt>
</event>
<event>
 8    1  0.1627221E-013  0.7785757E+02  0.7818608E-02  0.1335244E+00
         -1   -1    0    0    0  501 -0.00000000000E+00  0.00000000000E+00  0.11184843150E+01  0.11184956703E+01  0.50400000000E-02 0.  1.
          2   -1    0    0  501    0  0.00000000000E+00 -0.00000000000E+00 -0.13549071782E+04  0.13549071782E+04  0.25500000000E-02 0. -1.
         24    2    1    2    0    0  0.00000000000E+00  0.00000000000E+00 -0.13537886939E+04  0.13560256739E+04  0.77857565535E+02 0.  0.
         66    2    3    3    0    0 -0.13769947037E+02 -0.13970225152E+02 -0.12624664722E+04  0.12626204386E+04  0.19999998393E+01 0.  0.
        -13    1    3    3    0    0  0.13769947037E+02  0.13970225152E+02 -0.91322221692E+02  0.93405235244E+02  0.10566000000E+00 0.  1.
         13    1    4    4    0    0 -0.85013864938E+01 -0.93376930791E+01 -0.83114563035E+03  0.83124156303E+03  0.10566000000E+00 0. -1.
        -13    1    4    4    0    0 -0.33950122820E+01 -0.27852730914E+01 -0.24366885614E+03  0.24370844563E+03  0.10566000000E+00 0.  1.
         14    1    4    4    0    0 -0.18735482611E+01 -0.18472589811E+01 -0.18765198569E+03  0.18767042996E+03  0.00000000000E+00 0. -1.
<mgrwt>
<rscale>  0 0.77857566E+02</rscale>
<asrwt>0</asrwt>
<pdfrwt beam="1">  1        2 0.20844595E+00 0.77857566E+02</pdfrwt>
<pdfrwt beam="2">  1       -1 0.17207647E-03 0.77857566E+02</pdfrwt>
<totfact> 0.36809480E+05</totfact>
</mgrwt>
</event>
<event>
 8    1  0.1853504E-013  0.7408707E+02  0.7818608E-02  0.1346722E+00
          2   -1    0    0  501    0  0.00000000000E+00  0.00000000000E+00  0.11975756380E+04  0.11975756380E+04  0.25500000000E-02 0. -1.
         -1   -1    0    0    0  501 -0.00000000000E+00 -0.00000000000E+00 -0.11458290098E+01  0.11458400941E+01  0.50400000000E-02 0.  1.
         24    2    1    2    0    0  0.00000000000E+00  0.00000000000E+00  0.11964298090E+04  0.11987214781E+04  0.74087071816E+02 0.  0.
         66    2    3    3    0    0  0.12451370848E+02  0.13578478802E+02  0.11181244883E+04  0.11182780437E+04  0.20000001147E+01 0.  0.
        -13    1    3    3    0    0 -0.12451370848E+02 -0.13578478802E+02  0.78305320727E+02  0.80443434416E+02  0.10566000000E+00 0.  1.
         13    1    4    4    0    0  0.63300973521E+01  0.72405840696E+01  0.58424667938E+03  0.58432584208E+03  0.10566000000E+00 0. -1.
        -13    1    4    4    0    0  0.29078712827E+01  0.26700722063E+01  0.27651260164E+03  0.27654080175E+03  0.10566000000E+00 0.  1.
        -14    1    4    4    0    0  0.32134022133E+01  0.36678225257E+01  0.25736520727E+03  0.25741139988E+03  0.00000000000E+00 0.  1.
<mgrwt>
<rscale>  0 0.74087072E+02</rscale>
<asrwt>0</asrwt>
<pdfrwt beam="1">  1        2 0.18424277E+00 0.74087072E+02</pdfrwt>
<pdfrwt beam="2">  1       -1 0.17628189E-03 0.74087072E+02</pdfrwt>
<totfact> 0.42744409E+05</totfact>
</mgrwt>
</event>
<event>
 8    1  0.1627221E-013  0.8037631E+02  0.7818608E-02  0.1327987E+00
          2   -1    0    0  501    0  0.00000000000E+00  0.00000000000E+00  0.97566053170E+02  0.97566053203E+02  0.25500000000E-02 0. -1.
         -1   -1    0    0    0  501 -0.00000000000E+00 -0.00000000000E+00 -0.16553789182E+02  0.16553789949E+02  0.50400000000E-02 0.  1.
         24    2    1    2    0    0  0.00000000000E+00 -0.35527136788E-14  0.81012263988E+02  0.11411984315E+03  0.80376312957E+02 0.  0.
         66    2    3    3    0    0  0.26758841902E+02  0.29682318701E+02  0.46211712943E+02  0.61127719393E+02  0.20000004075E+01 0.  0.
        -13    1    3    3    0    0 -0.26758841902E+02 -0.29682318701E+02  0.34800551045E+02  0.52992123759E+02  0.10566000000E+00 0.  1.
         13    1    4    4    0    0  0.20356012772E+02  0.21998741654E+02  0.35462336128E+02  0.46431673866E+02  0.10566000000E+00 0. -1.
        -13    1    4    4    0    0  0.26542408463E+01  0.36268608862E+01  0.49746718019E+01  0.67050457068E+01  0.10566000000E+00 0.  1.
         14    1    4    4    0    0  0.37485882835E+01  0.40567161613E+01  0.57747050135E+01  0.79909998202E+01  0.00000000000E+00 0. -1.
<mgrwt>
<rscale>  0 0.80376313E+02</rscale>
<asrwt>0</asrwt>
<pdfrwt beam="1">  1        2 0.15010162E-01 0.80376313E+02</pdfrwt>
<pdfrwt beam="2">  1       -1 0.25467369E-02 0.80376313E+02</pdfrwt>
<totfact> 0.17384446E+05</totfact>
</mgrwt>
</event>
<event>
 8    1  0.1627221E-013  0.8014773E+02  0.7818608E-02  0.1328633E+00
         -1   -1    0    0    0  501 -0.00000000000E+00  0.00000000000E+00  0.38688309927E+01  0.38688342756E+01  0.50400000000E-02 0.  1.
          2   -1    0    0  501    0  0.00000000000E+00 -0.00000000000E+00 -0.41509021467E+03  0.41509021468E+03  0.25500000000E-02 0. -1.
         24    2    1    2    0    0  0.71054273576E-14 -0.35527136788E-14 -0.41122138368E+03  0.41895904896E+03  0.80147728019E+02 0.  0.
         66    2    3    3    0    0 -0.35065022055E+02  0.18752518371E+02 -0.23064205266E+03  0.23405334684E+03  0.19999994683E+01 0.  0.
        -13    1    3    3    0    0  0.35065022055E+02 -0.18752518371E+02 -0.18057933102E+03  0.18490570211E+03  0.10566000000E+00 0.  1.
         13    1    4    4    0    0 -0.95058982077E+01  0.53990475235E+01 -0.65962991067E+02  0.66862838479E+02  0.10566000000E+00 0. -1.
        -13    1    4    4    0    0 -0.74815068383E+01  0.35430697519E+01 -0.50346469349E+02  0.51022587427E+02  0.10566000000E+00 0.  1.
         14    1    4    4    0    0 -0.18077617010E+02  0.98104010954E+01 -0.11433259224E+03  0.11616792094E+03  0.00000000000E+00 0. -1.
<mgrwt>
<rscale>  0 0.80147728E+02</rscale>
<asrwt>0</asrwt>
<pdfrwt beam="1">  1        2 0.63859998E-01 0.80147728E+02</pdfrwt>
<pdfrwt beam="2">  1       -1 0.59520535E-03 0.80147728E+02</pdfrwt>
<totfact> 0.28482171E+05</totfact>
</mgrwt>
</event>
<event>
 8    1  0.1627221E-013  0.8152941E+02  0.7818608E-02  0.1324766E+00
          2   -1    0    0  501    0  0.00000000000E+00  0.00000000000E+00  0.25592009395E+03  0.25592009397E+03  0.25500000000E-02 0. -1.
         -1   -1    0    0    0  501 -0.00000000000E+00 -0.00000000000E+00 -0.64932801490E+01  0.64932821050E+01  0.50400000000E-02 0.  1.
         24    2    1    2    0    0 -0.17763568394E-14 -0.17763568394E-14  0.24942681380E+03  0.26241337607E+03  0.81529408783E+02 0.  0.
         66    2    3    3    0    0  0.14212930504E+02  0.11875552247E+02  0.24158167091E+03  0.24229886475E+03  0.20000006232E+01 0.  0.
        -13    1    3    3    0    0 -0.14212930504E+02 -0.11875552247E+02  0.78451428896E+01  0.20114511321E+02  0.10566000000E+00 0.  1.
         13    1    4    4    0    0  0.71313154722E+01  0.68631492287E+01  0.13276731283E+03  0.13313575401E+03  0.10566000000E+00 0. -1.
        -13    1    4    4    0    0  0.29550119818E+01  0.25853345893E+01  0.50643191984E+02  0.50795276445E+02  0.10566000000E+00 0.  1.
         14    1    4    4    0    0  0.41266030501E+01  0.24270684294E+01  0.58171166105E+02  0.58367834292E+02  0.00000000000E+00 0. -1.
<mgrwt>
<rscale>  0 0.81529409E+02</rscale>
<asrwt>0</asrwt>
<pdfrwt beam="1">  1        2 0.39372320E-01 0.81529409E+02</pdfrwt>
<pdfrwt beam="2">  1       -1 0.99896639E-03 0.81529409E+02</pdfrwt>
<totfact> 0.22899852E+05</totfact>
</mgrwt>
</event>
<event>
 8    1  0.1627221E-013  0.7898388E+02  0.7818608E-02  0.1331960E+00
         -1   -1    0    0    0  501 -0.00000000000E+00  0.00000000000E+00  0.17299076855E+03  0.17299076863E+03  0.50400000000E-02 0.  1.
          2   -1    0    0  501    0  0.00000000000E+00 -0.00000000000E+00 -0.90155862204E+01  0.90155865811E+01  0.25500000000E-02 0. -1.
         24    2    1    2    0    0  0.71054273576E-14  0.00000000000E+00  0.16397518233E+03  0.18200635521E+03  0.78983877563E+02 0.  0.
         66    2    3    3    0    0 -0.36565993027E+02  0.64386339704E+01  0.11287701719E+03  0.11884337951E+03  0.19999978333E+01 0.  0.
        -13    1    3    3    0    0  0.36565993027E+02 -0.64386339704E+01  0.51098165145E+02  0.63162975695E+02  0.10566000000E+00 0.  1.
         13    1    4    4    0    0 -0.15147304544E+02  0.33888523340E+01  0.48600956310E+02  0.51019498953E+02  0.10566000000E+00 0. -1.
        -13    1    4    4    0    0 -0.23015325869E+01  0.52899302442E+00  0.67245994466E+01  0.71279932394E+01  0.10566000000E+00 0.  1.
        -14    1    4    4    0    0 -0.19117155895E+02  0.25207886119E+01  0.57551461430E+02  0.60695887319E+02  0.00000000000E+00 0.  1.
<mgrwt>
<rscale>  0 0.78983878E+02</rscale>
<asrwt>0</asrwt>
<pdfrwt beam="1">  1        2 0.13870133E-02 0.78983878E+02</pdfrwt>
<pdfrwt beam="2">  1       -1 0.26613964E-01 0.78983878E+02</pdfrwt>
<totfact> 0.10729406E+05</totfact>
</mgrwt>
</event>
<event>
 8    1  0.1627221E-013  0.8193226E+02  0.7818608E-02  0.1323656E+00
          2   -1    0    0  501    0  0.00000000000E+00  0.00000000000E+00  0.41429646271E+02  0.41429646349E+02  0.25500000000E-02 0. -1.
         -1   -1    0    0    0  501 -0.00000000000E+00 -0.00000000000E+00 -0.40507801442E+02  0.40507801755E+02  0.50400000000E-02 0.  1.
         24    2    1    2    0    0  0.00000000000E+00  0.35527136788E-14  0.92184482913E+00  0.81937448105E+02  0.81932262290E+02 0.  0.
         66    2    3    3    0    0 -0.27966682390E+02 -0.28795865216E+02 -0.75942330743E+01  0.40902439583E+02  0.20000026092E+01 0.  0.
        -13    1    3    3    0    0  0.27966682390E+02  0.28795865216E+02  0.85160779035E+01  0.41035008521E+02  0.10566000000E+00 0.  1.
         13    1    4    4    0    0 -0.12512519913E+02 -0.13182719897E+02 -0.30730503896E+01  0.18433720764E+02  0.10566000000E+00 0. -1.
        -13    1    4    4    0    0 -0.16810845154E+01 -0.19674726550E+01 -0.15292984349E+00  0.25945221850E+01  0.10566000000E+00 0.  1.
         14    1    4    4    0    0 -0.13773077962E+02 -0.13645672664E+02 -0.43682528412E+01  0.19874196635E+02  0.00000000000E+00 0. -1.
<mgrwt>
<rscale>  0 0.81932262E+02</rscale>
<asrwt>0</asrwt>
<pdfrwt beam="1">  1        2 0.63737917E-02 0.81932262E+02</pdfrwt>
<pdfrwt beam="2">  1       -1 0.62319695E-02 0.81932262E+02</pdfrwt>
<totfact> 0.13441828E+05</totfact>
</mgrwt>
</event>
<event>
 8    1  0.1627221E-013  0.8210961E+02  0.7818608E-02  0.1323169E+00
         -1   -1    0    0    0  501 -0.00000000000E+00  0.00000000000E+00  0.35088234305E+01  0.35088270501E+01  0.50400000000E-02 0.  1.
          2   -1    0    0  501    0  0.00000000000E+00 -0.00000000000E+00 -0.48035938459E+03  0.48035938459E+03  0.25500000000E-02 0. -1.
         24    2    1    2    0    0  0.00000000000E+00  0.71054273576E-14 -0.47685056116E+03  0.48386821164E+03  0.82109613104E+02 0.  0.
         66    2    3    3    0    0  0.49245093484E+01 -0.37707506773E+02 -0.32936093557E+03  0.33155502220E+03  0.20000015031E+01 0.  0.
        -13    1    3    3    0    0 -0.49245093484E+01  0.37707506773E+02 -0.14748962559E+03  0.15231318945E+03  0.10566000000E+00 0.  1.
         13    1    4    4    0    0  0.97736958607E+00 -0.44138535005E+01 -0.41944229624E+02  0.42187283829E+02  0.10566000000E+00 0. -1.
        -13    1    4    4    0    0  0.26600349954E+01 -0.18439808608E+02 -0.16222334536E+03  0.16328970351E+03  0.10566000000E+00 0.  1.
         14    1    4    4    0    0  0.12871047669E+01 -0.14853844665E+02 -0.12519336059E+03  0.12607803486E+03  0.00000000000E+00 0. -1.
<mgrwt>
<rscale>  0 0.82109613E+02</rscale>
<asrwt>0</asrwt>
<pdfrwt beam="1">  1        2 0.73901392E-01 0.82109613E+02</pdfrwt>
<pdfrwt beam="2">  1       -1 0.53981965E-03 0.82109613E+02</pdfrwt>
<totfact> 0.28085966E+05</totfact>
</mgrwt>
</event>
<event>
 8    1  0.1627221E-013  0.8039712E+02  0.7818608E-02  0.1327928E+00
          2   -1    0    0  501    0  0.00000000000E+00  0.00000000000E+00  0.90051151062E+03  0.90051151062E+03  0.25500000000E-02 0. -1.
         -1   -1    0    0    0  501 -0.00000000000E+00 -0.00000000000E+00 -0.17944478407E+01  0.17944549185E+01  0.50400000000E-02 0.  1.
         24    2    1    2    0    0  0.00000000000E+00  0.00000000000E+00  0.89871706278E+03  0.90230596554E+03  0.80397117623E+02 0.  0.
         66    2    3    3    0    0 -0.27836899736E+02  0.86039602005E+01  0.76005141778E+03  0.76061230519E+03  0.20000031291E+01 0.  0.
        -13    1    3    3    0    0  0.27836899736E+02 -0.86039602005E+01  0.13866564500E+03  0.14169366035E+03  0.10566000000E+00 0.  1.
         13    1    4    4    0    0 -0.63629037248E+01  0.24184008818E+01  0.17079673482E+03  0.17093235795E+03  0.10566000000E+00 0. -1.
        -13    1    4    4    0    0 -0.29228992420E+01  0.11792319757E+01  0.92754969560E+02  0.92808563560E+02  0.10566000000E+00 0.  1.
        -14    1    4    4    0    0 -0.18551096769E+02  0.50063273430E+01  0.49649971340E+03  0.49687138367E+03  0.00000000000E+00 0.  1.
<mgrwt>
<rscale>  0 0.80397118E+02</rscale>
<asrwt>0</asrwt>
<pdfrwt beam="1">  1        2 0.13854036E+00 0.80397118E+02</pdfrwt>
<pdfrwt beam="2">  1       -1 0.27606919E-03 0.80397118E+02</pdfrwt>
<totfact> 0.34502155E+05</totfact>
</mgrwt>
</event>
<event>
 8    1  0.1627221E-013  0.7960216E+02  0.7818608E-02  0.1330184E+00
         -1   -1    0    0    0  501 -0.00000000000E+00  0.00000000000E+00  0.21212595172E+02  0.21212595771E+02  0.50400000000E-02 0.  1.
          2   -1    0    0  501    0  0.00000000000E+00 -0.00000000000E+00 -0.74678553530E+02  0.74678553573E+02  0.25500000000E-02 0. -1.
         24    2    1    2    0    0 -0.35527136788E-14  0.00000000000E+00 -0.53465958358E+02  0.95891149344E+02  0.79602159640E+02 0.  0.
         66    2    3    3    0    0 -0.20820499412E+02 -0.49354760567E+01 -0.67141194782E+02  0.70496752817E+02  0.20000003127E+01 0.  0.
        -13    1    3    3    0    0  0.20820499412E+02  0.49354760567E+01  0.13675236425E+02  0.25394396527E+02  0.10566000000E+00 0.  1.
         13    1    4    4    0    0 -0.62067848635E+01 -0.11129065851E+01 -0.18787962188E+02  0.19818209471E+02  0.10566000000E+00 0. -1.
        -13    1    4    4    0    0 -0.27877426143E+01 -0.68840164029E+00 -0.11205478181E+02  0.11568029694E+02  0.10566000000E+00 0.  1.
         14    1    4    4    0    0 -0.11825971934E+02 -0.31341678313E+01 -0.37147754413E+02  0.39110513652E+02  0.00000000000E+00 0. -1.
<mgrwt>
<rscale>  0 0.79602160E+02</rscale>
<asrwt>0</asrwt>
<pdfrwt beam="1">  1        2 0.11489008E-01 0.79602160E+02</pdfrwt>
<pdfrwt beam="2">  1       -1 0.32634763E-02 0.79602160E+02</pdfrwt>
<totfact> 0.16629203E+05</totfact>
</mgrwt>
</event>
<event>
 8    1  0.1627221E-013  0.8257935E+02  0.7818608E-02  0.1321887E+00
         -1   -1    0    0    0  501 -0.00000000000E+00  0.00000000000E+00  0.32637141326E+01  0.32637180241E+01  0.50400000000E-02 0.  1.
          2   -1    0    0  501    0  0.00000000000E+00 -0.00000000000E+00 -0.52236077051E+03  0.52236077052E+03  0.25500000000E-02 0. -1.
         24    2    1    2    0    0  0.00000000000E+00  0.00000000000E+00 -0.51909705638E+03  0.52562448854E+03  0.82579349802E+02 0.  0.
         66    2    3    3    0    0  0.23728417667E+02  0.26470832975E+02 -0.39307725076E+03  0.39468654379E+03  0.19999953007E+01 0.  0.
        -13    1    3    3    0    0 -0.23728417667E+02 -0.26470832975E+02 -0.12601980562E+03  0.13093794476E+03  0.10566000000E+00 0.  1.
         13    1    4    4    0    0  0.17112719050E+02  0.19476743951E+02 -0.28192861484E+03  0.28311825045E+03  0.10566000000E+00 0. -1.
        -13    1    4    4    0    0  0.18779395240E+01  0.16410540606E+01 -0.25521233965E+02  0.25643015861E+02  0.10566000000E+00 0.  1.
         14    1    4    4    0    0  0.47377590940E+01  0.53530349633E+01 -0.85627401951E+02  0.85925277476E+02  0.00000000000E+00 0. -1.
<mgrwt>
<rscale>  0 0.82579350E+02</rscale>
<asrwt>0</asrwt>
<pdfrwt beam="1">  1        2 0.80363129E-01 0.82579350E+02</pdfrwt>
<pdfrwt beam="2">  1       -1 0.50211058E-03 0.82579350E+02</pdfrwt>
<totfact> 0.28419946E+05</totfact>
</mgrwt>
</event>
<event>
 8    1  0.1627221E-013  0.8131859E+02  0.7818608E-02  0.1325351E+00
          2   -1    0    0  501    0  0.00000000000E+00  0.00000000000E+00  0.21378930371E+02  0.21378930523E+02  0.25500000000E-02 0. -1.
         -1   -1    0    0    0  501 -0.00000000000E+00 -0.00000000000E+00 -0.77327456781E+02  0.77327456946E+02  0.50400000000E-02 0.  1.
         24    2    1    2    0    0  0.00000000000E+00  0.00000000000E+00 -0.55948526410E+02  0.98706387469E+02  0.81318591477E+02 0.  0.
         66    2    3    3    0    0  0.36051018825E+02  0.79670468777E+01 -0.48591241533E+02  0.61059467289E+02  0.19999994069E+01 0.  0.
        -13    1    3    3    0    0 -0.36051018825E+02 -0.79670468777E+01 -0.73572848769E+01  0.37646920180E+02  0.10566000000E+00 0.  1.
         13    1    4    4    0    0  0.14839242342E+02  0.27292610689E+01 -0.20841961921E+02  0.25730342400E+02  0.10566000000E+00 0. -1.
        -13    1    4    4    0    0  0.45155406953E+01  0.13261718142E+01 -0.55385639244E+01  0.72688165359E+01  0.10566000000E+00 0.  1.
        -14    1    4    4    0    0  0.16696235788E+02  0.39116139946E+01 -0.22210715688E+02  0.28060308353E+02  0.00000000000E+00 0.  1.
<mgrwt>
<rscale>  0 0.81318591E+02</rscale>
<asrwt>0</asrwt>
<pdfrwt beam="1">  1        2 0.32890663E-02 0.81318591E+02</pdfrwt>
<pdfrwt beam="2">  1       -1 0.11896532E-01 0.81318591E+02</pdfrwt>
<totfact> 0.12007814E+05</totfact>
</mgrwt>
</event>
<event>
 8    1  0.1627221E-013  0.8032623E+02  0.7818608E-02  0.1328128E+00
         -1   -1    0    0    0  501 -0.00000000000E+00  0.00000000000E+00  0.93277820800E+01  0.93277834416E+01  0.50400000000E-02 0.  1.
          2   -1    0    0  501    0  0.00000000000E+00 -0.00000000000E+00 -0.17293238553E+03  0.17293238555E+03  0.25500000000E-02 0. -1.
         24    2    1    2    0    0  0.00000000000E+00  0.00000000000E+00 -0.16360460345E+03  0.18226016899E+03  0.80326228159E+02 0.  0.
         66    2    3    3    0    0  0.18983891095E+02  0.21278881555E+01 -0.16195063401E+03  0.16308563358E+03  0.19999991682E+01 0.  0.
        -13    1    3    3    0    0 -0.18983891095E+02 -0.21278881555E+01 -0.16539694419E+01  0.19174535407E+02  0.10566000000E+00 0.  1.
         13    1    4    4    0    0  0.16710186291E+02  0.15394932667E+01 -0.14417221381E+03  0.14514557784E+03  0.10566000000E+00 0. -1.
        -13    1    4    4    0    0  0.19734315027E+01  0.47401349763E+00 -0.16356936324E+02  0.16482707625E+02  0.10566000000E+00 0.  1.
         14    1    4    4    0    0  0.30027330105E+00  0.11438139116E+00 -0.14214838680E+01  0.14573481207E+01  0.00000000000E+00 0. -1.
<mgrwt>
<rscale>  0 0.80326228E+02</rscale>
<asrwt>0</asrwt>
<pdfrwt beam="1">  1        2 0.26604980E-01 0.80326228E+02</pdfrwt>
<pdfrwt beam="2">  1       -1 0.14350436E-02 0.80326228E+02</pdfrwt>
<totfact> 0.20764128E+05</totfact>
</mgrwt>
</event>
<event>
 8    1  0.1627221E-013  0.7696527E+02  0.7818608E-02  0.1337891E+00
          2   -1    0    0  501    0  0.00000000000E+00  0.00000000000E+00  0.80380802097E+03  0.80380802097E+03  0.25500000000E-02 0. -1.
         -1   -1    0    0    0  501 -0.00000000000E+00 -0.00000000000E+00 -0.18423684164E+01  0.18423753101E+01  0.50400000000E-02 0.  1.
         24    2    1    2    0    0 -0.17763568394E-14  0.00000000000E+00  0.80196565255E+03  0.80565039628E+03  0.76965272409E+02 0.  0.
         66    2    3    3    0    0 -0.12217926964E+02  0.79616050187E+01  0.77373924248E+03  0.77387924139E+03  0.20000007511E+01 0.  0.
        -13    1    3    3    0    0  0.12217926964E+02 -0.79616050187E+01  0.28226410071E+02  0.31771154894E+02  0.10566000000E+00 0.  1.
         13    1    4    4    0    0 -0.14090156201E+01  0.81265345385E+00  0.81422755738E+02  0.81439069534E+02  0.10566000000E+00 0. -1.
        -13    1    4    4    0    0 -0.53059574477E+01  0.24261203704E+01  0.31036709510E+03  0.31042194531E+03  0.10566000000E+00 0.  1.
        -14    1    4    4    0    0 -0.55029538963E+01  0.47228311944E+01  0.38194939164E+03  0.38201822654E+03  0.00000000000E+00 0.  1.
<mgrwt>
<rscale>  0 0.76965272E+02</rscale>
<asrwt>0</asrwt>
<pdfrwt beam="1">  1        2 0.12366263E+00 0.76965272E+02</pdfrwt>
<pdfrwt beam="2">  1       -1 0.28344215E-03 0.76965272E+02</pdfrwt>
<totfact> 0.38020632E+05</totfact>
</mgrwt>
</event>
<event>
 8    1  0.1627221E-013  0.8097346E+02  0.7818608E-02  0.1326311E+00
          2   -1    0    0  501    0  0.00000000000E+00  0.00000000000E+00  0.36017254404E+02  0.36017254494E+02  0.25500000000E-02 0. -1.
         -1   -1    0    0    0  501 -0.00000000000E+00 -0.00000000000E+00 -0.45510828928E+02  0.45510829208E+02  0.50400000000E-02 0.  1.
         24    2    1    2    0    0  0.00000000000E+00  0.71054273576E-14 -0.94935745246E+01  0.81528083702E+02  0.80973455371E+02 0.  0.
         66    2    3    3    0    0  0.16865803925E+02 -0.33802912919E+02  0.98436657389E+01  0.39089512933E+02  0.20000005647E+01 0.  0.
        -13    1    3    3    0    0 -0.16865803925E+02  0.33802912919E+02 -0.19337240264E+02  0.42438570769E+02  0.10566000000E+00 0.  1.
         13    1    4    4    0    0  0.19478545097E+01 -0.42287878008E+01  0.10746922058E+01  0.47794257844E+01  0.10566000000E+00 0.  1.
        -13    1    4    4    0    0  0.51426405382E+01 -0.10634253182E+02  0.39757862691E+01  0.12464033574E+02  0.10566000000E+00 0. -1.
         14    1    4    4    0    0  0.97753088775E+01 -0.18939871936E+02  0.47931872640E+01  0.21846053574E+02  0.00000000000E+00 0. -1.
<mgrwt>
<rscale>  0 0.80973455E+02</rscale>
<asrwt>0</asrwt>
<pdfrwt beam="1">  1        2 0.55411161E-02 0.80973455E+02</pdfrwt>
<pdfrwt beam="2">  1       -1 0.70016661E-02 0.80973455E+02</pdfrwt>
<totfact> 0.13492727E+05</totfact>
</mgrwt>
</event>
<event>
 8    1  0.1627221E-013  0.8048577E+02  0.7818608E-02  0.1327679E+00
         -1   -1    0    0    0  501 -0.00000000000E+00  0.00000000000E+00  0.47543345446E+01  0.47543372160E+01  0.50400000000E-02 0.  1.
          2   -1    0    0  501    0  0.00000000000E+00 -0.00000000000E+00 -0.34063424667E+03  0.34063424667E+03  0.25500000000E-02 0. -1.
         24    2    1    2    0    0  0.00000000000E+00  0.00000000000E+00 -0.33587991212E+03  0.34538858389E+03  0.80485765921E+02 0.  0.
         66    2    3    3    0    0  0.20441262859E+02  0.17323246369E+02 -0.29674979483E+03  0.29796372401E+03  0.19999996042E+01 0.  0.
        -13    1    3    3    0    0 -0.20441262859E+02 -0.17323246369E+02 -0.39130117287E+02  0.47424859883E+02  0.10566000000E+00 0.  1.
         13    1    4    4    0    0  0.90241428312E+01  0.82436021793E+01 -0.13805514104E+03  0.13859518485E+03  0.10566000000E+00 0. -1.
        -13    1    4    4    0    0  0.23904203832E+00  0.12906743455E+00 -0.20360169670E+01  0.20567762698E+01  0.10566000000E+00 0. -1.
         14    1    4    4    0    0  0.11178077990E+02  0.89505767552E+01 -0.15665863682E+03  0.15731176289E+03  0.00000000000E+00 0. -1.
<mgrwt>
<rscale>  0 0.80485766E+02</rscale>
<asrwt>0</asrwt>
<pdfrwt beam="1">  1        2 0.52405250E-01 0.80485766E+02</pdfrwt>
<pdfrwt beam="2">  1       -1 0.73143656E-03 0.80485766E+02</pdfrwt>
<totfact> 0.26269665E+05</totfact>
</mgrwt>
</event>
<event>
 8    1  0.1627221E-013  0.8039705E+02  0.7818608E-02  0.1327928E+00
          2   -1    0    0  501    0  0.00000000000E+00  0.00000000000E+00  0.78633833579E+01  0.78633837714E+01  0.25500000000E-02 0. -1.
         -1   -1    0    0    0  501 -0.00000000000E+00 -0.00000000000E+00 -0.20549952059E+03  0.20549952065E+03  0.50400000000E-02 0.  1.
         24    2    1    2    0    0  0.00000000000E+00 -0.35527136788E-14 -0.19763613723E+03  0.21336290442E+03  0.80397053701E+02 0.  0.
         66    2    3    3    0    0 -0.34016575958E+02 -0.17684583147E+02 -0.67027737694E+02  0.77243702564E+02  0.20000111021E+01 0.  0.
        -13    1    3    3    0    0  0.34016575958E+02  0.17684583147E+02 -0.13060839954E+03  0.13611920186E+03  0.10566000000E+00 0.  1.
         13    1    4    4    0    0 -0.15379180920E+02 -0.79742541298E+01 -0.30870680021E+02  0.35399406545E+02  0.10566000000E+00 0. -1.
        -13    1    4    4    0    0 -0.18238047874E+02 -0.92870145065E+01 -0.35381946076E+02  0.40875032732E+02  0.10566000000E+00 0.  1.
        -14    1    4    4    0    0 -0.39934716293E+00 -0.42331451048E+00 -0.77511159703E+00  0.96926328681E+00  0.00000000000E+00 0.  1.
<mgrwt>
<rscale>  0 0.80397054E+02</rscale>
<asrwt>0</asrwt>
<pdfrwt beam="1">  1        2 0.12097515E-02 0.80397054E+02</pdfrwt>
<pdfrwt beam="2">  1       -1 0.31615307E-01 0.80397054E+02</pdfrwt>
<totfact> 0.97544636E+04</totfact>
</mgrwt>
</event>
<event>
 8    1  0.1627221E-013  0.8084383E+02  0.7818608E-02  0.1326674E+00
          2   -1    0    0  501    0  0.00000000000E+00  0.00000000000E+00  0.74739411513E+01  0.74739415863E+01  0.25500000000E-02 0. -1.
         -1   -1    0    0    0  501 -0.00000000000E+00 -0.00000000000E+00 -0.21861705491E+03  0.21861705497E+03  0.50400000000E-02 0.  1.
         24    2    1    2    0    0  0.00000000000E+00  0.00000000000E+00 -0.21114311376E+03  0.22609099656E+03  0.80843826204E+02 0.  0.
         66    2    3    3    0    0  0.75802644216E+00 -0.31773232089E+02 -0.35898486936E+02  0.47987646570E+02  0.19999943882E+01 0.  0.
        -13    1    3    3    0    0 -0.75802644216E+00  0.31773232089E+02 -0.17524462682E+03  0.17810334999E+03  0.10566000000E+00 0.  1.
         13    1    4    4    0    0  0.81818924811E+00 -0.99664422178E+01 -0.12055215867E+02  0.15663294601E+02  0.10566000000E+00 0. -1.
        -13    1    4    4    0    0  0.18666495826E+00 -0.14920706747E+01 -0.17624647800E+01  0.23191733099E+01  0.10566000000E+00 0.  1.
         14    1    4    4    0    0 -0.24682776421E+00 -0.20314719196E+02 -0.22080806289E+02  0.30005178659E+02  0.00000000000E+00 0. -1.
<mgrwt>
<rscale>  0 0.80843826E+02</rscale>
<asrwt>0</asrwt>
<pdfrwt beam="1">  1        2 0.11498373E-02 0.80843826E+02</pdfrwt>
<pdfrwt beam="2">  1       -1 0.33633388E-01 0.80843826E+02</pdfrwt>
<totfact> 0.94321328E+04</totfact>
</mgrwt>
</event>
<event>
 8    1  0.1627221E-013  0.8009715E+02  0.7818608E-02  0.1328776E+00
         -1   -1    0    0    0  501 -0.00000000000E+00  0.00000000000E+00  0.13902883637E+02  0.13902884551E+02  0.50400000000E-02 0.  1.
          2   -1    0    0  501    0  0.00000000000E+00 -0.00000000000E+00 -0.11536370408E+03  0.11536370411E+03  0.25500000000E-02 0. -1.
         24    2    1    2    0    0  0.88817841970E-15  0.35527136788E-14 -0.10146082045E+03  0.12926658866E+03  0.80097146383E+02 0.  0.
         66    2    3    3    0    0 -0.79860301070E+01 -0.26415143380E+02 -0.97546076809E+02  0.10139414961E+03  0.19999996294E+01 0.  0.
        -13    1    3    3    0    0  0.79860301070E+01  0.26415143380E+02 -0.39147436358E+01  0.27872439047E+02  0.10566000000E+00 0.  1.
         13    1    4    4    0    0 -0.54285200010E+01 -0.15953140360E+02 -0.56836938378E+02  0.59282545871E+02  0.10566000000E+00 0. -1.
        -13    1    4    4    0    0 -0.46730972208E+00 -0.25069854819E+01 -0.95880237307E+01  0.99219311467E+01  0.10566000000E+00 0.  1.
        -14    1    4    4    0    0 -0.20902003839E+01 -0.79550175377E+01 -0.31121114701E+02  0.32189672597E+02  0.00000000000E+00 0.  1.
<mgrwt>
<rscale>  0 0.80097146E+02</rscale>
<asrwt>0</asrwt>
<pdfrwt beam="1">  1        2 0.17748262E-01 0.80097146E+02</pdfrwt>
<pdfrwt beam="2">  1       -1 0.21389053E-02 0.80097146E+02</pdfrwt>
<totfact> 0.18409396E+05</totfact>
</mgrwt>
</event>
<event>
 8    1  0.1627221E-013  0.8105588E+02  0.7818608E-02  0.1326081E+00
          2   -1    0    0  501    0  0.00000000000E+00  0.00000000000E+00  0.32875928280E+03  0.32875928281E+03  0.25500000000E-02 0. -1.
         -1   -1    0    0    0  501 -0.00000000000E+00 -0.00000000000E+00 -0.49960971669E+01  0.49960997090E+01  0.50400000000E-02 0.  1.
         24    2    1    2    0    0  0.35527136788E-14  0.00000000000E+00  0.32376318563E+03  0.33375538252E+03  0.81055875722E+02 0.  0.
         66    2    3    3    0    0  0.13288553557E+02  0.97392458964E+01  0.31433484835E+03  0.31477267264E+03  0.19999974451E+01 0.  0.
        -13    1    3    3    0    0 -0.13288553557E+02 -0.97392458964E+01  0.94283372848E+01  0.18982709877E+02  0.10566000000E+00 0.  1.
         13    1    4    4    0    0  0.31966251707E+01  0.28253875148E+01  0.72051203090E+02  0.72177477497E+02  0.10566000000E+00 0. -1.
        -13    1    4    4    0    0  0.14480866846E+01  0.10407291971E+01  0.28062396751E+02  0.28119198918E+02  0.10566000000E+00 0.  1.
         14    1    4    4    0    0  0.86438417021E+01  0.58731291845E+01  0.21422124851E+03  0.21447599623E+03  0.00000000000E+00 0. -1.
<mgrwt>
<rscale>  0 0.81055876E+02</rscale>
<asrwt>0</asrwt>
<pdfrwt beam="1">  1        2 0.50578366E-01 0.81055876E+02</pdfrwt>
<pdfrwt beam="2">  1       -1 0.76863031E-03 0.81055876E+02</pdfrwt>
<totfact> 0.25461402E+05</totfact>
</mgrwt>
</event>
<event>
 8    1  0.1627221E-013  0.8111496E+02  0.7818608E-02  0.1325917E+00
         -1   -1    0    0    0  501 -0.00000000000E+00  0.00000000000E+00  0.68666554352E+01  0.68666572849E+01  0.50400000000E-02 0.  1.
          2   -1    0    0  501    0  0.00000000000E+00 -0.00000000000E+00 -0.23955021235E+03  0.23955021236E+03  0.25500000000E-02 0. -1.
         24    2    1    2    0    0  0.00000000000E+00  0.17763568394E-14 -0.23268355691E+03  0.24641686965E+03  0.81114955395E+02 0.  0.
         66    2    3    3    0    0  0.21253426194E+02 -0.72908214114E+01 -0.21889446029E+03  0.22005374101E+03  0.19999961029E+01 0.  0.
        -13    1    3    3    0    0 -0.21253426194E+02  0.72908214114E+01 -0.13789096622E+02  0.26363128637E+02  0.10566000000E+00 0.  1.
         13    1    4    4    0    0  0.91111549255E+00 -0.22352919729E+00 -0.10872846212E+02  0.10913754877E+02  0.10566000000E+00 0.  1.
        -13    1    4    4    0    0  0.75575574287E+01 -0.30328719420E+01 -0.71882087941E+02  0.72341970649E+02  0.10566000000E+00 0. -1.
         14    1    4    4    0    0  0.12784753273E+02 -0.40344202721E+01 -0.13613952614E+03  0.13679801548E+03  0.00000000000E+00 0. -1.
<mgrwt>
<rscale>  0 0.81114955E+02</rscale>
<asrwt>0</asrwt>
<pdfrwt beam="1">  1        2 0.36853873E-01 0.81114955E+02</pdfrwt>
<pdfrwt beam="2">  1       -1 0.10564089E-02 0.81114955E+02</pdfrwt>
<totfact> 0.22665718E+05</totfact>
</mgrwt>
</event>
<event>
 8    1  0.1627221E-013  0.8125492E+02  0.7818608E-02  0.1325527E+00
          2   -1    0    0  501    0  0.00000000000E+00  0.00000000000E+00  0.35484229989E+03  0.35484229990E+03  0.25500000000E-02 0. -1.
         -1   -1    0    0    0  501 -0.00000000000E+00 -0.00000000000E+00 -0.46516157771E+01  0.46516185075E+01  0.50400000000E-02 0.  1.
         24    2    1    2    0    0  0.00000000000E+00  0.00000000000E+00  0.35019068412E+03  0.35949391841E+03  0.81254920664E+02 0.  0.
         66    2    3    3    0    0  0.32492043573E+01  0.39870471534E+02  0.20597248247E+03  0.20983058730E+03  0.20000004728E+01 0.  0.
        -13    1    3    3    0    0 -0.32492043573E+01 -0.39870471534E+02  0.14421820164E+03  0.14966333111E+03  0.10566000000E+00 0.  1.
         13    1    4    4    0    0  0.12411062616E+01  0.16613682532E+02  0.86376490967E+02  0.87968540671E+02  0.10566000000E+00 0. -1.
        -13    1    4    4    0    0  0.15727357474E+00  0.70119386397E+01  0.33279267422E+02  0.34010481071E+02  0.10566000000E+00 0.  1.
         14    1    4    4    0    0  0.18508245209E+01  0.16244850363E+02  0.86316724085E+02  0.87851565561E+02  0.00000000000E+00 0. -1.
<mgrwt>
<rscale>  0 0.81254921E+02</rscale>
<asrwt>0</asrwt>
<pdfrwt beam="1">  1        2 0.54591119E-01 0.81254921E+02</pdfrwt>
<pdfrwt beam="2">  1       -1 0.71563346E-03 0.81254921E+02</pdfrwt>
<totfact> 0.26000599E+05</totfact>
</mgrwt>
</event>
<event>
 8    1  0.1627221E-013  0.7972048E+02  0.7818608E-02  0.1329847E+00
         -1   -1    0    0    0  501 -0.00000000000E+00  0.00000000000E+00  0.70592145421E+01  0.70592163413E+01  0.50400000000E-02 0.  1.
          2   -1    0    0  501    0  0.00000000000E+00 -0.00000000000E+00 -0.22507299074E+03  0.22507299076E+03  0.25500000000E-02 0. -1.
         24    2    1    2    0    0 -0.35527136788E-14  0.00000000000E+00 -0.21801377620E+03  0.23213220710E+03  0.79720480174E+02 0.  0.
         66    2    3    3    0    0 -0.20396935644E+02 -0.34201359412E+02 -0.10606916831E+03  0.11331564946E+03  0.19999943110E+01 0.  0.
        -13    1    3    3    0    0  0.20396935644E+02  0.34201359412E+02 -0.11194460789E+03  0.11881655764E+03  0.10566000000E+00 0.  1.
         13    1    4    4    0    0 -0.74429903650E+01 -0.12893845730E+02 -0.41681737878E+02  0.44260905999E+02  0.10566000000E+00 0. -1.
        -13    1    4    4    0    0 -0.40466051986E+01 -0.65301690791E+01 -0.21098389905E+02  0.22453760096E+02  0.10566000000E+00 0.  1.
        -14    1    4    4    0    0 -0.89073400800E+01 -0.14777344603E+02 -0.43289040529E+02  0.46600983367E+02  0.00000000000E+00 0.  1.
<mgrwt>
<rscale>  0 0.79720480E+02</rscale>
<asrwt>0</asrwt>
<pdfrwt beam="1">  1        2 0.34626609E-01 0.79720480E+02</pdfrwt>
<pdfrwt beam="2">  1       -1 0.10860333E-02 0.79720480E+02</pdfrwt>
<totfact> 0.23204597E+05</totfact>
</mgrwt>
</event>
<event>
 8    1  0.1627221E-013  0.8261013E+02  0.7818608E-02  0.1321803E+00
         -1   -1    0    0    0  501 -0.00000000000E+00  0.00000000000E+00  0.15575131861E+02  0.15575132676E+02  0.50400000000E-02 0.  1.
          2   -1    0    0  501    0  0.00000000000E+00 -0.00000000000E+00 -0.10954054325E+03  0.10954054328E+03  0.25500000000E-02 0. -1.
         24    2    1    2    0    0 -0.35527136788E-14  0.00000000000E+00 -0.93965411393E+02  0.12511567596E+03  0.82610131538E+02 0.  0.
         66    2    3    3    0    0 -0.26577152946E+02  0.21245006171E+02 -0.82412915599E+02  0.89182868263E+02  0.19999970396E+01 0.  0.
        -13    1    3    3    0    0  0.26577152946E+02 -0.21245006171E+02 -0.11552495795E+02  0.35932807698E+02  0.10566000000E+00 0.  1.
         13    1    4    4    0    0 -0.66035032294E+01  0.58441015315E+01 -0.21467980190E+02  0.23208729286E+02  0.10566000000E+00 0. -1.
        -13    1    4    4    0    0 -0.85353664522E+01  0.74130153511E+01 -0.28090802152E+02  0.30280515297E+02  0.10566000000E+00 0.  1.
        -14    1    4    4    0    0 -0.11438283264E+02  0.79878892881E+01 -0.32854133257E+02  0.35693623680E+02  0.00000000000E+00 0.  1.
<mgrwt>
<rscale>  0 0.82610132E+02</rscale>
<asrwt>0</asrwt>
<pdfrwt beam="1">  1        2 0.16852391E-01 0.82610132E+02</pdfrwt>
<pdfrwt beam="2">  1       -1 0.23961743E-02 0.82610132E+02</pdfrwt>
<totfact> 0.16693109E+05</totfact>
</mgrwt>
</event>
<event>
 8    1  0.1627221E-013  0.7932096E+02  0.7818608E-02  0.1330990E+00
          2   -1    0    0  501    0  0.00000000000E+00  0.00000000000E+00  0.46272637967E+03  0.46272637968E+03  0.25500000000E-02 0. -1.
         -1   -1    0    0    0  501 -0.00000000000E+00 -0.00000000000E+00 -0.33993152654E+01  0.33993190017E+01  0.50400000000E-02 0.  1.
         24    2    1    2    0    0 -0.35527136788E-14 -0.35527136788E-14  0.45932706441E+03  0.46612569868E+03  0.79320961127E+02 0.  0.
         66    2    3    3    0    0 -0.21333525652E+02 -0.25926039833E+02  0.35358759049E+03  0.35518370317E+03  0.19999989204E+01 0.  0.
        -13    1    3    3    0    0  0.21333525652E+02  0.25926039833E+02  0.10573947392E+03  0.11094199551E+03  0.10566000000E+00 0.  1.
         13    1    4    4    0    0 -0.11548260621E+02 -0.15469410102E+02  0.20054023219E+03  0.20146726996E+03  0.10566000000E+00 0. -1.
        -13    1    4    4    0    0 -0.37082164854E+01 -0.37134152761E+01  0.56038904589E+02  0.56284192400E+02  0.10566000000E+00 0.  1.
         14    1    4    4    0    0 -0.60770485456E+01 -0.67432144553E+01  0.97008453702E+02  0.97432240813E+02  0.00000000000E+00 0. -1.
<mgrwt>
<rscale>  0 0.79320961E+02</rscale>
<asrwt>0</asrwt>
<pdfrwt beam="1">  1        2 0.71188657E-01 0.79320961E+02</pdfrwt>
<pdfrwt beam="2">  1       -1 0.52297199E-03 0.79320961E+02</pdfrwt>
<totfact> 0.30360764E+05</totfact>
</mgrwt>
</event>
<event>
 8    1  0.1627221E-013  0.7856827E+02  0.7818608E-02  0.1333164E+00
          2   -1    0    0  501    0  0.00000000000E+00  0.00000000000E+00  0.21722476984E+02  0.21722477134E+02  0.25500000000E-02 0. -1.
         -1   -1    0    0    0  501 -0.00000000000E+00 -0.00000000000E+00 -0.71043606035E+02  0.71043606214E+02  0.50400000000E-02 0.  1.
         24    2    1    2    0    0  0.00000000000E+00  0.00000000000E+00 -0.49321129051E+02  0.92766083348E+02  0.78568266169E+02 0.  0.
         66    2    3    3    0    0  0.28182251771E+02  0.18889441235E+02 -0.13537939618E+01  0.34012983816E+02  0.20000012243E+01 0.  0.
        -13    1    3    3    0    0 -0.28182251771E+02 -0.18889441235E+02 -0.47967335089E+02  0.58753099532E+02  0.10566000000E+00 0.  1.
         13    1    4    4    0    0  0.14120839019E+02  0.86447983838E+01 -0.18467360395E+00  0.16558257821E+02  0.10566000000E+00 0. -1.
        -13    1    4    4    0    0  0.39004129769E+01  0.24272351772E+01 -0.33692557109E+00  0.46075345763E+01  0.10566000000E+00 0.  1.
         14    1    4    4    0    0  0.10160999775E+02  0.78174076743E+01 -0.83219478678E+00  0.12847191418E+02  0.00000000000E+00 0. -1.
<mgrwt>
<rscale>  0 0.78568266E+02</rscale>
<asrwt>0</asrwt>
<pdfrwt beam="1">  1        2 0.33419196E-02 0.78568266E+02</pdfrwt>
<pdfrwt beam="2">  1       -1 0.10929785E-01 0.78568266E+02</pdfrwt>
<totfact> 0.13290615E+05</totfact>
</mgrwt>
</event>
<event>
 8    1  0.1627221E-013  0.8506592E+02  0.7818608E-02  0.1315260E+00
         -1   -1    0    0    0  501 -0.00000000000E+00  0.00000000000E+00  0.53053308555E+02  0.53053308794E+02  0.50400000000E-02 0.  1.
          2   -1    0    0  501    0  0.00000000000E+00 -0.00000000000E+00 -0.34098773808E+02  0.34098773904E+02  0.25500000000E-02 0. -1.
         24    2    1    2    0    0  0.17763568394E-14  0.35527136788E-14  0.18954534746E+02  0.87152082698E+02  0.85065922267E+02 0.  0.
         66    2    3    3    0    0 -0.91207321020E+01 -0.27719371182E+02 -0.22186679453E+02  0.36712396312E+02  0.20000012498E+01 0.  0.
        -13    1    3    3    0    0  0.91207321020E+01  0.27719371182E+02  0.41141214200E+02  0.50439686386E+02  0.10566000000E+00 0.  1.
         13    1    4    4    0    0 -0.70750007252E+00 -0.21020170314E+01 -0.23055147890E+01  0.32008740105E+01  0.10566000000E+00 0. -1.
        -13    1    4    4    0    0 -0.29444517411E+01 -0.10186151953E+02 -0.80010317296E+01  0.13283642589E+02  0.10566000000E+00 0.  1.
         14    1    4    4    0    0 -0.54687802884E+01 -0.15431202198E+02 -0.11880132935E+02  0.20227879712E+02  0.00000000000E+00 0. -1.
<mgrwt>
<rscale>  0 0.85065922E+02</rscale>
<asrwt>0</asrwt>
<pdfrwt beam="1">  1        2 0.52459653E-02 0.85065922E+02</pdfrwt>
<pdfrwt beam="2">  1       -1 0.81620474E-02 0.85065922E+02</pdfrwt>
<totfact> 0.11622329E+05</totfact>
</mgrwt>
</event>
<event>
 8    1  0.1627221E-013  0.8076591E+02  0.7818608E-02  0.1326892E+00
          2   -1    0    0  501    0  0.00000000000E+00  0.00000000000E+00  0.39238107238E+01  0.39238115524E+01  0.25500000000E-02 0. -1.
         -1   -1    0    0    0  501 -0.00000000000E+00 -0.00000000000E+00 -0.41561197357E+03  0.41561197360E+03  0.50400000000E-02 0.  1.
         24    2    1    2    0    0  0.00000000000E+00  0.35527136788E-14 -0.41168816284E+03  0.41953578515E+03  0.80765906150E+02 0.  0.
         66    2    3    3    0    0 -0.36812531423E+02 -0.16043053664E+02 -0.18503948921E+03  0.18935721433E+03  0.20000028448E+01 0.  0.
        -13    1    3    3    0    0  0.36812531423E+02  0.16043053664E+02 -0.22664867363E+03  0.23017857082E+03  0.10566000000E+00 0.  1.
         13    1    4    4    0    0 -0.86672386822E+01 -0.31000389982E+01 -0.41020418598E+02  0.42040660962E+02  0.10566000000E+00 0. -1.
        -13    1    4    4    0    0 -0.65336186011E+01 -0.25709527911E+01 -0.33117806717E+02  0.33854072961E+02  0.10566000000E+00 0.  1.
         14    1    4    4    0    0 -0.21611674140E+02 -0.10372061874E+02 -0.11090126390E+03  0.11346248041E+03  0.00000000000E+00 0. -1.
<mgrwt>
<rscale>  0 0.80765906E+02</rscale>
<asrwt>0</asrwt>
<pdfrwt beam="1">  1        2 0.60366358E-03 0.80765906E+02</pdfrwt>
<pdfrwt beam="2">  1       -1 0.63940269E-01 0.80765906E+02</pdfrwt>
<totfact> 0.72495859E+04</totfact>
</mgrwt>
</event>
<event>
 8    1  0.1627221E-013  0.8000744E+02  0.7818608E-02  0.1329030E+00
         -1   -1    0    0    0  501 -0.00000000000E+00  0.00000000000E+00  0.26469612163E+01  0.26469660145E+01  0.50400000000E-02 0.  1.
          2   -1    0    0  501    0  0.00000000000E+00 -0.00000000000E+00 -0.60457858990E+03  0.60457858990E+03  0.25500000000E-02 0. -1.
         24    2    1    2    0    0  0.35527136788E-14  0.00000000000E+00 -0.60193162868E+03  0.60722555592E+03  0.80007438107E+02 0.  0.
         66    2    3    3    0    0  0.24552647776E+02 -0.18242381909E+02 -0.49652888245E+03  0.49747416828E+03  0.19999978965E+01 0.  0.
        -13    1    3    3    0    0 -0.24552647776E+02  0.18242381909E+02 -0.10540274623E+03  0.10975138763E+03  0.10566000000E+00 0.  1.
         13    1    4    4    0    0  0.98651522026E+01 -0.67813867102E+01 -0.19367492985E+03  0.19404457748E+03  0.10566000000E+00 0. -1.
        -13    1    4    4    0    0  0.28044834572E+00 -0.56135235978E-01 -0.55096157804E+01  0.55180460783E+01  0.10566000000E+00 0.  1.
        -14    1    4    4    0    0  0.14407047227E+02 -0.11404859963E+02 -0.29734433682E+03  0.29791154472E+03  0.00000000000E+00 0.  1.
<mgrwt>
<rscale>  0 0.80007438E+02</rscale>
<asrwt>0</asrwt>
<pdfrwt beam="1">  1        2 0.93011981E-01 0.80007438E+02</pdfrwt>
<pdfrwt beam="2">  1       -1 0.40722566E-03 0.80007438E+02</pdfrwt>
<totfact> 0.32223579E+05</totfact>
</mgrwt>
</event>
<event>
 8    1  0.1627221E-013  0.8025645E+02  0.7818608E-02  0.1328325E+00
          2   -1    0    0  501    0  0.00000000000E+00  0.00000000000E+00  0.73097221139E+02  0.73097221184E+02  0.25500000000E-02 0. -1.
         -1   -1    0    0    0  501 -0.00000000000E+00 -0.00000000000E+00 -0.22029215162E+02  0.22029215739E+02  0.50400000000E-02 0.  1.
         24    2    1    2    0    0  0.00000000000E+00 -0.35527136788E-14  0.51068005977E+02  0.95126436922E+02  0.80256450003E+02 0.  0.
         66    2    3    3    0    0 -0.11606647871E+02  0.23382942464E+02  0.61633652181E+02  0.66964045035E+02  0.19999933150E+01 0.  0.
        -13    1    3    3    0    0  0.11606647871E+02 -0.23382942464E+02 -0.10565646204E+02  0.28162391887E+02  0.10566000000E+00 0.  1.
         13    1    4    4    0    0 -0.12625641171E+01  0.33652397190E+01  0.82298924181E+01  0.89811580415E+01  0.10566000000E+00 0. -1.
        -13    1    4    4    0    0 -0.38781512828E+01  0.85933471614E+01  0.20894878853E+02  0.22923629711E+02  0.10566000000E+00 0.  1.
         14    1    4    4    0    0 -0.64659324709E+01  0.11424355583E+02  0.32508880910E+02  0.35059257283E+02  0.00000000000E+00 0. -1.
<mgrwt>
<rscale>  0 0.80256450E+02</rscale>
<asrwt>0</asrwt>
<pdfrwt beam="1">  1        2 0.11245726E-01 0.80256450E+02</pdfrwt>
<pdfrwt beam="2">  1       -1 0.33891102E-02 0.80256450E+02</pdfrwt>
<totfact> 0.16178925E+05</totfact>
</mgrwt>
</event>
<event>
 8    1  0.1627221E-013  0.7955284E+02  0.7818608E-02  0.1330325E+00
          2   -1    0    0  501    0  0.00000000000E+00  0.00000000000E+00  0.29308717989E+03  0.29308717990E+03  0.25500000000E-02 0. -1.
         -1   -1    0    0    0  501 -0.00000000000E+00 -0.00000000000E+00 -0.53982689847E+01  0.53982713374E+01  0.50400000000E-02 0.  1.
         24    2    1    2    0    0  0.00000000000E+00  0.71054273576E-14  0.28768891091E+03  0.29848545124E+03  0.79552844973E+02 0.  0.
         66    2    3    3    0    0  0.19355222180E+01 -0.38191716764E+02  0.18465907520E+03  0.18858771839E+03  0.19999995788E+01 0.  0.
        -13    1    3    3    0    0 -0.19355222180E+01  0.38191716764E+02  0.10302983570E+03  0.10989773285E+03  0.10566000000E+00 0.  1.
         13    1    4    4    0    0  0.12436620123E+01 -0.15460177909E+02  0.76977326267E+02  0.78524414798E+02  0.10566000000E+00 0. -1.
        -13    1    4    4    0    0  0.89716331142E+00 -0.10549556818E+02  0.50347748291E+02  0.51449052208E+02  0.10566000000E+00 0.  1.
        -14    1    4    4    0    0 -0.20530310578E+00 -0.12181982038E+02  0.57334000646E+02  0.58614251389E+02  0.00000000000E+00 0.  1.
<mgrwt>
<rscale>  0 0.79552845E+02</rscale>
<asrwt>0</asrwt>
<pdfrwt beam="1">  1        2 0.45090355E-01 0.79552845E+02</pdfrwt>
<pdfrwt beam="2">  1       -1 0.83050275E-03 0.79552845E+02</pdfrwt>
<totfact> 0.25654412E+05</totfact>
</mgrwt>
</event>
<event>
 8    1  0.1627221E-013  0.8025194E+02  0.7818608E-02  0.1328338E+00
          2   -1    0    0  501    0  0.00000000000E+00  0.00000000000E+00  0.40863950743E+03  0.40863950744E+03  0.25500000000E-02 0. -1.
         -1   -1    0    0    0  501 -0.00000000000E+00 -0.00000000000E+00 -0.39401298396E+01  0.39401330631E+01  0.50400000000E-02 0.  1.
         24    2    1    2    0    0 -0.71054273576E-14  0.00000000000E+00  0.40469937759E+03  0.41257964050E+03  0.80251937883E+02 0.  0.
         66    2    3    3    0    0  0.34571797967E+02  0.73754356467E+01  0.29981382417E+03  0.30189722661E+03  0.20000005324E+01 0.  0.
        -13    1    3    3    0    0 -0.34571797967E+02 -0.73754356467E+01  0.10488555342E+03  0.11068241389E+03  0.10566000000E+00 0.  1.
         13    1    4    4    0    0  0.19793236589E+02  0.40293320725E+01  0.16323633325E+03  0.16448136487E+03  0.10566000000E+00 0. -1.
        -13    1    4    4    0    0  0.78772577023E+01  0.16370418091E+01  0.72745310001E+02  0.73188949889E+02  0.10566000000E+00 0.  1.
         14    1    4    4    0    0  0.69013036762E+01  0.17090617651E+01  0.63832180925E+02  0.64226911853E+02  0.00000000000E+00 0. -1.
<mgrwt>
<rscale>  0 0.80251938E+02</rscale>
<asrwt>0</asrwt>
<pdfrwt beam="1">  1        2 0.62867656E-01 0.80251938E+02</pdfrwt>
<pdfrwt beam="2">  1       -1 0.60617369E-03 0.80251938E+02</pdfrwt>
<totfact> 0.28231982E+05</totfact>
</mgrwt>
</event>
<event>
 8    1  0.1627221E-013  0.7832326E+02  0.7818608E-02  0.1333878E+00
          2   -1    0    0  501    0  0.00000000000E+00  0.00000000000E+00  0.11160539989E+04  0.11160539989E+04  0.25500000000E-02 0. -1.
         -1   -1    0    0    0  501 -0.00000000000E+00 -0.00000000000E+00 -0.13741523327E+01  0.13741615753E+01  0.50400000000E-02 0.  1.
         24    2    1    2    0    0 -0.88817841970E-15 -0.35527136788E-14  0.11146798466E+04  0.11174281605E+04  0.78323262742E+02 0.  0.
         66    2    3    3    0    0  0.45078776262E+01  0.21778915939E+02  0.10171280886E+04  0.10173731817E+04  0.19999992888E+01 0.  0.
        -13    1    3    3    0    0 -0.45078776262E+01 -0.21778915939E+02  0.97551757956E+02  0.10005497881E+03  0.10566000000E+00 0.  1.
         13    1    4    4    0    0  0.21325714356E+01  0.76390119203E+01  0.33528764049E+03  0.33538144760E+03  0.10566000000E+00 0.  1.
        -13    1    4    4    0    0  0.12360594679E+01  0.58724205219E+01  0.26923596000E+03  0.26930285273E+03  0.10566000000E+00 0. -1.
        -14    1    4    4    0    0  0.11392467228E+01  0.82674834969E+01  0.41260448810E+03  0.41268888133E+03  0.00000000000E+00 0.  1.
<mgrwt>
<rscale>  0 0.78323263E+02</rscale>
<asrwt>0</asrwt>
<pdfrwt beam="1">  1        2 0.17170132E+00 0.78323263E+02</pdfrwt>
<pdfrwt beam="2">  1       -1 0.21140789E-03 0.78323263E+02</pdfrwt>
<totfact> 0.37222086E+05</totfact>
</mgrwt>
</event>
<event>
 8    1  0.1627221E-013  0.7955698E+02  0.7818608E-02  0.1330313E+00
          2   -1    0    0  501    0  0.00000000000E+00  0.00000000000E+00  0.21374526877E+03  0.21374526878E+03  0.25500000000E-02 0. -1.
         -1   -1    0    0    0  501 -0.00000000000E+00 -0.00000000000E+00 -0.74028674487E+01  0.74028691644E+01  0.50400000000E-02 0.  1.
         24    2    1    2    0    0  0.00000000000E+00  0.00000000000E+00  0.20634240132E+03  0.22114813794E+03  0.79556975404E+02 0.  0.
         66    2    3    3    0    0 -0.32426338380E+02  0.22383013228E+01  0.16685813361E+03  0.17000621802E+03  0.19999998200E+01 0.  0.
        -13    1    3    3    0    0  0.32426338380E+02 -0.22383013228E+01  0.39484267708E+02  0.51141919929E+02  0.10566000000E+00 0.  1.
         13    1    4    4    0    0 -0.27918336691E+02  0.17642683908E+01  0.14182248261E+03  0.14455508951E+03  0.10566000000E+00 0. -1.
        -13    1    4    4    0    0 -0.37481483700E+01  0.30025459723E+00  0.21854890155E+02  0.22176252090E+02  0.10566000000E+00 0.  1.
         14    1    4    4    0    0 -0.75985331873E+00  0.17377833480E+00  0.31807608439E+01  0.32748764132E+01  0.00000000000E+00 0. -1.
<mgrwt>
<rscale>  0 0.79556975E+02</rscale>
<asrwt>0</asrwt>
<pdfrwt beam="1">  1        2 0.32883886E-01 0.79556975E+02</pdfrwt>
<pdfrwt beam="2">  1       -1 0.11389029E-02 0.79556975E+02</pdfrwt>
<totfact> 0.22909542E+05</totfact>
</mgrwt>
</event>
<event>
 8    1  0.1987760E-013  0.7757458E+02  0.7818608E-02  0.1336079E+00
          2   -1    0    0  501    0  0.00000000000E+00  0.00000000000E+00  0.85276011357E+03  0.85276011357E+03  0.25500000000E-02 0. -1.
         -1   -1    0    0    0  501 -0.00000000000E+00 -0.00000000000E+00 -0.17642135453E+01  0.17642207445E+01  0.50400000000E-02 0.  1.
         24    2    1    2    0    0  0.17763568394E-14  0.00000000000E+00  0.85099590002E+03  0.85452433431E+03  0.77574584003E+02 0.  0.
         66    2    3    3    0    0  0.15031371965E+02 -0.72086308922E+00  0.81926496445E+03  0.81940560394E+03  0.20000022736E+01 0.  0.
        -13    1    3    3    0    0 -0.15031371965E+02  0.72086308922E+00  0.31730935571E+02  0.35118730373E+02  0.10566000000E+00 0.  1.
         13    1    4    4    0    0  0.75899848923E+01 -0.39550631804E-01  0.43009400616E+03  0.43016098700E+03  0.10566000000E+00 0. -1.
        -13    1    4    4    0    0  0.66313397823E+01 -0.71279507372E+00  0.36241705389E+03  0.36247843365E+03  0.10566000000E+00 0.  1.
        -14    1    4    4    0    0  0.81004729078E+00  0.31482616305E-01  0.26753904397E+02  0.26766183296E+02  0.00000000000E+00 0.  1.
<mgrwt>
<rscale>  0 0.77574584E+02</rscale>
<asrwt>0</asrwt>
<pdfrwt beam="1">  1        2 0.13119337E+00 0.77574584E+02</pdfrwt>
<pdfrwt beam="2">  1       -1 0.27141905E-03 0.77574584E+02</pdfrwt>
<totfact> 0.37595717E+05</totfact>
</mgrwt>
</event>
<event>
 8    1  0.1627221E-013  0.7882258E+02  0.7818608E-02  0.1332426E+00
         -1   -1    0    0    0  501 -0.00000000000E+00  0.00000000000E+00  0.36445936186E+03  0.36445936189E+03  0.50400000000E-02 0.  1.
          2   -1    0    0  501    0  0.00000000000E+00 -0.00000000000E+00 -0.42617911720E+01  0.42617919349E+01  0.25500000000E-02 0. -1.
         24    2    1    2    0    0  0.55511151231E-16  0.00000000000E+00  0.36019757068E+03  0.36872115382E+03  0.78822581485E+02 0.  0.
         66    2    3    3    0    0 -0.44226505574E+00  0.36780225666E+02  0.24608168318E+03  0.24882358277E+03  0.19999877674E+01 0.  0.
        -13    1    3    3    0    0  0.44226505574E+00 -0.36780225666E+02  0.11411588751E+03  0.11989757105E+03  0.10566000000E+00 0.  1.
         13    1    4    4    0    0  0.37807920471E+00  0.22057255963E+02  0.15143368669E+03  0.15303214732E+03  0.10566000000E+00 0. -1.
        -13    1    4    4    0    0 -0.84819854933E+00  0.12281065175E+02  0.79763847378E+02  0.80708280338E+02  0.10566000000E+00 0.  1.
         14    1    4    4    0    0  0.27854288892E-01  0.24419045278E+01  0.14884149109E+02  0.15083155117E+02  0.00000000000E+00 0. -1.
<mgrwt>
<rscale>  0 0.78822581E+02</rscale>
<asrwt>0</asrwt>
<pdfrwt beam="1">  1        2 0.65566028E-03 0.78822581E+02</pdfrwt>
<pdfrwt beam="2">  1       -1 0.56070668E-01 0.78822581E+02</pdfrwt>
<totfact> 0.82446848E+04</totfact>
</mgrwt>
</event>
<event>
 8    1  0.1627221E-013  0.8115837E+02  0.7818608E-02  0.1325796E+00
          2   -1    0    0  501    0  0.00000000000E+00  0.00000000000E+00  0.31272644667E+03  0.31272644668E+03  0.25500000000E-02 0. -1.
         -1   -1    0    0    0  501 -0.00000000000E+00 -0.00000000000E+00 -0.52655274530E+01  0.52655298651E+01  0.50400000000E-02 0.  1.
         24    2    1    2    0    0  0.00000000000E+00  0.00000000000E+00  0.30746091922E+03  0.31799197654E+03  0.81158365567E+02 0.  0.
         66    2    3    3    0    0  0.17249846311E+02 -0.17028250426E+02  0.28121799825E+03  0.28226774702E+03  0.19999892593E+01 0.  0.
        -13    1    3    3    0    0 -0.17249846311E+02  0.17028250426E+02  0.26242920966E+02  0.35724229525E+02  0.10566000000E+00 0.  1.
         13    1    4    4    0    0  0.11374831842E+02 -0.10978914688E+02  0.17682785931E+03  0.17753316975E+03  0.10566000000E+00 0. -1.
        -13    1    4    4    0    0  0.58639649087E+01 -0.58552176625E+01  0.10249071239E+03  0.10282522526E+03  0.10566000000E+00 0.  1.
        -14    1    4    4    0    0  0.11049560640E-01 -0.19411807572E+00  0.18994265430E+01  0.19093520137E+01  0.00000000000E+00 0.  1.
<mgrwt>
<rscale>  0 0.81158366E+02</rscale>
<asrwt>0</asrwt>
<pdfrwt beam="1">  1        2 0.48111784E-01 0.81158366E+02</pdfrwt>
<pdfrwt beam="2">  1       -1 0.81008095E-03 0.81158366E+02</pdfrwt>
<totfact> 0.24923094E+05</totfact>
</mgrwt>
</event>
<event>
 8    1  0.1627221E-013  0.8070486E+02  0.7818608E-02  0.1327063E+00
         -1   -1    0    0    0  501 -0.00000000000E+00  0.00000000000E+00  0.27543965589E+01  0.27544011700E+01  0.50400000000E-02 0.  1.
          2   -1    0    0  501    0  0.00000000000E+00 -0.00000000000E+00 -0.59117022081E+03  0.59117022082E+03  0.25500000000E-02 0. -1.
         24    2    1    2    0    0  0.00000000000E+00  0.00000000000E+00 -0.58841582425E+03  0.59392462199E+03  0.80704859652E+02 0.  0.
         66    2    3    3    0    0  0.12418844351E+02  0.26772708894E+02 -0.49664048869E+03  0.49752063338E+03  0.20000005304E+01 0.  0.
        -13    1    3    3    0    0 -0.12418844351E+02 -0.26772708894E+02 -0.91775335567E+02  0.96403988605E+02  0.10566000000E+00 0.  1.
         13    1    4    4    0    0  0.80668671875E+01  0.17275583480E+02 -0.31306297441E+03  0.31364304112E+03  0.10566000000E+00 0. -1.
        -13    1    4    4    0    0  0.13399289402E+00  0.12614466907E+00 -0.51694687590E+01  0.51738223645E+01  0.10566000000E+00 0. -1.
        -14    1    4    4    0    0  0.42179842691E+01  0.93709807453E+01 -0.17840804552E+03  0.17870376990E+03  0.00000000000E+00 0.  1.
<mgrwt>
<rscale>  0 0.80704860E+02</rscale>
<asrwt>0</asrwt>
<pdfrwt beam="1">  1        2 0.90949164E-01 0.80704860E+02</pdfrwt>
<pdfrwt beam="2">  1       -1 0.42375414E-03 0.80704860E+02</pdfrwt>
<totfact> 0.31306875E+05</totfact>
</mgrwt>
</event>
<event>
 8    1  0.1627221E-013  0.7928801E+02  0.7818608E-02  0.1331084E+00
          2   -1    0    0  501    0  0.00000000000E+00  0.00000000000E+00  0.39550239388E+03  0.39550239389E+03  0.25500000000E-02 0. -1.
         -1   -1    0    0    0  501 -0.00000000000E+00 -0.00000000000E+00 -0.39737973821E+01  0.39738005782E+01  0.50400000000E-02 0.  1.
         24    2    1    2    0    0  0.00000000000E+00  0.00000000000E+00  0.39152859650E+03  0.39947619447E+03  0.79288007099E+02 0.  0.
         66    2    3    3    0    0 -0.28210459590E+02  0.24067499848E+01  0.33551555707E+03  0.33671399067E+03  0.19999997662E+01 0.  0.
        -13    1    3    3    0    0  0.28210459590E+02 -0.24067499848E+01  0.56013039425E+02  0.62762203797E+02  0.10566000000E+00 0.  1.
         13    1    4    4    0    0 -0.52051635500E+01  0.84561088110E+00  0.66447009669E+02  0.66656020309E+02  0.10566000000E+00 0. -1.
        -13    1    4    4    0    0 -0.11882407347E+01 -0.19093467698E+00  0.13658427496E+02  0.13711753272E+02  0.10566000000E+00 0.  1.
         14    1    4    4    0    0 -0.21817055305E+02  0.17520737807E+01  0.25541011991E+03  0.25634621709E+03  0.00000000000E+00 0. -1.
<mgrwt>
<rscale>  0 0.79288007E+02</rscale>
<asrwt>0</asrwt>
<pdfrwt beam="1">  1        2 0.60846528E-01 0.79288007E+02</pdfrwt>
<pdfrwt beam="2">  1       -1 0.61135363E-03 0.79288007E+02</pdfrwt>
<totfact> 0.28806705E+05</totfact>
</mgrwt>
</event>
<event>
 8    1  0.1627221E-013  0.8067217E+02  0.7818608E-02  0.1327155E+00
         -1   -1    0    0    0  501 -0.00000000000E+00  0.00000000000E+00  0.22607536312E+01  0.22607592491E+01  0.50400000000E-02 0.  1.
          2   -1    0    0  501    0  0.00000000000E+00 -0.00000000000E+00 -0.71967046039E+03  0.71967046040E+03  0.25500000000E-02 0. -1.
         24    2    1    2    0    0 -0.17763568394E-14 -0.35527136788E-14 -0.71740970676E+03  0.72193121965E+03  0.80672167099E+02 0.  0.
         66    2    3    3    0    0 -0.95536774815E+01 -0.22690933185E+02 -0.64456918516E+03  0.64504231308E+03  0.19999997996E+01 0.  0.
        -13    1    3    3    0    0  0.95536774815E+01  0.22690933185E+02 -0.72840521599E+02  0.76888906567E+02  0.10566000000E+00 0.  1.
         13    1    4    4    0    0 -0.47489840346E+01 -0.11213325599E+02 -0.32998509298E+03  0.33020972771E+03  0.10566000000E+00 0. -1.
        -13    1    4    4    0    0 -0.40816940341E+01 -0.88331808442E+01 -0.25451987960E+03  0.25470584128E+03  0.10566000000E+00 0.  1.
        -14    1    4    4    0    0 -0.72299941276E+00 -0.26444267421E+01 -0.60064212583E+02  0.60126744085E+02  0.00000000000E+00 0.  1.
<mgrwt>
<rscale>  0 0.80672167E+02</rscale>
<asrwt>0</asrwt>
<pdfrwt beam="1">  1        2 0.11071835E+00 0.80672167E+02</pdfrwt>
<pdfrwt beam="2">  1       -1 0.34780926E-03 0.80672167E+02</pdfrwt>
<totfact> 0.32935254E+05</totfact>
</mgrwt>
</event>
<event>
 8    1  0.1627221E-013  0.8268304E+02  0.7818608E-02  0.1321605E+00
          2   -1    0    0  501    0  0.00000000000E+00  0.00000000000E+00  0.45406493842E+02  0.45406493913E+02  0.25500000000E-02 0. -1.
         -1   -1    0    0    0  501 -0.00000000000E+00 -0.00000000000E+00 -0.37640456959E+02  0.37640457297E+02  0.50400000000E-02 0.  1.
         24    2    1    2    0    0  0.71054273576E-14  0.00000000000E+00  0.77660368825E+01  0.83046951210E+02  0.82683038021E+02 0.  0.
         66    2    3    3    0    0 -0.37325052343E+02  0.91502332976E+01  0.19125394764E+02  0.42972863856E+02  0.20000003255E+01 0.  0.
        -13    1    3    3    0    0  0.37325052343E+02 -0.91502332976E+01 -0.11359357881E+02  0.40074087355E+02  0.10566000000E+00 0.  1.
         13    1    4    4    0    0 -0.13732566712E+02  0.31043505438E+01  0.78575992211E+01  0.16123690966E+02  0.10566000000E+00 0. -1.
        -13    1    4    4    0    0 -0.38404506681E+01  0.12788291273E+01  0.17426463332E+01  0.44082247617E+01  0.10566000000E+00 0.  1.
         14    1    4    4    0    0 -0.19752034962E+02  0.47670536265E+01  0.95251492094E+01  0.22440948128E+02  0.00000000000E+00 0. -1.
<mgrwt>
<rscale>  0 0.82683038E+02</rscale>
<asrwt>0</asrwt>
<pdfrwt beam="1">  1        2 0.69856144E-02 0.82683038E+02</pdfrwt>
<pdfrwt beam="2">  1       -1 0.57908396E-02 0.82683038E+02</pdfrwt>
<totfact> 0.13364867E+05</totfact>
</mgrwt>
</event>
<event>
 8    1  0.1627221E-013  0.7885730E+02  0.7818608E-02  0.1332326E+00
          2   -1    0    0  501    0  0.00000000000E+00  0.00000000000E+00  0.34329825277E+02  0.34329825371E+02  0.25500000000E-02 0. -1.
         -1   -1    0    0    0  501 -0.00000000000E+00 -0.00000000000E+00 -0.45284771897E+02  0.45284772178E+02  0.50400000000E-02 0.  1.
         24    2    1    2    0    0  0.00000000000E+00  0.00000000000E+00 -0.10954946621E+02  0.79614597549E+02  0.78857296983E+02 0.  0.
         66    2    3    3    0    0 -0.14888044008E+02  0.20797195386E+02  0.24780790795E+02  0.35668820926E+02  0.20000008792E+01 0.  0.
        -13    1    3    3    0    0  0.14888044008E+02 -0.20797195386E+02 -0.35735737416E+02  0.43945776623E+02  0.10566000000E+00 0.  1.
         13    1    4    4    0    0 -0.88831684417E+01  0.12712563842E+02  0.13841049256E+02  0.20787153955E+02  0.10566000000E+00 0. -1.
        -13    1    4    4    0    0 -0.34024181035E+01  0.49924701992E+01  0.67790789947E+01  0.90812049692E+01  0.10566000000E+00 0.  1.
         14    1    4    4    0    0 -0.26024574628E+01  0.30921613449E+01  0.41606625448E+01  0.58004620023E+01  0.00000000000E+00 0. -1.
<mgrwt>
<rscale>  0 0.78857297E+02</rscale>
<asrwt>0</asrwt>
<pdfrwt beam="1">  1        2 0.52815116E-02 0.78857297E+02</pdfrwt>
<pdfrwt beam="2">  1       -1 0.69668881E-02 0.78857297E+02</pdfrwt>
<totfact> 0.14384472E+05</totfact>
</mgrwt>
</event>
<event>
 8    1  0.1627221E-013  0.8088516E+02  0.7818608E-02  0.1326558E+00
          2   -1    0    0  501    0  0.00000000000E+00  0.00000000000E+00  0.36000157548E+03  0.36000157549E+03  0.25500000000E-02 0. -1.
         -1   -1    0    0    0  501 -0.00000000000E+00 -0.00000000000E+00 -0.45433187341E+01  0.45433215296E+01  0.50400000000E-02 0.  1.
         24    2    1    2    0    0  0.00000000000E+00  0.00000000000E+00  0.35545825674E+03  0.36454489702E+03  0.80885163371E+02 0.  0.
         66    2    3    3    0    0 -0.16663572126E+02 -0.23551898636E+02  0.30541114157E+03  0.30677733287E+03  0.20000017289E+01 0.  0.
        -13    1    3    3    0    0  0.16663572126E+02  0.23551898636E+02  0.50047115178E+02  0.57767564143E+02  0.10566000000E+00 0.  1.
         13    1    4    4    0    0 -0.34202111202E+01 -0.52743772344E+01  0.72078267843E+02  0.72351950620E+02  0.10566000000E+00 0. -1.
        -13    1    4    4    0    0 -0.86500239699E+01 -0.12834162476E+02  0.16231419234E+03  0.16305044263E+03  0.10566000000E+00 0.  1.
        -14    1    4    4    0    0 -0.45933370361E+01 -0.54433589262E+01  0.71018681381E+02  0.71374939626E+02  0.00000000000E+00 0.  1.
<mgrwt>
<rscale>  0 0.80885163E+02</rscale>
<asrwt>0</asrwt>
<pdfrwt beam="1">  1        2 0.55384880E-01 0.80885163E+02</pdfrwt>
<pdfrwt beam="2">  1       -1 0.69897205E-03 0.80885163E+02</pdfrwt>
<totfact> 0.26448766E+05</totfact>
</mgrwt>
</event>
<event>
 8    1  0.1627221E-013  0.8068627E+02  0.7818608E-02  0.1327115E+00
         -1   -1    0    0    0  501 -0.00000000000E+00  0.00000000000E+00  0.39134793425E+01  0.39134825879E+01  0.50400000000E-02 0.  1.
          2   -1    0    0  501    0  0.00000000000E+00 -0.00000000000E+00 -0.41588773474E+03  0.41588773475E+03  0.25500000000E-02 0. -1.
         24    2    1    2    0    0  0.00000000000E+00  0.00000000000E+00 -0.41197425540E+03  0.41980121734E+03  0.80686274956E+02 0.  0.
         66    2    3    3    0    0  0.33706225070E+02  0.96331072868E+01 -0.30973529775E+03  0.31171920223E+03  0.20000005488E+01 0.  0.
        -13    1    3    3    0    0 -0.33706225070E+02 -0.96331072868E+01 -0.10223895765E+03  0.10808201511E+03  0.10566000000E+00 0.  1.
         13    1    4    4    0    0  0.13713672415E+02  0.35041390680E+01 -0.12086758299E+03  0.12169358070E+03  0.10566000000E+00 0. -1.
        -13    1    4    4    0    0  0.73636748888E+01  0.25994925152E+01 -0.66230321225E+02  0.66689187151E+02  0.10566000000E+00 0.  1.
        -14    1    4    4    0    0  0.12628877766E+02  0.35294757036E+01 -0.12263739353E+03  0.12333643438E+03  0.00000000000E+00 0.  1.
<mgrwt>
<rscale>  0 0.80686275E+02</rscale>
<asrwt>0</asrwt>
<pdfrwt beam="1">  1        2 0.63982694E-01 0.80686275E+02</pdfrwt>
<pdfrwt beam="2">  1       -1 0.60207433E-03 0.80686275E+02</pdfrwt>
<totfact> 0.28006781E+05</totfact>
</mgrwt>
</event>
<event>
 8    1  0.1627221E-013  0.7725027E+02  0.7818608E-02  0.1337041E+00
          2   -1    0    0  501    0  0.00000000000E+00  0.00000000000E+00  0.73328487467E+03  0.73328487467E+03  0.25500000000E-02 0. -1.
         -1   -1    0    0    0  501 -0.00000000000E+00 -0.00000000000E+00 -0.20345417398E+01  0.20345479823E+01  0.50400000000E-02 0.  1.
         24    2    1    2    0    0  0.00000000000E+00  0.00000000000E+00  0.73125033293E+03  0.73531942266E+03  0.77250268127E+02 0.  0.
         66    2    3    3    0    0 -0.23132553149E+02  0.13784047239E+02  0.62910515002E+03  0.62968436915E+03  0.19999992443E+01 0.  0.
        -13    1    3    3    0    0  0.23132553149E+02 -0.13784047239E+02  0.10214518291E+03  0.10563505350E+03  0.10566000000E+00 0.  1.
         13    1    4    4    0    0 -0.11002140376E+02  0.68220081116E+01  0.29277325976E+03  0.29305934498E+03  0.10566000000E+00 0. -1.
        -13    1    4    4    0    0 -0.95440554144E+01  0.48558482150E+01  0.25486552174E+03  0.25509040279E+03  0.10566000000E+00 0.  1.
        -14    1    4    4    0    0 -0.25863573587E+01  0.21061909127E+01  0.81466368523E+02  0.81534621388E+02  0.00000000000E+00 0.  1.
<mgrwt>
<rscale>  0 0.77250268E+02</rscale>
<asrwt>0</asrwt>
<pdfrwt beam="1">  1        2 0.11281332E+00 0.77250268E+02</pdfrwt>
<pdfrwt beam="2">  1       -1 0.31300618E-03 0.77250268E+02</pdfrwt>
<totfact> 0.37005251E+05</totfact>
</mgrwt>
</event>
<event>
 8    1  0.1627221E-013  0.8014806E+02  0.7818608E-02  0.1328632E+00
          2   -1    0    0  501    0  0.00000000000E+00  0.00000000000E+00  0.25908024520E+02  0.25908024645E+02  0.25500000000E-02 0. -1.
         -1   -1    0    0    0  501 -0.00000000000E+00 -0.00000000000E+00 -0.61985737003E+02  0.61985737208E+02  0.50400000000E-02 0.  1.
         24    2    1    2    0    0 -0.17763568394E-14  0.35527136788E-14 -0.36077712483E+02  0.87893761853E+02  0.80148063200E+02 0.  0.
         66    2    3    3    0    0  0.10732297839E+02 -0.29893352555E+02  0.87028087310E+01  0.32992933188E+02  0.20000041610E+01 0.  0.
        -13    1    3    3    0    0 -0.10732297839E+02  0.29893352555E+02 -0.44780521214E+02  0.54900828665E+02  0.10566000000E+00 0.  1.
         13    1    4    4    0    0  0.68899017127E+01 -0.21558111586E+02  0.63831647568E+01  0.23515502910E+02  0.10566000000E+00 0. -1.
        -13    1    4    4    0    0  0.34761021724E+01 -0.76362975780E+01  0.22371082016E+01  0.86840165910E+01  0.10566000000E+00 0.  1.
         14    1    4    4    0    0  0.36629395373E+00 -0.69894339101E+00  0.82535772655E-01  0.79341368664E+00  0.00000000000E+00 0. -1.
<mgrwt>
<rscale>  0 0.80148063E+02</rscale>
<asrwt>0</asrwt>
<pdfrwt beam="1">  1        2 0.39858500E-02 0.80148063E+02</pdfrwt>
<pdfrwt beam="2">  1       -1 0.95362672E-02 0.80148063E+02</pdfrwt>
<totfact> 0.13003899E+05</totfact>
</mgrwt>
</event>
<event>
 8    1  0.1627221E-013  0.7994064E+02  0.7818608E-02  0.1329220E+00
         -1   -1    0    0    0  501 -0.00000000000E+00  0.00000000000E+00  0.10525485658E+02  0.10525486864E+02  0.50400000000E-02 0.  1.
          2   -1    0    0  501    0  0.00000000000E+00 -0.00000000000E+00 -0.15178646237E+03  0.15178646239E+03  0.25500000000E-02 0. -1.
         24    2    1    2    0    0  0.17763568394E-14 -0.35527136788E-14 -0.14126097671E+03  0.16231194926E+03  0.79940636284E+02 0.  0.
         66    2    3    3    0    0 -0.10629288934E+02  0.21426345408E+02 -0.13563333073E+03  0.13774059146E+03  0.20000171575E+01 0.  0.
        -13    1    3    3    0    0  0.10629288934E+02 -0.21426345408E+02 -0.56276459804E+01  0.24571357799E+02  0.10566000000E+00 0.  1.
         13    1    4    4    0    0 -0.42411645823E+01  0.10057121971E+02 -0.60749741671E+02  0.61722568454E+02  0.10566000000E+00 0. -1.
        -13    1    4    4    0    0 -0.98509094670E+00  0.15134314076E+01 -0.12462778109E+02  0.12593366549E+02  0.10566000000E+00 0.  1.
         14    1    4    4    0    0 -0.54030334046E+01  0.98557920292E+01 -0.62420810954E+02  0.63424656457E+02  0.00000000000E+00 0. -1.
<mgrwt>
<rscale>  0 0.79940636E+02</rscale>
<asrwt>0</asrwt>
<pdfrwt beam="1">  1        2 0.23351762E-01 0.79940636E+02</pdfrwt>
<pdfrwt beam="2">  1       -1 0.16193057E-02 0.79940636E+02</pdfrwt>
<totfact> 0.20146333E+05</totfact>
</mgrwt>
</event>
<event>
 8    1  0.1627221E-013  0.8259373E+02  0.7818608E-02  0.1321848E+00
          2   -1    0    0  501    0  0.00000000000E+00  0.00000000000E+00  0.53576227536E+02  0.53576227596E+02  0.25500000000E-02 0. -1.
         -1   -1    0    0    0  501 -0.00000000000E+00 -0.00000000000E+00 -0.31831861455E+02  0.31831861854E+02  0.50400000000E-02 0.  1.
         24    2    1    2    0    0  0.35527136788E-14 -0.71054273576E-14  0.21744366081E+02  0.85408089450E+02  0.82593730314E+02 0.  0.
         66    2    3    3    0    0  0.23241699799E+02 -0.33670252797E+02  0.52560312840E+01  0.41297559173E+02  0.19999989619E+01 0.  0.
        -13    1    3    3    0    0 -0.23241699799E+02  0.33670252797E+02  0.16488334797E+02  0.44110530277E+02  0.10566000000E+00 0.  1.
         13    1    4    4    0    0  0.13113239389E+02 -0.19171253159E+02  0.36563517238E+01  0.23513274270E+02  0.10566000000E+00 0. -1.
        -13    1    4    4    0    0  0.49848437347E+01 -0.63289218517E+01  0.81338526781E+00  0.80979428557E+01  0.10566000000E+00 0.  1.
        -14    1    4    4    0    0  0.51436166752E+01 -0.81700777864E+01  0.78629429234E+00  0.96863420470E+01  0.00000000000E+00 0.  1.
<mgrwt>
<rscale>  0 0.82593730E+02</rscale>
<asrwt>0</asrwt>
<pdfrwt beam="1">  1        2 0.82424965E-02 0.82593730E+02</pdfrwt>
<pdfrwt beam="2">  1       -1 0.48972095E-02 0.82593730E+02</pdfrwt>
<totfact> 0.13902504E+05</totfact>
</mgrwt>
</event>
<event>
 8    1  0.1627221E-013  0.7925115E+02  0.7818608E-02  0.1331190E+00
          2   -1    0    0  501    0  0.00000000000E+00  0.00000000000E+00  0.17936086634E+03  0.17936086636E+03  0.25500000000E-02 0. -1.
         -1   -1    0    0    0  501 -0.00000000000E+00 -0.00000000000E+00 -0.87543411079E+01  0.87543425587E+01  0.50400000000E-02 0.  1.
         24    2    1    2    0    0 -0.17763568394E-14 -0.17763568394E-14  0.17060652524E+03  0.18811520892E+03  0.79251153772E+02 0.  0.
         66    2    3    3    0    0  0.14893571597E+02  0.57706269658E+01  0.17136983703E+03  0.17212419834E+03  0.19999999764E+01 0.  0.
        -13    1    3    3    0    0 -0.14893571597E+02 -0.57706269658E+01 -0.76331179329E+00  0.15991010582E+02  0.10566000000E+00 0.  1.
         13    1    4    4    0    0  0.82764492402E+00  0.18569210507E+00  0.57377001799E+01  0.58010210367E+01  0.10566000000E+00 0. -1.
        -13    1    4    4    0    0  0.46243538202E+01  0.18541072651E+01  0.51665337757E+02  0.51905111999E+02  0.10566000000E+00 0.  1.
         14    1    4    4    0    0  0.94415728528E+01  0.37308275956E+01  0.11396679909E+03  0.11441806530E+03  0.00000000000E+00 0. -1.
<mgrwt>
<rscale>  0 0.79251154E+02</rscale>
<asrwt>0</asrwt>
<pdfrwt beam="1">  1        2 0.27593977E-01 0.79251154E+02</pdfrwt>
<pdfrwt beam="2">  1       -1 0.13468220E-02 0.79251154E+02</pdfrwt>
<totfact> 0.21783465E+05</totfact>
</mgrwt>
</event>
<event>
 8    1  0.1627221E-013  0.7899957E+02  0.7818608E-02  0.1331915E+00
          2   -1    0    0  501    0  0.00000000000E+00  0.00000000000E+00  0.14023782443E+02  0.14023782675E+02  0.25500000000E-02 0. -1.
         -1   -1    0    0    0  501 -0.00000000000E+00 -0.00000000000E+00 -0.11125623116E+03  0.11125623128E+03  0.50400000000E-02 0.  1.
         24    2    1    2    0    0  0.00000000000E+00  0.35527136788E-14 -0.97232448719E+02  0.12528001395E+03  0.78999574758E+02 0.  0.
         66    2    3    3    0    0  0.26701457028E+02  0.28698357362E+02 -0.41265982040E+02  0.56951249297E+02  0.20000000105E+01 0.  0.
        -13    1    3    3    0    0 -0.26701457028E+02 -0.28698357362E+02 -0.55966466678E+02  0.68328764654E+02  0.10566000000E+00 0.  1.
         13    1    4    4    0    0  0.29934109671E+01  0.36832605201E+01 -0.50197796475E+01  0.69091438704E+01  0.10566000000E+00 0. -1.
        -13    1    4    4    0    0  0.36273182903E+01  0.39658582987E+01 -0.48530232476E+01  0.72421315027E+01  0.10566000000E+00 0. -1.
         14    1    4    4    0    0  0.20080727771E+02  0.21049238543E+02 -0.31393179145E+02  0.42799973924E+02  0.00000000000E+00 0. -1.
<mgrwt>
<rscale>  0 0.78999575E+02</rscale>
<asrwt>0</asrwt>
<pdfrwt beam="1">  1        2 0.21575051E-02 0.78999575E+02</pdfrwt>
<pdfrwt beam="2">  1       -1 0.17116343E-01 0.78999575E+02</pdfrwt>
<totfact> 0.11950974E+05</totfact>
</mgrwt>
</event>
<event>
 8    1  0.1627221E-013  0.8004343E+02  0.7818608E-02  0.1328928E+00
          2   -1    0    0  501    0  0.00000000000E+00  0.00000000000E+00  0.21015118682E+02  0.21015118837E+02  0.25500000000E-02 0. -1.
         -1   -1    0    0    0  501 -0.00000000000E+00 -0.00000000000E+00 -0.76218353909E+02  0.76218354076E+02  0.50400000000E-02 0.  1.
         24    2    1    2    0    0  0.00000000000E+00  0.00000000000E+00 -0.55203235227E+02  0.97233472912E+02  0.80043432430E+02 0.  0.
         66    2    3    3    0    0  0.25703806850E+02 -0.24907954851E+02 -0.59347280965E+01  0.36336109584E+02  0.19999901655E+01 0.  0.
        -13    1    3    3    0    0 -0.25703806850E+02  0.24907954851E+02 -0.49268507130E+02  0.60897363328E+02  0.10566000000E+00 0.  1.
         13    1    4    4    0    0  0.87404339370E+01 -0.74147869624E+01 -0.19529543515E+01  0.11627529653E+02  0.10566000000E+00 0. -1.
        -13    1    4    4    0    0  0.13198649909E+02 -0.13085684944E+02 -0.31962539501E+01  0.18859128114E+02  0.10566000000E+00 0.  1.
        -14    1    4    4    0    0  0.37647230044E+01 -0.44074829446E+01 -0.78551979496E+00  0.58494518166E+01  0.00000000000E+00 0.  1.
<mgrwt>
<rscale>  0 0.80043432E+02</rscale>
<asrwt>0</asrwt>
<pdfrwt beam="1">  1        2 0.32330952E-02 0.80043432E+02</pdfrwt>
<pdfrwt beam="2">  1       -1 0.11725900E-01 0.80043432E+02</pdfrwt>
<totfact> 0.12520720E+05</totfact>
</mgrwt>
</event>
<event>
 8    1  0.1627221E-013  0.7890653E+02  0.7818608E-02  0.1332183E+00
          2   -1    0    0  501    0  0.00000000000E+00  0.00000000000E+00  0.34673396604E+02  0.34673396697E+02  0.25500000000E-02 0. -1.
         -1   -1    0    0    0  501 -0.00000000000E+00 -0.00000000000E+00 -0.44892062147E+02  0.44892062430E+02  0.50400000000E-02 0.  1.
         24    2    1    2    0    0  0.27755575616E-16  0.17763568394E-14 -0.10218665544E+02  0.79565459128E+02  0.78906534335E+02 0.  0.
         66    2    3    3    0    0  0.16182093342E+00  0.10516982382E+02  0.33203688772E+02  0.34887219203E+02  0.20000027976E+01 0.  0.
        -13    1    3    3    0    0 -0.16182093342E+00 -0.10516982382E+02 -0.43422354316E+02  0.44678239925E+02  0.10566000000E+00 0.  1.
         13    1    4    4    0    0  0.42935185469E-01  0.65702367348E+01  0.21279340703E+02  0.22270863453E+02  0.10566000000E+00 0. -1.
        -13    1    4    4    0    0  0.13857696007E+00  0.21410434997E+01  0.46657384762E+01  0.51364920330E+01  0.10566000000E+00 0.  1.
        -14    1    4    4    0    0 -0.19691212120E-01  0.18057021478E+01  0.72586095930E+01  0.74798637163E+01  0.00000000000E+00 0.  1.
<mgrwt>
<rscale>  0 0.78906534E+02</rscale>
<asrwt>0</asrwt>
<pdfrwt beam="1">  1        2 0.53343687E-02 0.78906534E+02</pdfrwt>
<pdfrwt beam="2">  1       -1 0.69064712E-02 0.78906534E+02</pdfrwt>
<totfact> 0.14387963E+05</totfact>
</mgrwt>
</event>
<event>
 8    1  0.1627221E-013  0.8022007E+02  0.7818608E-02  0.1328428E+00
          2   -1    0    0  501    0  0.00000000000E+00  0.00000000000E+00  0.88726890390E+03  0.88726890390E+03  0.25500000000E-02 0. -1.
         -1   -1    0    0    0  501 -0.00000000000E+00 -0.00000000000E+00 -0.18132177480E+01  0.18132247526E+01  0.50400000000E-02 0.  1.
         24    2    1    2    0    0  0.11102230246E-15  0.00000000000E+00  0.88545568615E+03  0.88908212865E+03  0.80220068294E+02 0.  0.
         66    2    3    3    0    0  0.53811289316E+00  0.32335766502E+02  0.70548983339E+03  0.70623352821E+03  0.19999976155E+01 0.  0.
        -13    1    3    3    0    0 -0.53811289316E+00 -0.32335766502E+02  0.17996585276E+03  0.18284860044E+03  0.10566000000E+00 0.  1.
         13    1    4    4    0    0  0.14718705721E+00  0.69138606707E+00  0.13790453271E+02  0.13808962459E+02  0.10566000000E+00 0. -1.
        -13    1    4    4    0    0  0.61947956251E+00  0.14194639885E+02  0.29759110403E+03  0.29793010576E+03  0.10566000000E+00 0.  1.
         14    1    4    4    0    0 -0.22855372657E+00  0.17449740550E+02  0.39410827609E+03  0.39449445999E+03  0.00000000000E+00 0. -1.
<mgrwt>
<rscale>  0 0.80220068E+02</rscale>
<asrwt>0</asrwt>
<pdfrwt beam="1">  1        2 0.13650303E+00 0.80220068E+02</pdfrwt>
<pdfrwt beam="2">  1       -1 0.27895687E-03 0.80220068E+02</pdfrwt>
<totfact> 0.34641748E+05</totfact>
</mgrwt>
</event>
<event>
 8    1  0.1627221E-013  0.7773659E+02  0.7818608E-02  0.1335600E+00
         -1   -1    0    0    0  501 -0.00000000000E+00  0.00000000000E+00  0.19567121631E+02  0.19567122280E+02  0.50400000000E-02 0.  1.
          2   -1    0    0  501    0  0.00000000000E+00 -0.00000000000E+00 -0.77208305233E+02  0.77208305275E+02  0.25500000000E-02 0. -1.
         24    2    1    2    0    0  0.00000000000E+00  0.00000000000E+00 -0.57641183602E+02  0.96775427555E+02  0.77736589400E+02 0.  0.
         66    2    3    3    0    0  0.12683025046E+02  0.30057796409E+02 -0.55083681331E+02  0.64051090570E+02  0.20000012243E+01 0.  0.
        -13    1    3    3    0    0 -0.12683025046E+02 -0.30057796409E+02 -0.25575022711E+01  0.32724336986E+02  0.10566000000E+00 0.  1.
         13    1    4    4    0    0  0.44165333902E+01  0.97539810916E+01 -0.18371282311E+02  0.21264079856E+02  0.10566000000E+00 0. -1.
        -13    1    4    4    0    0  0.37197691017E+01  0.84071426803E+01 -0.14041226321E+02  0.16783442164E+02  0.10566000000E+00 0.  1.
        -14    1    4    4    0    0  0.45467225542E+01  0.11896672637E+02 -0.22671172699E+02  0.26003568550E+02  0.00000000000E+00 0.  1.
<mgrwt>
<rscale>  0 0.77736589E+02</rscale>
<asrwt>0</asrwt>
<pdfrwt beam="1">  1        2 0.11878201E-01 0.77736589E+02</pdfrwt>
<pdfrwt beam="2">  1       -1 0.30103265E-02 0.77736589E+02</pdfrwt>
<totfact> 0.17874958E+05</totfact>
</mgrwt>
</event>
<event>
 8    1  0.1627221E-013  0.7754858E+02  0.7818608E-02  0.1336156E+00
          2   -1    0    0  501    0  0.00000000000E+00  0.00000000000E+00  0.14017919010E+02  0.14017919242E+02  0.25500000000E-02 0. -1.
         -1   -1    0    0    0  501 -0.00000000000E+00 -0.00000000000E+00 -0.10725168375E+03  0.10725168387E+03  0.50400000000E-02 0.  1.
         24    2    1    2    0    0  0.00000000000E+00  0.00000000000E+00 -0.93233764740E+02  0.12126960311E+03  0.77548576719E+02 0.  0.
         66    2    3    3    0    0  0.31452076753E+01  0.18673917631E+02  0.62173524018E+01  0.20031550009E+02  0.19999984734E+01 0.  0.
        -13    1    3    3    0    0 -0.31452076753E+01 -0.18673917631E+02 -0.99451117142E+02  0.10123805310E+03  0.10566000000E+00 0.  1.
         13    1    4    4    0    0  0.15170376081E+01  0.75830130052E+01  0.23199769261E+01  0.80744626022E+01  0.10566000000E+00 0. -1.
        -13    1    4    4    0    0  0.12498582941E+01  0.79289056812E+01  0.34646835101E+01  0.87432766694E+01  0.10566000000E+00 0.  1.
        -14    1    4    4    0    0  0.37831177312E+00  0.31619989442E+01  0.43269196552E+00  0.32138107377E+01  0.00000000000E+00 0.  1.
<mgrwt>
<rscale>  0 0.77548577E+02</rscale>
<asrwt>0</asrwt>
<pdfrwt beam="1">  1        2 0.21566030E-02 0.77548577E+02</pdfrwt>
<pdfrwt beam="2">  1       -1 0.16500259E-01 0.77548577E+02</pdfrwt>
<totfact> 0.12618928E+05</totfact>
</mgrwt>
</event>
<event>
 8    1  0.1627221E-013  0.7937003E+02  0.7818608E-02  0.1330849E+00
         -1   -1    0    0    0  501 -0.00000000000E+00  0.00000000000E+00  0.10290865855E+02  0.10290867090E+02  0.50400000000E-02 0.  1.
          2   -1    0    0  501    0  0.00000000000E+00 -0.00000000000E+00 -0.15303864018E+03  0.15303864020E+03  0.25500000000E-02 0. -1.
         24    2    1    2    0    0  0.00000000000E+00  0.35527136788E-14 -0.14274777433E+03  0.16332950729E+03  0.79370025056E+02 0.  0.
         66    2    3    3    0    0  0.24639250287E+02 -0.22176690997E+02 -0.11622092804E+03  0.12087267020E+03  0.20000019618E+01 0.  0.
        -13    1    3    3    0    0 -0.24639250287E+02  0.22176690997E+02 -0.26526846289E+02  0.42456837098E+02  0.10566000000E+00 0.  1.
         13    1    4    4    0    0  0.10638255189E+02 -0.88334677098E+01 -0.47031627718E+02  0.49022319357E+02  0.10566000000E+00 0. -1.
        -13    1    4    4    0    0  0.27678755044E+01 -0.31976957050E+01 -0.14391218709E+02  0.15000157752E+02  0.10566000000E+00 0.  1.
        -14    1    4    4    0    0  0.11233119594E+02 -0.10145527582E+02 -0.54798081611E+02  0.56850193086E+02  0.00000000000E+00 0.  1.
<mgrwt>
<rscale>  0 0.79370025E+02</rscale>
<asrwt>0</asrwt>
<pdfrwt beam="1">  1        2 0.23544405E-01 0.79370025E+02</pdfrwt>
<pdfrwt beam="2">  1       -1 0.15832103E-02 0.79370025E+02</pdfrwt>
<totfact> 0.20587273E+05</totfact>
</mgrwt>
</event>
<event>
 8    1  0.1627221E-013  0.7954342E+02  0.7818608E-02  0.1330352E+00
          2   -1    0    0  501    0  0.00000000000E+00  0.00000000000E+00  0.13693920288E+03  0.13693920290E+03  0.25500000000E-02 0. -1.
         -1   -1    0    0    0  501 -0.00000000000E+00 -0.00000000000E+00 -0.11551029507E+02  0.11551030607E+02  0.50400000000E-02 0.  1.
         24    2    1    2    0    0  0.00000000000E+00  0.00000000000E+00  0.12538817337E+03  0.14849023351E+03  0.79543418496E+02 0.  0.
         66    2    3    3    0    0 -0.17710911792E+02 -0.13230146282E+02  0.12439596390E+03  0.12636086816E+03  0.19999997123E+01 0.  0.
        -13    1    3    3    0    0  0.17710911792E+02  0.13230146282E+02  0.99220946630E+00  0.22129365350E+02  0.10566000000E+00 0.  1.
         13    1    4    4    0    0 -0.12873641199E+02 -0.93464870031E+01  0.89421207629E+02  0.90825387392E+02  0.10566000000E+00 0. -1.
        -13    1    4    4    0    0 -0.33368955279E+00 -0.20639271776E+00  0.39315060234E+01  0.39524486485E+01  0.10566000000E+00 0.  1.
        -14    1    4    4    0    0 -0.45035810405E+01 -0.36772665611E+01  0.31043250250E+02  0.31583032116E+02  0.00000000000E+00 0.  1.
<mgrwt>
<rscale>  0 0.79543418E+02</rscale>
<asrwt>0</asrwt>
<pdfrwt beam="1">  1        2 0.21067569E-01 0.79543418E+02</pdfrwt>
<pdfrwt beam="2">  1       -1 0.17770816E-02 0.79543418E+02</pdfrwt>
<totfact> 0.19756676E+05</totfact>
</mgrwt>
</event>
<event>
 8    1  0.1627221E-013  0.8196072E+02  0.7818608E-02  0.1323578E+00
          2   -1    0    0  501    0  0.00000000000E+00  0.00000000000E+00  0.40169631210E+02  0.40169631291E+02  0.25500000000E-02 0. -1.
         -1   -1    0    0    0  501 -0.00000000000E+00 -0.00000000000E+00 -0.41807446137E+02  0.41807446441E+02  0.50400000000E-02 0.  1.
         24    2    1    2    0    0 -0.71054273576E-14  0.00000000000E+00 -0.16378149271E+01  0.81977077731E+02  0.81960715197E+02 0.  0.
         66    2    3    3    0    0 -0.39298306573E+02  0.11529415536E+02 -0.11363098601E+01  0.41019209214E+02  0.20000005974E+01 0.  0.
        -13    1    3    3    0    0  0.39298306573E+02 -0.11529415536E+02 -0.50150506700E+00  0.40957868517E+02  0.10566000000E+00 0.  1.
         13    1    4    4    0    0 -0.18615077423E+02  0.58827082703E+01  0.26790802004E+00  0.19524607623E+02  0.10566000000E+00 0. -1.
        -13    1    4    4    0    0 -0.11471957213E+02  0.29151000353E+01 -0.97910060686E+00  0.11877432911E+02  0.10566000000E+00 0.  1.
         14    1    4    4    0    0 -0.92112719358E+01  0.27316072302E+01 -0.42511727328E+00  0.96171686806E+01  0.00000000000E+00 0. -1.
<mgrwt>
<rscale>  0 0.81960715E+02</rscale>
<asrwt>0</asrwt>
<pdfrwt beam="1">  1        2 0.61799433E-02 0.81960715E+02</pdfrwt>
<pdfrwt beam="2">  1       -1 0.64319148E-02 0.81960715E+02</pdfrwt>
<totfact> 0.13342318E+05</totfact>
</mgrwt>
</event>
<event>
 8    1  0.1627221E-013  0.8634941E+02  0.7818608E-02  0.1311941E+00
         -1   -1    0    0    0  501 -0.00000000000E+00  0.00000000000E+00  0.10477888329E+02  0.10477889541E+02  0.50400000000E-02 0.  1.
          2   -1    0    0  501    0  0.00000000000E+00 -0.00000000000E+00 -0.17790369755E+03  0.17790369757E+03  0.25500000000E-02 0. -1.
         24    2    1    2    0    0  0.00000000000E+00  0.00000000000E+00 -0.16742580922E+03  0.18838158711E+03  0.86349410933E+02 0.  0.
         66    2    3    3    0    0 -0.40686118827E+02 -0.51888458872E+01 -0.11300813805E+03  0.12023777971E+03  0.20000045034E+01 0.  0.
        -13    1    3    3    0    0  0.40686118827E+02  0.51888458872E+01 -0.54417671178E+02  0.68143807402E+02  0.10566000000E+00 0.  1.
         13    1    4    4    0    0 -0.25569187535E+01 -0.17612401619E+00 -0.80477533215E+01  0.84466769051E+01  0.10566000000E+00 0.  1.
        -13    1    4    4    0    0 -0.28740844636E+02 -0.32355601098E+01 -0.78652344185E+02  0.83801595507E+02  0.10566000000E+00 0. -1.
         14    1    4    4    0    0 -0.93883554367E+01 -0.17771617612E+01 -0.26308040539E+02  0.27989507297E+02  0.00000000000E+00 0. -1.
<mgrwt>
<rscale>  0 0.86349411E+02</rscale>
<asrwt>0</asrwt>
<pdfrwt beam="1">  1        2 0.27369797E-01 0.86349411E+02</pdfrwt>
<pdfrwt beam="2">  1       -1 0.16119830E-02 0.86349411E+02</pdfrwt>
<totfact> 0.17300524E+05</totfact>
</mgrwt>
</event>
<event>
 8    1  0.1627221E-013  0.7953574E+02  0.7818608E-02  0.1330374E+00
         -1   -1    0    0    0  501 -0.00000000000E+00  0.00000000000E+00  0.39073510794E+01  0.39073543299E+01  0.50400000000E-02 0.  1.
          2   -1    0    0  501    0  0.00000000000E+00 -0.00000000000E+00 -0.40474552564E+03  0.40474552565E+03  0.25500000000E-02 0. -1.
         24    2    1    2    0    0 -0.35527136788E-14  0.00000000000E+00 -0.40083817456E+03  0.40865287998E+03  0.79535741206E+02 0.  0.
         66    2    3    3    0    0 -0.29996997214E+02  0.25677301661E+02 -0.22371478888E+03  0.22718153629E+03  0.20000007755E+01 0.  0.
        -13    1    3    3    0    0  0.29996997214E+02 -0.25677301661E+02 -0.17712338568E+03  0.18147134369E+03  0.10566000000E+00 0.  1.
         13    1    4    4    0    0 -0.17981802967E+02  0.15129615109E+02 -0.13326253535E+03  0.13531875326E+03  0.10566000000E+00 0. -1.
        -13    1    4    4    0    0 -0.30515385681E+01  0.20521282142E+01 -0.21954108592E+02  0.22260214867E+02  0.10566000000E+00 0.  1.
         14    1    4    4    0    0 -0.89636556790E+01  0.84955583374E+01 -0.68498144940E+02  0.69602568162E+02  0.00000000000E+00 0. -1.
<mgrwt>
<rscale>  0 0.79535741E+02</rscale>
<asrwt>0</asrwt>
<pdfrwt beam="1">  1        2 0.62268509E-01 0.79535741E+02</pdfrwt>
<pdfrwt beam="2">  1       -1 0.60113151E-03 0.79535741E+02</pdfrwt>
<totfact> 0.28804565E+05</totfact>
</mgrwt>
</event>
<event>
 8    1  0.1627221E-013  0.7614042E+02  0.7818608E-02  0.1340375E+00
         -1   -1    0    0    0  501 -0.00000000000E+00  0.00000000000E+00  0.59189842737E+01  0.59189864195E+01  0.50400000000E-02 0.  1.
          2   -1    0    0  501    0  0.00000000000E+00 -0.00000000000E+00 -0.24486308590E+03  0.24486308591E+03  0.25500000000E-02 0. -1.
         24    2    1    2    0    0  0.17763568394E-14  0.00000000000E+00 -0.23894410163E+03  0.25078207233E+03  0.76140423571E+02 0.  0.
         66    2    3    3    0    0  0.14516386774E+02  0.23952480226E+02 -0.20435539752E+03  0.20627548395E+03  0.19999969731E+01 0.  0.
        -13    1    3    3    0    0 -0.14516386774E+02 -0.23952480226E+02 -0.34588704103E+02  0.44506588383E+02  0.10566000000E+00 0.  1.
         13    1    4    4    0    0  0.78769024397E+00  0.21996474875E+01 -0.16870978782E+02  0.17032322040E+02  0.10566000000E+00 0. -1.
        -13    1    4    4    0    0  0.18518558003E+01  0.23919697288E+01 -0.22086659372E+02  0.22293106005E+02  0.10566000000E+00 0.  1.
         14    1    4    4    0    0  0.11876840729E+02  0.19360863010E+02 -0.16539775937E+03  0.16695005591E+03  0.00000000000E+00 0. -1.
<mgrwt>
<rscale>  0 0.76140424E+02</rscale>
<asrwt>0</asrwt>
<pdfrwt beam="1">  1        2 0.37671236E-01 0.76140424E+02</pdfrwt>
<pdfrwt beam="2">  1       -1 0.91061333E-03 0.76140424E+02</pdfrwt>
<totfact> 0.26972881E+05</totfact>
</mgrwt>
</event>
<event>
 8    1  0.1627221E-013  0.7968417E+02  0.7818608E-02  0.1329950E+00
         -1   -1    0    0    0  501 -0.00000000000E+00  0.00000000000E+00  0.22326441635E+03  0.22326441640E+03  0.50400000000E-02 0.  1.
          2   -1    0    0  501    0  0.00000000000E+00 -0.00000000000E+00 -0.71099187454E+01  0.71099192027E+01  0.25500000000E-02 0. -1.
         24    2    1    2    0    0  0.00000000000E+00  0.00000000000E+00  0.21615449760E+03  0.23037433561E+03  0.79684174544E+02 0.  0.
         66    2    3    3    0    0 -0.12045233791E+02  0.35189020723E+02  0.67051727385E+02  0.76702600773E+02  0.19999958796E+01 0.  0.
        -13    1    3    3    0    0  0.12045233791E+02 -0.35189020723E+02  0.14910277022E+03  0.15367173483E+03  0.10566000000E+00 0.  1.
         13    1    4    4    0    0 -0.54783501820E+01  0.15747649894E+02  0.29490527167E+02  0.33877767850E+02  0.10566000000E+00 0. -1.
        -13    1    4    4    0    0 -0.19684072626E+01  0.77240980171E+01  0.13887577651E+02  0.16012879016E+02  0.10566000000E+00 0.  1.
        -14    1    4    4    0    0 -0.45984763463E+01  0.11717272812E+02  0.23673622567E+02  0.26811953907E+02  0.00000000000E+00 0.  1.
<mgrwt>
<rscale>  0 0.79684175E+02</rscale>
<asrwt>0</asrwt>
<pdfrwt beam="1">  1        2 0.10938338E-02 0.79684175E+02</pdfrwt>
<pdfrwt beam="2">  1       -1 0.34348367E-01 0.79684175E+02</pdfrwt>
<totfact> 0.97199253E+04</totfact>
</mgrwt>
</event>
<event>
 8    1  0.1627221E-013  0.7982374E+02  0.7818608E-02  0.1329552E+00
         -1   -1    0    0    0  501 -0.00000000000E+00  0.00000000000E+00  0.53142771573E+01  0.53142795472E+01  0.50400000000E-02 0.  1.
          2   -1    0    0  501    0  0.00000000000E+00 -0.00000000000E+00 -0.29975043139E+03  0.29975043140E+03  0.25500000000E-02 0. -1.
         24    2    1    2    0    0  0.00000000000E+00  0.71054273576E-14 -0.29443615423E+03  0.30506471095E+03  0.79823736736E+02 0.  0.
         66    2    3    3    0    0  0.21553410131E+01  0.38524237335E+02 -0.18594372843E+03  0.18991532980E+03  0.19999988371E+01 0.  0.
        -13    1    3    3    0    0 -0.21553410131E+01 -0.38524237335E+02 -0.10849242581E+03  0.11514938115E+03  0.10566000000E+00 0.  1.
         13    1    4    4    0    0  0.16032217859E+01  0.15840331517E+02 -0.74184841027E+02  0.75874160456E+02  0.10566000000E+00 0. -1.
        -13    1    4    4    0    0 -0.70419102433E-01  0.40504445290E+01 -0.20867619813E+02  0.21257464111E+02  0.10566000000E+00 0.  1.
         14    1    4    4    0    0  0.62253832962E+00  0.18633461289E+02 -0.90891267587E+02  0.92783705235E+02  0.00000000000E+00 0. -1.
<mgrwt>
<rscale>  0 0.79823737E+02</rscale>
<asrwt>0</asrwt>
<pdfrwt beam="1">  1        2 0.46115438E-01 0.79823737E+02</pdfrwt>
<pdfrwt beam="2">  1       -1 0.81758152E-03 0.79823737E+02</pdfrwt>
<totfact> 0.25634607E+05</totfact>
</mgrwt>
</event>
<event>
 8    1  0.1627221E-013  0.8003460E+02  0.7818608E-02  0.1328953E+00
          2   -1    0    0  501    0  0.00000000000E+00  0.00000000000E+00  0.33296244094E+03  0.33296244095E+03  0.25500000000E-02 0. -1.
         -1   -1    0    0    0  501 -0.00000000000E+00 -0.00000000000E+00 -0.48095025254E+01  0.48095051662E+01  0.50400000000E-02 0.  1.
         24    2    1    2    0    0 -0.88817841970E-15 -0.17763568394E-14  0.32815293841E+03  0.33777194611E+03  0.80034596224E+02 0.  0.
         66    2    3    3    0    0 -0.53159601429E+01  0.14783881724E+02  0.31939001558E+03  0.31978243329E+03  0.19999996503E+01 0.  0.
        -13    1    3    3    0    0  0.53159601429E+01 -0.14783881724E+02  0.87629228369E+01  0.17989512827E+02  0.10566000000E+00 0.  1.
         13    1    4    4    0    0 -0.14649198020E+01  0.62337815226E+01  0.12974829200E+03  0.12990626029E+03  0.10566000000E+00 0. -1.
        -13    1    4    4    0    0 -0.99013173823E+00  0.17722294621E+01  0.49026183786E+02  0.49068309720E+02  0.10566000000E+00 0.  1.
        -14    1    4    4    0    0 -0.28609086026E+01  0.67778707389E+01  0.14061553979E+03  0.14080786328E+03  0.00000000000E+00 0.  1.
<mgrwt>
<rscale>  0 0.80034596E+02</rscale>
<asrwt>0</asrwt>
<pdfrwt beam="1">  1        2 0.51224992E-01 0.80034596E+02</pdfrwt>
<pdfrwt beam="2">  1       -1 0.73992366E-03 0.80034596E+02</pdfrwt>
<totfact> 0.26442098E+05</totfact>
</mgrwt>
</event>
<event>
 8    1  0.1627221E-013  0.7487597E+02  0.7818608E-02  0.1344256E+00
         -1   -1    0    0    0  501 -0.00000000000E+00  0.00000000000E+00  0.40717692775E+02  0.40717693087E+02  0.50400000000E-02 0.  1.
          2   -1    0    0  501    0  0.00000000000E+00 -0.00000000000E+00 -0.34422453658E+02  0.34422453753E+02  0.25500000000E-02 0. -1.
         24    2    1    2    0    0  0.00000000000E+00  0.35527136788E-14  0.62952391172E+01  0.75140146840E+02  0.74875974996E+02 0.  0.
         66    2    3    3    0    0  0.23430874379E+02  0.20150788611E+02 -0.18008595021E+02  0.35824149159E+02  0.20000031237E+01 0.  0.
        -13    1    3    3    0    0 -0.23430874379E+02 -0.20150788611E+02  0.24303834138E+02  0.39315997681E+02  0.10566000000E+00 0.  1.
         13    1    4    4    0    0  0.16460381604E+02  0.14142982183E+02 -0.12190585402E+02  0.24891557686E+02  0.10566000000E+00 0. -1.
        -13    1    4    4    0    0  0.17021491172E+01  0.20147979399E+01 -0.18349575270E+01  0.32148025627E+01  0.10566000000E+00 0.  1.
        -14    1    4    4    0    0  0.52683436578E+01  0.39930084881E+01 -0.39830520919E+01  0.77177889094E+01  0.00000000000E+00 0.  1.
<mgrwt>
<rscale>  0 0.74875975E+02</rscale>
<asrwt>0</asrwt>
<pdfrwt beam="1">  1        2 0.52957621E-02 0.74875975E+02</pdfrwt>
<pdfrwt beam="2">  1       -1 0.62642605E-02 0.74875975E+02</pdfrwt>
<totfact> 0.16608687E+05</totfact>
</mgrwt>
</event>
<event>
 8    1  0.1627221E-013  0.7978270E+02  0.7818608E-02  0.1329669E+00
         -1   -1    0    0    0  501 -0.00000000000E+00  0.00000000000E+00  0.59065877537E+00  0.59068027775E+00  0.50400000000E-02 0.  1.
          2   -1    0    0  501    0  0.00000000000E+00 -0.00000000000E+00 -0.26940946610E+04  0.26940946610E+04  0.25500000000E-02 0. -1.
         24    2    1    2    0    0 -0.17763568394E-14  0.00000000000E+00 -0.26935040022E+04  0.26946853412E+04  0.79782695514E+02 0.  0.
         66    2    3    3    0    0  0.88867851438E+01 -0.89708225440E+01 -0.26247601316E+04  0.26247912677E+04  0.20000022119E+01 0.  0.
        -13    1    3    3    0    0 -0.88867851438E+01  0.89708225440E+01 -0.68743870583E+02  0.69894073526E+02  0.10566000000E+00 0.  1.
         13    1    4    4    0    0  0.28942153606E+01 -0.35242295700E+01 -0.92437060872E+03  0.92438186379E+03  0.10566000000E+00 0. -1.
        -13    1    4    4    0    0  0.17180907669E+01 -0.19610138213E+01 -0.43096829782E+03  0.43097619690E+03  0.10566000000E+00 0.  1.
        -14    1    4    4    0    0  0.42744790163E+01 -0.34855791528E+01 -0.12694212251E+04  0.12694332070E+04  0.00000000000E+00 0.  1.
<mgrwt>
<rscale>  0 0.79782696E+02</rscale>
<asrwt>0</asrwt>
<pdfrwt beam="1">  1        2 0.41446626E+00 0.79782696E+02</pdfrwt>
<pdfrwt beam="2">  1       -1 0.90874393E-04 0.79782696E+02</pdfrwt>
<totfact> 0.18487605E+05</totfact>
</mgrwt>
</event>
<event>
 8    1  0.1627221E-013  0.7750819E+02  0.7818608E-02  0.1336275E+00
         -1   -1    0    0    0  501 -0.00000000000E+00  0.00000000000E+00  0.11117017808E+03  0.11117017819E+03  0.50400000000E-02 0.  1.
          2   -1    0    0  501    0  0.00000000000E+00 -0.00000000000E+00 -0.13509737532E+02  0.13509737773E+02  0.25500000000E-02 0. -1.
         24    2    1    2    0    0 -0.35527136788E-14  0.00000000000E+00  0.97660440544E+02  0.12467991596E+03  0.77508191809E+02 0.  0.
         66    2    3    3    0    0 -0.21225545790E+02  0.24731365335E+02  0.15208189783E+02  0.36020178512E+02  0.19999995335E+01 0.  0.
        -13    1    3    3    0    0  0.21225545790E+02 -0.24731365335E+02  0.82452250760E+02  0.88659737451E+02  0.10566000000E+00 0.  1.
         13    1    4    4    0    0 -0.23484776568E+01  0.32858513251E+01  0.18248226319E+01  0.44332051507E+01  0.10566000000E+00 0.  1.
        -13    1    4    4    0    0 -0.49862783837E+01  0.67098787755E+01  0.38343172617E+01  0.91977496270E+01  0.10566000000E+00 0. -1.
         14    1    4    4    0    0 -0.13890789750E+02  0.14735635235E+02  0.95490498899E+01  0.22389223735E+02  0.00000000000E+00 0. -1.
<mgrwt>
<rscale>  0 0.77508192E+02</rscale>
<asrwt>0</asrwt>
<pdfrwt beam="1">  1        2 0.20784212E-02 0.77508192E+02</pdfrwt>
<pdfrwt beam="2">  1       -1 0.17103104E-01 0.77508192E+02</pdfrwt>
<totfact> 0.12536996E+05</totfact>
</mgrwt>
</event>
<event>
 8    1  0.1627221E-013  0.7933459E+02  0.7818608E-02  0.1330950E+00
          2   -1    0    0  501    0  0.00000000000E+00  0.00000000000E+00  0.77659103163E+03  0.77659103164E+03  0.25500000000E-02 0. -1.
         -1   -1    0    0    0  501 -0.00000000000E+00 -0.00000000000E+00 -0.20261526410E+01  0.20261589094E+01  0.50400000000E-02 0.  1.
         24    2    1    2    0    0  0.00000000000E+00 -0.17763568394E-14  0.77456487899E+03  0.77861719054E+03  0.79334593002E+02 0.  0.
         66    2    3    3    0    0 -0.22689476394E+02  0.12222700539E+02  0.68314712969E+03  0.68363601979E+03  0.19999994521E+01 0.  0.
        -13    1    3    3    0    0  0.22689476394E+02 -0.12222700539E+02  0.91417749298E+02  0.94981170756E+02  0.10566000000E+00 0.  1.
         13    1    4    4    0    0 -0.14336430473E+01  0.48104393362E+00  0.45431448321E+02  0.45456731033E+02  0.10566000000E+00 0. -1.
        -13    1    4    4    0    0 -0.80335569395E+01  0.50478601416E+01  0.25899136453E+03  0.25916511531E+03  0.10566000000E+00 0. -1.
         14    1    4    4    0    0 -0.13222276407E+02  0.66937964640E+01  0.37872431684E+03  0.37901417345E+03  0.00000000000E+00 0. -1.
<mgrwt>
<rscale>  0 0.79334593E+02</rscale>
<asrwt>0</asrwt>
<pdfrwt beam="1">  1        2 0.11947548E+00 0.79334593E+02</pdfrwt>
<pdfrwt beam="2">  1       -1 0.31171643E-03 0.79334593E+02</pdfrwt>
<totfact> 0.34932609E+05</totfact>
</mgrwt>
</event>
<event>
 8    1  0.1627221E-013  0.7965008E+02  0.7818608E-02  0.1330047E+00
          2   -1    0    0  501    0  0.00000000000E+00  0.00000000000E+00  0.20342557233E+02  0.20342557393E+02  0.25500000000E-02 0. -1.
         -1   -1    0    0    0  501 -0.00000000000E+00 -0.00000000000E+00 -0.77966285122E+02  0.77966285285E+02  0.50400000000E-02 0.  1.
         24    2    1    2    0    0  0.00000000000E+00 -0.35527136788E-14 -0.57623727889E+02  0.98308842678E+02  0.79650075535E+02 0.  0.
         66    2    3    3    0    0  0.26730312247E+02  0.22346698420E+02 -0.52576054552E+02  0.63104088833E+02  0.19999980210E+01 0.  0.
        -13    1    3    3    0    0 -0.26730312247E+02 -0.22346698420E+02 -0.50476733371E+01  0.35204753845E+02  0.10566000000E+00 0.  1.
         13    1    4    4    0    0  0.24850220928E+02  0.20940729964E+02 -0.48973879697E+02  0.58774992201E+02  0.10566000000E+00 0. -1.
        -13    1    4    4    0    0  0.13416537020E+01  0.72745058970E+00 -0.24332934504E+01  0.28742477395E+01  0.10566000000E+00 0.  1.
         14    1    4    4    0    0  0.53843761705E+00  0.67851786656E+00 -0.11688814046E+01  0.14548488927E+01  0.00000000000E+00 0. -1.
<mgrwt>
<rscale>  0 0.79650076E+02</rscale>
<asrwt>0</asrwt>
<pdfrwt beam="1">  1        2 0.31296242E-02 0.79650076E+02</pdfrwt>
<pdfrwt beam="2">  1       -1 0.11994813E-01 0.79650076E+02</pdfrwt>
<totfact> 0.12615994E+05</totfact>
</mgrwt>
</event>
<event>
 8    1  0.1627221E-013  0.7447099E+02  0.7818608E-02  0.1345517E+00
          2   -1    0    0  501    0  0.00000000000E+00  0.00000000000E+00  0.25326565381E+03  0.25326565383E+03  0.25500000000E-02 0. -1.
         -1   -1    0    0    0  501 -0.00000000000E+00 -0.00000000000E+00 -0.54744173147E+01  0.54744196347E+01  0.50400000000E-02 0.  1.
         24    2    1    2    0    0  0.55511151231E-16 -0.17763568394E-14  0.24779123650E+03  0.25874007346E+03  0.74470992534E+02 0.  0.
         66    2    3    3    0    0 -0.11435813669E+00  0.10076469744E+02  0.24842984707E+03  0.24864218716E+03  0.19999998872E+01 0.  0.
        -13    1    3    3    0    0  0.11435813669E+00 -0.10076469744E+02 -0.63861057060E+00  0.10097886303E+02  0.10566000000E+00 0.  1.
         13    1    4    4    0    0 -0.80893020530E-01  0.43638624781E+01  0.11703279682E+03  0.11711420296E+03  0.10566000000E+00 0. -1.
        -13    1    4    4    0    0  0.26354100393E+00  0.19319832527E+01  0.32844063213E+02  0.32902061722E+02  0.10566000000E+00 0.  1.
        -14    1    4    4    0    0 -0.29700612009E+00  0.37806240134E+01  0.98552987031E+02  0.98625922471E+02  0.00000000000E+00 0.  1.
<mgrwt>
<rscale>  0 0.74470993E+02</rscale>
<asrwt>0</asrwt>
<pdfrwt beam="1">  1        2 0.38963942E-01 0.74470993E+02</pdfrwt>
<pdfrwt beam="2">  1       -1 0.84221834E-03 0.74470993E+02</pdfrwt>
<totfact> 0.28924946E+05</totfact>
</mgrwt>
</event>
<event>
 8    1  0.1627221E-013  0.8130227E+02  0.7818608E-02  0.1325396E+00
          2   -1    0    0  501    0  0.00000000000E+00  0.00000000000E+00  0.22895033066E+02  0.22895033208E+02  0.25500000000E-02 0. -1.
         -1   -1    0    0    0  501 -0.00000000000E+00 -0.00000000000E+00 -0.72177874458E+02  0.72177874634E+02  0.50400000000E-02 0.  1.
         24    2    1    2    0    0  0.00000000000E+00  0.00000000000E+00 -0.49282841392E+02  0.95072907842E+02  0.81302271493E+02 0.  0.
         66    2    3    3    0    0  0.70627475725E+00 -0.33423725228E+02  0.23374425975E+01  0.33572427232E+02  0.20000000368E+01 0.  0.
        -13    1    3    3    0    0 -0.70627475725E+00  0.33423725228E+02 -0.51620283989E+02  0.61500480611E+02  0.10566000000E+00 0.  1.
         13    1    4    4    0    0  0.10960596452E+00 -0.15217060084E+02  0.21871052550E+00  0.15219393201E+02  0.10566000000E+00 0. -1.
        -13    1    4    4    0    0  0.73001509814E+00 -0.16273541426E+02  0.19843280753E+01  0.16410661002E+02  0.10566000000E+00 0.  1.
        -14    1    4    4    0    0 -0.13334630541E+00 -0.19331237188E+01  0.13440399678E+00  0.19423730290E+01  0.00000000000E+00 0.  1.
<mgrwt>
<rscale>  0 0.81302271E+02</rscale>
<asrwt>0</asrwt>
<pdfrwt beam="1">  1        2 0.35223128E-02 0.81302271E+02</pdfrwt>
<pdfrwt beam="2">  1       -1 0.11104288E-01 0.81302271E+02</pdfrwt>
<totfact> 0.12182424E+05</totfact>
</mgrwt>
</event>
<event>
 8    1  0.1627221E-013  0.8305304E+02  0.7818608E-02  0.1320604E+00
         -1   -1    0    0    0  501 -0.00000000000E+00  0.00000000000E+00  0.28135703261E+02  0.28135703713E+02  0.50400000000E-02 0.  1.
          2   -1    0    0  501    0  0.00000000000E+00 -0.00000000000E+00 -0.61290511454E+02  0.61290511507E+02  0.25500000000E-02 0. -1.
         24    2    1    2    0    0  0.00000000000E+00  0.00000000000E+00 -0.33154808192E+02  0.89426215220E+02  0.83053035238E+02 0.  0.
         66    2    3    3    0    0  0.45066624248E+01 -0.38981259513E+02 -0.31136803772E+02  0.50133313758E+02  0.19999999462E+01 0.  0.
        -13    1    3    3    0    0 -0.45066624248E+01  0.38981259513E+02 -0.20180044206E+01  0.39292901462E+02  0.10566000000E+00 0.  1.
         13    1    4    4    0    0  0.21917426296E+01 -0.15588012708E+02 -0.11676753738E+02  0.19599684126E+02  0.10566000000E+00 0. -1.
        -13    1    4    4    0    0  0.81696973755E-01 -0.30136056430E+01 -0.21946029706E+01  0.37304074310E+01  0.10566000000E+00 0. -1.
         14    1    4    4    0    0  0.22332228214E+01 -0.20379641162E+02 -0.17265447063E+02  0.26803222201E+02  0.00000000000E+00 0. -1.
<mgrwt>
<rscale>  0 0.83053035E+02</rscale>
<asrwt>0</asrwt>
<pdfrwt beam="1">  1        2 0.94293094E-02 0.83053035E+02</pdfrwt>
<pdfrwt beam="2">  1       -1 0.43285698E-02 0.83053035E+02</pdfrwt>
<totfact> 0.14125027E+05</totfact>
</mgrwt>
</event>
<event>
 8    1  0.1627221E-013  0.7938376E+02  0.7818608E-02  0.1330809E+00
          2   -1    0    0  501    0  0.00000000000E+00  0.00000000000E+00  0.33665581170E+03  0.33665581171E+03  0.25500000000E-02 0. -1.
         -1   -1    0    0    0  501 -0.00000000000E+00 -0.00000000000E+00 -0.46796906996E+01  0.46796934136E+01  0.50400000000E-02 0.  1.
         24    2    1    2    0    0 -0.35527136788E-14  0.00000000000E+00  0.33197612100E+03  0.34133550513E+03  0.79383764986E+02 0.  0.
         66    2    3    3    0    0  0.23085611770E+02  0.89844299255E+01  0.29930241768E+03  0.30033248689E+03  0.19999994715E+01 0.  0.
        -13    1    3    3    0    0 -0.23085611770E+02 -0.89844299255E+01  0.32673703320E+02  0.41003018237E+02  0.10566000000E+00 0.  1.
         13    1    4    4    0    0  0.19032616831E+01  0.89807765347E+00  0.20606161159E+02  0.20713618473E+02  0.10566000000E+00 0.  1.
        -13    1    4    4    0    0  0.77901655604E+01  0.26106200987E+01  0.10515991949E+03  0.10548043349E+03  0.10566000000E+00 0. -1.
         14    1    4    4    0    0  0.13392184527E+02  0.54757321734E+01  0.17353633703E+03  0.17413843493E+03  0.00000000000E+00 0. -1.
<mgrwt>
<rscale>  0 0.79383765E+02</rscale>
<asrwt>0</asrwt>
<pdfrwt beam="1">  1        2 0.51793224E-01 0.79383765E+02</pdfrwt>
<pdfrwt beam="2">  1       -1 0.71995232E-03 0.79383765E+02</pdfrwt>
<totfact> 0.27120401E+05</totfact>
</mgrwt>
</event>
<event>
 8    1  0.1627221E-013  0.7687071E+02  0.7818608E-02  0.1338174E+00
         -1   -1    0    0    0  501 -0.00000000000E+00  0.00000000000E+00  0.18051017599E+03  0.18051017606E+03  0.50400000000E-02 0.  1.
          2   -1    0    0  501    0  0.00000000000E+00 -0.00000000000E+00 -0.81838956844E+01  0.81838960817E+01  0.25500000000E-02 0. -1.
         24    2    1    2    0    0  0.00000000000E+00  0.00000000000E+00  0.17232628030E+03  0.18869407214E+03  0.76870709490E+02 0.  0.
         66    2    3    3    0    0  0.24386935090E+02 -0.87650978629E+01  0.16630748587E+02  0.30856626316E+02  0.20000113600E+01 0.  0.
        -13    1    3    3    0    0 -0.24386935090E+02  0.87650978629E+01  0.15569553172E+03  0.15783744582E+03  0.10566000000E+00 0.  1.
         13    1    4    4    0    0  0.61928763069E+01 -0.26581978727E+01  0.49856612653E+01  0.83836576249E+01  0.10566000000E+00 0. -1.
        -13    1    4    4    0    0  0.12383076880E+02 -0.40002564003E+01  0.73455092543E+01  0.14943571010E+02  0.10566000000E+00 0.  1.
        -14    1    4    4    0    0  0.58109819024E+01 -0.21066435899E+01  0.42995780671E+01  0.75293976811E+01  0.00000000000E+00 0.  1.
<mgrwt>
<rscale>  0 0.76870709E+02</rscale>
<asrwt>0</asrwt>
<pdfrwt beam="1">  1        2 0.12590610E-02 0.76870709E+02</pdfrwt>
<pdfrwt beam="2">  1       -1 0.27770794E-01 0.76870709E+02</pdfrwt>
<totfact> 0.11357937E+05</totfact>
</mgrwt>
</event>
<event>
 8    1  0.1627221E-013  0.7815149E+02  0.7818608E-02  0.1334381E+00
         -1   -1    0    0    0  501 -0.00000000000E+00  0.00000000000E+00  0.49118510055E+02  0.49118510314E+02  0.50400000000E-02 0.  1.
          2   -1    0    0  501    0  0.00000000000E+00 -0.00000000000E+00 -0.31086322557E+02  0.31086322662E+02  0.25500000000E-02 0. -1.
         24    2    1    2    0    0  0.00000000000E+00  0.00000000000E+00  0.18032187498E+02  0.80204832976E+02  0.78151490368E+02 0.  0.
         66    2    3    3    0    0  0.35333845577E+02  0.33391479420E+01  0.25737283079E+02  0.43886652760E+02  0.19999994898E+01 0.  0.
        -13    1    3    3    0    0 -0.35333845577E+02 -0.33391479420E+01 -0.77050955806E+01  0.36318180216E+02  0.10566000000E+00 0.  1.
         13    1    4    4    0    0  0.18682772200E+02  0.19169783010E+01  0.13625434471E+02  0.23203112107E+02  0.10566000000E+00 0. -1.
        -13    1    4    4    0    0  0.11469276034E+02  0.14175050258E+01  0.78065102766E+01  0.13946554412E+02  0.10566000000E+00 0.  1.
        -14    1    4    4    0    0  0.51817973427E+01  0.46646151070E-02  0.43053383308E+01  0.67369862403E+01  0.00000000000E+00 0.  1.
<mgrwt>
<rscale>  0 0.78151490E+02</rscale>
<asrwt>0</asrwt>
<pdfrwt beam="1">  1        2 0.47825112E-02 0.78151490E+02</pdfrwt>
<pdfrwt beam="2">  1       -1 0.75566939E-02 0.78151490E+02</pdfrwt>
<totfact> 0.14464156E+05</totfact>
</mgrwt>
</event>
<event>
 8    1  0.1627221E-013  0.8110436E+02  0.7818608E-02  0.1325946E+00
          2   -1    0    0  501    0  0.00000000000E+00  0.00000000000E+00  0.54566059104E+02  0.54566059164E+02  0.25500000000E-02 0. -1.
         -1   -1    0    0    0  501 -0.00000000000E+00 -0.00000000000E+00 -0.30137401804E+02  0.30137402225E+02  0.50400000000E-02 0.  1.
         24    2    1    2    0    0 -0.35527136788E-14  0.00000000000E+00  0.24428657300E+02  0.84703461389E+02  0.81104359154E+02 0.  0.
         66    2    3    3    0    0 -0.25065207985E+02 -0.24780623322E+02  0.33112662156E+02  0.48402400138E+02  0.20000001359E+01 0.  0.
        -13    1    3    3    0    0  0.25065207985E+02  0.24780623322E+02 -0.86840048560E+01  0.36301061251E+02  0.10566000000E+00 0.  1.
         13    1    4    4    0    0 -0.13111783993E+02 -0.11905421890E+02  0.15783515816E+02  0.23723163477E+02  0.10566000000E+00 0. -1.
        -13    1    4    4    0    0 -0.69294170328E+01 -0.76770649673E+01  0.10154283770E+02  0.14493957011E+02  0.10566000000E+00 0.  1.
         14    1    4    4    0    0 -0.50240069592E+01 -0.51981364656E+01  0.71748625709E+01  0.10185279650E+02  0.00000000000E+00 0. -1.
<mgrwt>
<rscale>  0 0.81104359E+02</rscale>
<asrwt>0</asrwt>
<pdfrwt beam="1">  1        2 0.83947783E-02 0.81104359E+02</pdfrwt>
<pdfrwt beam="2">  1       -1 0.46365234E-02 0.81104359E+02</pdfrwt>
<totfact> 0.14673678E+05</totfact>
</mgrwt>
</event>
<event>
 8    1  0.1627221E-013  0.8448728E+02  0.7818608E-02  0.1316779E+00
          2   -1    0    0  501    0  0.00000000000E+00  0.00000000000E+00  0.20079337724E+03  0.20079337725E+03  0.25500000000E-02 0. -1.
         -1   -1    0    0    0  501 -0.00000000000E+00 -0.00000000000E+00 -0.88873691582E+01  0.88873705873E+01  0.50400000000E-02 0.  1.
         24    2    1    2    0    0 -0.35527136788E-14 -0.88817841970E-15  0.19190600808E+03  0.20968074784E+03  0.84487277612E+02 0.  0.
         66    2    3    3    0    0  0.19546163546E+02  0.56344717260E+01  0.18782393684E+03  0.18893287444E+03  0.20000032496E+01 0.  0.
        -13    1    3    3    0    0 -0.19546163546E+02 -0.56344717260E+01  0.40820712386E+01  0.20747873400E+02  0.10566000000E+00 0.  1.
         13    1    4    4    0    0  0.97337440841E+00  0.49065468515E+00  0.10178342508E+02  0.10237090407E+02  0.10566000000E+00 0. -1.
        -13    1    4    4    0    0  0.11110631263E+02  0.23019897232E+01  0.10745767904E+03  0.10805512127E+03  0.10566000000E+00 0.  1.
        -14    1    4    4    0    0  0.74621578753E+01  0.28418273176E+01  0.70187915290E+02  0.70640662761E+02  0.00000000000E+00 0.  1.
<mgrwt>
<rscale>  0 0.84487278E+02</rscale>
<asrwt>0</asrwt>
<pdfrwt beam="1">  1        2 0.30891291E-01 0.84487278E+02</pdfrwt>
<pdfrwt beam="2">  1       -1 0.13672876E-02 0.84487278E+02</pdfrwt>
<totfact> 0.19118850E+05</totfact>
</mgrwt>
</event>
<event>
 8    1  0.1627221E-013  0.8079051E+02  0.7818608E-02  0.1326823E+00
          2   -1    0    0  501    0  0.00000000000E+00  0.00000000000E+00  0.17225255836E+03  0.17225255838E+03  0.25500000000E-02 0. -1.
         -1   -1    0    0    0  501 -0.00000000000E+00 -0.00000000000E+00 -0.94731623000E+01  0.94731636407E+01  0.50400000000E-02 0.  1.
         24    2    1    2    0    0  0.00000000000E+00  0.00000000000E+00  0.16277939606E+03  0.18172572202E+03  0.80790508488E+02 0.  0.
         66    2    3    3    0    0  0.32535281517E+02  0.10612415794E+02  0.12960923526E+03  0.13406610973E+03  0.19999999286E+01 0.  0.
        -13    1    3    3    0    0 -0.32535281517E+02 -0.10612415794E+02  0.33170160794E+02  0.47659612289E+02  0.10566000000E+00 0.  1.
         13    1    4    4    0    0  0.10542972794E+02  0.38497348526E+01  0.39571196878E+02  0.41132292912E+02  0.10566000000E+00 0. -1.
        -13    1    4    4    0    0  0.58105852256E+01  0.16715587299E+01  0.22631091915E+02  0.23425082594E+02  0.10566000000E+00 0.  1.
         14    1    4    4    0    0  0.16181723498E+02  0.50911222111E+01  0.67406946470E+02  0.69508734222E+02  0.00000000000E+00 0. -1.
<mgrwt>
<rscale>  0 0.80790508E+02</rscale>
<asrwt>0</asrwt>
<pdfrwt beam="1">  1        2 0.26500394E-01 0.80790508E+02</pdfrwt>
<pdfrwt beam="2">  1       -1 0.14574097E-02 0.80790508E+02</pdfrwt>
<totfact> 0.20422663E+05</totfact>
</mgrwt>
</event>
<event>
 8    1  0.1627221E-013  0.8022683E+02  0.7818608E-02  0.1328409E+00
         -1   -1    0    0    0  501 -0.00000000000E+00  0.00000000000E+00  0.13434481167E+02  0.13434482113E+02  0.50400000000E-02 0.  1.
          2   -1    0    0  501    0  0.00000000000E+00 -0.00000000000E+00 -0.11977283761E+03  0.11977283763E+03  0.25500000000E-02 0. -1.
         24    2    1    2    0    0  0.00000000000E+00  0.00000000000E+00 -0.10633835644E+03  0.13320731975E+03  0.80226828329E+02 0.  0.
         66    2    3    3    0    0  0.18627369641E+02 -0.17318731250E+02 -0.10465162259E+03  0.10771666289E+03  0.20000001062E+01 0.  0.
        -13    1    3    3    0    0 -0.18627369641E+02  0.17318731250E+02 -0.16867338442E+01  0.25490656857E+02  0.10566000000E+00 0.  1.
         13    1    4    4    0    0  0.90660373130E+01 -0.89354468103E+01 -0.54767805851E+02  0.56227741943E+02  0.10566000000E+00 0.  1.
        -13    1    4    4    0    0  0.58013720786E+01 -0.50397523203E+01 -0.32081070264E+02  0.32988804992E+02  0.10566000000E+00 0. -1.
         14    1    4    4    0    0  0.37599602498E+01 -0.33435321198E+01 -0.17802746479E+02  0.18500115954E+02  0.00000000000E+00 0. -1.
<mgrwt>
<rscale>  0 0.80226828E+02</rscale>
<asrwt>0</asrwt>
<pdfrwt beam="1">  1        2 0.18426590E-01 0.80226828E+02</pdfrwt>
<pdfrwt beam="2">  1       -1 0.20668434E-02 0.80226828E+02</pdfrwt>
<totfact> 0.18535451E+05</totfact>
</mgrwt>
</event>
<event>
 8    1  0.1627221E-013  0.8089675E+02  0.7818608E-02  0.1326526E+00
         -1   -1    0    0    0  501 -0.00000000000E+00  0.00000000000E+00  0.65578737001E+01  0.65578756368E+01  0.50400000000E-02 0.  1.
          2   -1    0    0  501    0  0.00000000000E+00 -0.00000000000E+00 -0.24948190583E+03  0.24948190584E+03  0.25500000000E-02 0. -1.
         24    2    1    2    0    0  0.00000000000E+00  0.17763568394E-14 -0.24292403213E+03  0.25603978148E+03  0.80896750948E+02 0.  0.
         66    2    3    3    0    0  0.32264057976E+02 -0.11888254317E+02 -0.18880786866E+03  0.19192371219E+03  0.20000017857E+01 0.  0.
        -13    1    3    3    0    0 -0.32264057976E+02  0.11888254317E+02 -0.54116163471E+02  0.64116069285E+02  0.10566000000E+00 0.  1.
         13    1    4    4    0    0  0.13260532035E+02 -0.55993222295E+01 -0.82011407235E+02  0.83265095929E+02  0.10566000000E+00 0. -1.
        -13    1    4    4    0    0  0.12398618415E+02 -0.37616888971E+01 -0.69658827492E+02  0.70853648131E+02  0.10566000000E+00 0.  1.
         14    1    4    4    0    0  0.66049075259E+01 -0.25272431900E+01 -0.37137633932E+02  0.37804968134E+02  0.00000000000E+00 0. -1.
<mgrwt>
<rscale>  0 0.80896751E+02</rscale>
<asrwt>0</asrwt>
<pdfrwt beam="1">  1        2 0.38381824E-01 0.80896751E+02</pdfrwt>
<pdfrwt beam="2">  1       -1 0.10089040E-02 0.80896751E+02</pdfrwt>
<totfact> 0.23161424E+05</totfact>
</mgrwt>
</event>
<event>
 8    1  0.1627221E-013  0.7762217E+02  0.7818608E-02  0.1335938E+00
          2   -1    0    0  501    0  0.00000000000E+00  0.00000000000E+00  0.14744127374E+03  0.14744127377E+03  0.25500000000E-02 0. -1.
         -1   -1    0    0    0  501 -0.00000000000E+00 -0.00000000000E+00 -0.10216272811E+02  0.10216274054E+02  0.50400000000E-02 0.  1.
         24    2    1    2    0    0  0.00000000000E+00  0.00000000000E+00  0.13722500093E+03  0.15765754782E+03  0.77622171469E+02 0.  0.
         66    2    3    3    0    0 -0.26085512355E+02 -0.30143254880E+00  0.12695232693E+03  0.12962036159E+03  0.20000025492E+01 0.  0.
        -13    1    3    3    0    0  0.26085512355E+02  0.30143254880E+00  0.10272674006E+02  0.28037186230E+02  0.10566000000E+00 0.  1.
         13    1    4    4    0    0 -0.22054438720E+02  0.12706461449E+00  0.10502674297E+03  0.10731748374E+03  0.10566000000E+00 0. -1.
        -13    1    4    4    0    0 -0.15690752173E+01 -0.22273867359E+00  0.98386692281E+01  0.99660516640E+01  0.10566000000E+00 0.  1.
        -14    1    4    4    0    0 -0.24619984184E+01 -0.20575848970E+00  0.12086914729E+02  0.12336826189E+02  0.00000000000E+00 0.  1.
<mgrwt>
<rscale>  0 0.77622171E+02</rscale>
<asrwt>0</asrwt>
<pdfrwt beam="1">  1        2 0.22683272E-01 0.77622171E+02</pdfrwt>
<pdfrwt beam="2">  1       -1 0.15717344E-02 0.77622171E+02</pdfrwt>
<totfact> 0.21577779E+05</totfact>
</mgrwt>
</event>
<event>
 8    1  0.1627221E-013  0.7979609E+02  0.7818608E-02  0.1329631E+00
          2   -1    0    0  501    0  0.00000000000E+00  0.00000000000E+00  0.51457652587E+03  0.51457652588E+03  0.25500000000E-02 0. -1.
         -1   -1    0    0    0  501 -0.00000000000E+00 -0.00000000000E+00 -0.30935206464E+01  0.30935247520E+01  0.50400000000E-02 0.  1.
         24    2    1    2    0    0  0.00000000000E+00  0.17763568394E-14  0.51148300522E+03  0.51767005063E+03  0.79796094422E+02 0.  0.
         66    2    3    3    0    0  0.89258999776E+01  0.13054296980E+02  0.49335892596E+03  0.49361636540E+03  0.20000008180E+01 0.  0.
        -13    1    3    3    0    0 -0.89258999776E+01 -0.13054296980E+02  0.18124079267E+02  0.24053685234E+02  0.10566000000E+00 0.  1.
         13    1    4    4    0    0  0.51149841502E+00  0.56390811681E+00  0.31519101926E+02  0.31528472422E+02  0.10566000000E+00 0. -1.
        -13    1    4    4    0    0  0.60253644455E+01  0.84676289313E+01  0.29751637812E+03  0.29769785383E+03  0.10566000000E+00 0.  1.
        -14    1    4    4    0    0  0.23890371170E+01  0.40227599320E+01  0.16432344591E+03  0.16439003915E+03  0.00000000000E+00 0.  1.
<mgrwt>
<rscale>  0 0.79796094E+02</rscale>
<asrwt>0</asrwt>
<pdfrwt beam="1">  1        2 0.79165608E-01 0.79796094E+02</pdfrwt>
<pdfrwt beam="2">  1       -1 0.47592664E-03 0.79796094E+02</pdfrwt>
<totfact> 0.30934078E+05</totfact>
</mgrwt>
</event>
<event>
 8    1  0.1627221E-013  0.7883624E+02  0.7818608E-02  0.1332387E+00
         -1   -1    0    0    0  501 -0.00000000000E+00  0.00000000000E+00  0.26000184952E+02  0.26000185440E+02  0.50400000000E-02 0.  1.
          2   -1    0    0  501    0  0.00000000000E+00 -0.00000000000E+00 -0.59760661463E+02  0.59760661517E+02  0.25500000000E-02 0. -1.
         24    2    1    2    0    0  0.00000000000E+00  0.71054273576E-14 -0.33760476511E+02  0.85760846958E+02  0.78836242279E+02 0.  0.
         66    2    3    3    0    0  0.10931342811E+02  0.21226530279E+02 -0.50975635421E+02  0.56325618002E+02  0.19999983467E+01 0.  0.
        -13    1    3    3    0    0 -0.10931342811E+02 -0.21226530279E+02  0.17215158910E+02  0.29435228956E+02  0.10566000000E+00 0.  1.
         13    1    4    4    0    0  0.33612954461E+01  0.62126878318E+01 -0.17090088225E+02  0.18492649263E+02  0.10566000000E+00 0. -1.
        -13    1    4    4    0    0  0.97147020162E+00  0.16152908394E+01 -0.35998440647E+01  0.40648444219E+01  0.10566000000E+00 0.  1.
        -14    1    4    4    0    0  0.65985771633E+01  0.13398551608E+02 -0.30285703131E+02  0.33768124317E+02  0.00000000000E+00 0.  1.
<mgrwt>
<rscale>  0 0.78836242E+02</rscale>
<asrwt>0</asrwt>
<pdfrwt beam="1">  1        2 0.91939479E-02 0.78836242E+02</pdfrwt>
<pdfrwt beam="2">  1       -1 0.40000285E-02 0.78836242E+02</pdfrwt>
<totfact> 0.16183842E+05</totfact>
</mgrwt>
</event>
<event>
 8    1  0.1627221E-013  0.7920507E+02  0.7818608E-02  0.1331323E+00
         -1   -1    0    0    0  501 -0.00000000000E+00  0.00000000000E+00  0.34442827309E+01  0.34442864184E+01  0.50400000000E-02 0.  1.
          2   -1    0    0  501    0  0.00000000000E+00 -0.00000000000E+00 -0.45535166264E+03  0.45535166265E+03  0.25500000000E-02 0. -1.
         24    2    1    2    0    0 -0.35527136788E-14 -0.35527136788E-14 -0.45190737991E+03  0.45879594906E+03  0.79205068415E+02 0.  0.
         66    2    3    3    0    0  0.30336420126E+02  0.25410431713E+02 -0.22258660286E+03  0.22608578948E+03  0.20000010548E+01 0.  0.
        -13    1    3    3    0    0 -0.30336420126E+02 -0.25410431713E+02 -0.22932077705E+03  0.23271015959E+03  0.10566000000E+00 0.  1.
         13    1    4    4    0    0  0.16293523393E+02  0.14176577991E+02 -0.12032429370E+03  0.12224729480E+03  0.10566000000E+00 0. -1.
        -13    1    4    4    0    0  0.60537227604E+01  0.45723328409E+01 -0.46330929214E+02  0.46948055900E+02  0.10566000000E+00 0.  1.
        -14    1    4    4    0    0  0.79891739725E+01  0.66615208804E+01 -0.55931379948E+02  0.56890438776E+02  0.00000000000E+00 0.  1.
<mgrwt>
<rscale>  0 0.79205068E+02</rscale>
<asrwt>0</asrwt>
<pdfrwt beam="1">  1        2 0.70054054E-01 0.79205068E+02</pdfrwt>
<pdfrwt beam="2">  1       -1 0.52989030E-03 0.79205068E+02</pdfrwt>
<totfact> 0.30314284E+05</totfact>
</mgrwt>
</event>
<event>
 8    1  0.1627221E-013  0.8300768E+02  0.7818608E-02  0.1320726E+00
          2   -1    0    0  501    0  0.00000000000E+00  0.00000000000E+00  0.14762777753E+03  0.14762777756E+03  0.25500000000E-02 0. -1.
         -1   -1    0    0    0  501 -0.00000000000E+00 -0.00000000000E+00 -0.11668323325E+02  0.11668324413E+02  0.50400000000E-02 0.  1.
         24    2    1    2    0    0  0.00000000000E+00  0.00000000000E+00  0.13595945421E+03  0.15929610197E+03  0.83007679847E+02 0.  0.
         66    2    3    3    0    0 -0.27116609728E+02  0.30318945442E+02  0.83611279964E+02  0.93002124213E+02  0.19999987726E+01 0.  0.
        -13    1    3    3    0    0  0.27116609728E+02 -0.30318945442E+02  0.52348174246E+02  0.66293977756E+02  0.10566000000E+00 0.  1.
         13    1    4    4    0    0 -0.10086615033E+02  0.11200398612E+02  0.31435492900E+02  0.34862445551E+02  0.10566000000E+00 0. -1.
        -13    1    4    4    0    0 -0.15827655100E+02  0.17990854766E+02  0.47959195548E+02  0.53612322490E+02  0.10566000000E+00 0.  1.
        -14    1    4    4    0    0 -0.12023395950E+01  0.11276920639E+01  0.42165915165E+01  0.45273561722E+01  0.00000000000E+00 0.  1.
<mgrwt>
<rscale>  0 0.83007680E+02</rscale>
<asrwt>0</asrwt>
<pdfrwt beam="1">  1        2 0.22711967E-01 0.83007680E+02</pdfrwt>
<pdfrwt beam="2">  1       -1 0.17951267E-02 0.83007680E+02</pdfrwt>
<totfact> 0.18064480E+05</totfact>
</mgrwt>
</event>
<event>
 8    1  0.1627221E-013  0.8021484E+02  0.7818608E-02  0.1328443E+00
          2   -1    0    0  501    0  0.00000000000E+00  0.00000000000E+00  0.45756588388E+03  0.45756588389E+03  0.25500000000E-02 0. -1.
         -1   -1    0    0    0  501 -0.00000000000E+00 -0.00000000000E+00 -0.35155688064E+01  0.35155724191E+01  0.50400000000E-02 0.  1.
         24    2    1    2    0    0  0.00000000000E+00  0.00000000000E+00  0.45405031508E+03  0.46108145631E+03  0.80214841089E+02 0.  0.
         66    2    3    3    0    0  0.34497733628E+02  0.17800142995E+02  0.28454934391E+03  0.28719203999E+03  0.19999999879E+01 0.  0.
        -13    1    3    3    0    0 -0.34497733628E+02 -0.17800142995E+02  0.16950097117E+03  0.17388941632E+03  0.10566000000E+00 0.  1.
         13    1    4    4    0    0  0.98530412226E+01  0.52758570797E+01  0.78908948793E+02  0.79696615065E+02  0.10566000000E+00 0. -1.
        -13    1    4    4    0    0  0.48792625802E+01  0.28345871117E+01  0.45771149523E+02  0.46117798952E+02  0.10566000000E+00 0.  1.
        -14    1    4    4    0    0  0.19765429825E+02  0.96896988039E+01  0.15986924559E+03  0.16137762597E+03  0.00000000000E+00 0.  1.
<mgrwt>
<rscale>  0 0.80214841E+02</rscale>
<asrwt>0</asrwt>
<pdfrwt beam="1">  1        2 0.70394754E-01 0.80214841E+02</pdfrwt>
<pdfrwt beam="2">  1       -1 0.54085700E-03 0.80214841E+02</pdfrwt>
<totfact> 0.29376745E+05</totfact>
</mgrwt>
</event>
<event>
 8    1  0.1627221E-013  0.7911058E+02  0.7818608E-02  0.1331595E+00
         -1   -1    0    0    0  501 -0.00000000000E+00  0.00000000000E+00  0.41312245124E+01  0.41312275868E+01  0.50400000000E-02 0.  1.
          2   -1    0    0  501    0  0.00000000000E+00 -0.00000000000E+00 -0.37873038940E+03  0.37873038940E+03  0.25500000000E-02 0. -1.
         24    2    1    2    0    0 -0.35527136788E-14 -0.35527136788E-14 -0.37459916488E+03  0.38286161699E+03  0.79110577256E+02 0.  0.
         66    2    3    3    0    0  0.18045949908E+02  0.31014336834E+02 -0.26768452790E+03  0.27008619342E+03  0.19999998508E+01 0.  0.
        -13    1    3    3    0    0 -0.18045949908E+02 -0.31014336834E+02 -0.10691463698E+03  0.11277542357E+03  0.10566000000E+00 0.  1.
         13    1    4    4    0    0  0.70923375139E+01  0.12831974129E+02 -0.10603969106E+03  0.10704853131E+03  0.10566000000E+00 0. -1.
        -13    1    4    4    0    0  0.57042208999E+01  0.10682407244E+02 -0.91440339213E+02  0.92238813739E+02  0.10566000000E+00 0.  1.
         14    1    4    4    0    0  0.52493914940E+01  0.74999554603E+01 -0.70204497629E+02  0.70798848368E+02  0.00000000000E+00 0. -1.
<mgrwt>
<rscale>  0 0.79110577E+02</rscale>
<asrwt>0</asrwt>
<pdfrwt beam="1">  1        2 0.58266186E-01 0.79110577E+02</pdfrwt>
<pdfrwt beam="2">  1       -1 0.63557354E-03 0.79110577E+02</pdfrwt>
<totfact> 0.28536865E+05</totfact>
</mgrwt>
</event>
<event>
 8    1  0.1627221E-013  0.8087281E+02  0.7818608E-02  0.1326593E+00
         -1   -1    0    0    0  501 -0.00000000000E+00  0.00000000000E+00  0.42574683902E+02  0.42574684200E+02  0.50400000000E-02 0.  1.
          2   -1    0    0  501    0  0.00000000000E+00 -0.00000000000E+00 -0.38405518462E+02  0.38405518547E+02  0.25500000000E-02 0. -1.
         24    2    1    2    0    0  0.00000000000E+00  0.88817841970E-15  0.41691654398E+01  0.80980202747E+02  0.80872809376E+02 0.  0.
         66    2    3    3    0    0 -0.30273243557E+02  0.59680720039E+01 -0.24044981411E+02  0.39169481569E+02  0.19999991203E+01 0.  0.
        -13    1    3    3    0    0  0.30273243557E+02 -0.59680720039E+01  0.28214146850E+02  0.41810721178E+02  0.10566000000E+00 0.  1.
         13    1    4    4    0    0 -0.17518316371E+02  0.27730631961E+01 -0.14288309835E+02  0.22776045529E+02  0.10566000000E+00 0. -1.
        -13    1    4    4    0    0 -0.90447520362E+00  0.28550460093E+00 -0.93649574567E+00  0.13370776299E+01  0.10566000000E+00 0. -1.
         14    1    4    4    0    0 -0.11850451982E+02  0.29095042068E+01 -0.88201758298E+01  0.15056358410E+02  0.00000000000E+00 0. -1.
<mgrwt>
<rscale>  0 0.80872809E+02</rscale>
<asrwt>0</asrwt>
<pdfrwt beam="1">  1        2 0.59085413E-02 0.80872809E+02</pdfrwt>
<pdfrwt beam="2">  1       -1 0.65499514E-02 0.80872809E+02</pdfrwt>
<totfact> 0.13718110E+05</totfact>
</mgrwt>
</event>
<event>
 8    1  0.1627221E-013  0.7870077E+02  0.7818608E-02  0.1332779E+00
          2   -1    0    0  501    0  0.00000000000E+00  0.00000000000E+00  0.52915607564E+02  0.52915607626E+02  0.25500000000E-02 0. -1.
         -1   -1    0    0    0  501 -0.00000000000E+00 -0.00000000000E+00 -0.29262683163E+02  0.29262683597E+02  0.50400000000E-02 0.  1.
         24    2    1    2    0    0  0.00000000000E+00 -0.35527136788E-14  0.23652924401E+02  0.82178291223E+02  0.78700766931E+02 0.  0.
         66    2    3    3    0    0  0.27408801289E+02 -0.21132748357E+02 -0.76621000414E+01  0.35504129623E+02  0.20000005035E+01 0.  0.
        -13    1    3    3    0    0 -0.27408801289E+02  0.21132748357E+02  0.31315024443E+02  0.46674161600E+02  0.10566000000E+00 0.  1.
         13    1    4    4    0    0  0.30192517138E+01 -0.19027264026E+01 -0.75379662007E+00  0.36490576941E+01  0.10566000000E+00 0. -1.
        -13    1    4    4    0    0  0.18899488409E+01 -0.20316265326E+01 -0.57934748269E+00  0.28365860696E+01  0.10566000000E+00 0.  1.
         14    1    4    4    0    0  0.22499600734E+02 -0.17198395422E+02 -0.63289559387E+01  0.29018485859E+02  0.00000000000E+00 0. -1.
<mgrwt>
<rscale>  0 0.78700767E+02</rscale>
<asrwt>0</asrwt>
<pdfrwt beam="1">  1        2 0.81408628E-02 0.78700767E+02</pdfrwt>
<pdfrwt beam="2">  1       -1 0.45019513E-02 0.78700767E+02</pdfrwt>
<totfact> 0.15821854E+05</totfact>
</mgrwt>
</event>
<event>
 8    1  0.1627221E-013  0.8635717E+02  0.7818608E-02  0.1311921E+00
         -1   -1    0    0    0  501 -0.00000000000E+00  0.00000000000E+00  0.10630802203E+01  0.10630921674E+01  0.50400000000E-02 0.  1.
          2   -1    0    0  501    0  0.00000000000E+00 -0.00000000000E+00 -0.17537524925E+04  0.17537524925E+04  0.25500000000E-02 0. -1.
         24    2    1    2    0    0  0.88817841970E-15  0.00000000000E+00 -0.17526894123E+04  0.17548155847E+04  0.86357166933E+02 0.  0.
         66    2    3    3    0    0  0.51522732959E+01 -0.19105431145E+02 -0.16561285472E+04  0.16562479670E+04  0.19999994867E+01 0.  0.
        -13    1    3    3    0    0 -0.51522732959E+01  0.19105431145E+02 -0.96560865054E+02  0.98567617620E+02  0.10566000000E+00 0.  1.
         13    1    4    4    0    0  0.29445768666E+01 -0.10934265275E+02 -0.88264516844E+03  0.88271781064E+03  0.10566000000E+00 0. -1.
        -13    1    4    4    0    0  0.36111881301E-01 -0.62842369991E+00 -0.73517751798E+02  0.73520522399E+02  0.10566000000E+00 0.  1.
        -14    1    4    4    0    0  0.21715845480E+01 -0.75427421703E+01 -0.69996562697E+03  0.70000963399E+03  0.00000000000E+00 0.  1.
<mgrwt>
<rscale>  0 0.86357167E+02</rscale>
<asrwt>0</asrwt>
<pdfrwt beam="1">  1        2 0.26980576E+00 0.86357167E+02</pdfrwt>
<pdfrwt beam="2">  1       -1 0.16355313E-03 0.86357167E+02</pdfrwt>
<totfact> 0.25176104E+05</totfact>
</mgrwt>
</event>
<event>
 8    1  0.1627221E-013  0.8132908E+02  0.7818608E-02  0.1325321E+00
          2   -1    0    0  501    0  0.00000000000E+00  0.00000000000E+00  0.40343553530E+03  0.40343553531E+03  0.25500000000E-02 0. -1.
         -1   -1    0    0    0  501 -0.00000000000E+00 -0.00000000000E+00 -0.40988059613E+01  0.40988090600E+01  0.50400000000E-02 0.  1.
         24    2    1    2    0    0  0.00000000000E+00  0.00000000000E+00  0.39933672934E+03  0.40753434437E+03  0.81329075001E+02 0.  0.
         66    2    3    3    0    0 -0.40490695817E+02  0.11295859271E+01  0.21627711083E+03  0.22004672477E+03  0.19999995884E+01 0.  0.
        -13    1    3    3    0    0  0.40490695817E+02 -0.11295859271E+01  0.18305961851E+03  0.18748761960E+03  0.10566000000E+00 0.  1.
         13    1    4    4    0    0 -0.25144989847E+01 -0.13590779224E+00  0.12301184058E+02  0.12556730042E+02  0.10566000000E+00 0. -1.
        -13    1    4    4    0    0 -0.11385660519E+02  0.23522650560E+00  0.64716153135E+02  0.65710579343E+02  0.10566000000E+00 0.  1.
        -14    1    4    4    0    0 -0.26590536314E+02  0.10302672137E+01  0.13925977364E+03  0.14177941538E+03  0.00000000000E+00 0.  1.
<mgrwt>
<rscale>  0 0.81329075E+02</rscale>
<asrwt>0</asrwt>
<pdfrwt beam="1">  1        2 0.62067014E-01 0.81329075E+02</pdfrwt>
<pdfrwt beam="2">  1       -1 0.63058569E-03 0.81329075E+02</pdfrwt>
<totfact> 0.27143438E+05</totfact>
</mgrwt>
</event>
<event>
 8    1  0.1627221E-013  0.8244219E+02  0.7818608E-02  0.1322260E+00
          2   -1    0    0  501    0  0.00000000000E+00  0.00000000000E+00  0.12970963396E+03  0.12970963398E+03  0.25500000000E-02 0. -1.
         -1   -1    0    0    0  501 -0.00000000000E+00 -0.00000000000E+00 -0.13099865258E+02  0.13099866228E+02  0.50400000000E-02 0.  1.
         24    2    1    2    0    0  0.17763568394E-14  0.88817841970E-15  0.11660976870E+03  0.14280950021E+03  0.82442193047E+02 0.  0.
         66    2    3    3    0    0 -0.11510296572E+02 -0.58501902506E+01  0.12610619573E+03  0.12678124567E+03  0.19999998640E+01 0.  0.
        -13    1    3    3    0    0  0.11510296572E+02  0.58501902506E+01 -0.94964270315E+01  0.16028254538E+02  0.10566000000E+00 0.  1.
         13    1    4    4    0    0 -0.28490619379E+01 -0.84713938321E+00  0.26270815764E+02  0.26438640737E+02  0.10566000000E+00 0. -1.
        -13    1    4    4    0    0 -0.24883152016E+00 -0.34200120825E+00  0.31379112482E+01  0.31680487669E+01  0.10566000000E+00 0.  1.
        -14    1    4    4    0    0 -0.84124031139E+01 -0.46610496591E+01  0.96697468720E+02  0.97174556170E+02  0.00000000000E+00 0.  1.
<mgrwt>
<rscale>  0 0.82442193E+02</rscale>
<asrwt>0</asrwt>
<pdfrwt beam="1">  1        2 0.19955329E-01 0.82442193E+02</pdfrwt>
<pdfrwt beam="2">  1       -1 0.20153639E-02 0.82442193E+02</pdfrwt>
<totfact> 0.17659201E+05</totfact>
</mgrwt>
</event>
<event>
 8    1  0.1627221E-013  0.8049802E+02  0.7818608E-02  0.1327644E+00
         -1   -1    0    0    0  501 -0.00000000000E+00  0.00000000000E+00  0.23732773427E+02  0.23732773962E+02  0.50400000000E-02 0.  1.
          2   -1    0    0  501    0  0.00000000000E+00 -0.00000000000E+00 -0.68259314305E+02  0.68259314353E+02  0.25500000000E-02 0. -1.
         24    2    1    2    0    0 -0.35527136788E-14  0.00000000000E+00 -0.44526540878E+02  0.91992088315E+02  0.80498021529E+02 0.  0.
         66    2    3    3    0    0  0.23344623166E+02 -0.49165141613E+01 -0.59286944209E+02  0.63938136494E+02  0.20000006348E+01 0.  0.
        -13    1    3    3    0    0 -0.23344623166E+02  0.49165141613E+01  0.14760403331E+02  0.28053951821E+02  0.10566000000E+00 0.  1.
         13    1    4    4    0    0  0.11032673817E+02 -0.14648187337E+01 -0.27275106581E+02  0.29458584292E+02  0.10566000000E+00 0. -1.
        -13    1    4    4    0    0  0.10436396626E+01 -0.47788538491E+00 -0.26867989050E+01  0.29236296924E+01  0.10566000000E+00 0.  1.
        -14    1    4    4    0    0  0.11268309686E+02 -0.29738100428E+01 -0.29325038723E+02  0.31555922510E+02  0.00000000000E+00 0.  1.
<mgrwt>
<rscale>  0 0.80498022E+02</rscale>
<asrwt>0</asrwt>
<pdfrwt beam="1">  1        2 0.10501433E-01 0.80498022E+02</pdfrwt>
<pdfrwt beam="2">  1       -1 0.36511960E-02 0.80498022E+02</pdfrwt>
<totfact> 0.15780322E+05</totfact>
</mgrwt>
</event>
<event>
 8    1  0.1627221E-013  0.7832072E+02  0.7818608E-02  0.1333886E+00
          2   -1    0    0  501    0  0.00000000000E+00  0.00000000000E+00  0.48613037569E+03  0.48613037570E+03  0.25500000000E-02 0. -1.
         -1   -1    0    0    0  501 -0.00000000000E+00 -0.00000000000E+00 -0.31545706665E+01  0.31545746927E+01  0.50400000000E-02 0.  1.
         24    2    1    2    0    0  0.00000000000E+00  0.00000000000E+00  0.48297580502E+03  0.48928495039E+03  0.78320715264E+02 0.  0.
         66    2    3    3    0    0 -0.77667101076E+01  0.28320575480E+02  0.40324724603E+03  0.40432006903E+03  0.20000018074E+01 0.  0.
        -13    1    3    3    0    0  0.77667101076E+01 -0.28320575480E+02  0.79728558994E+02  0.84964881362E+02  0.10566000000E+00 0.  1.
         13    1    4    4    0    0 -0.46310191381E+01  0.14076747384E+02  0.20102292734E+03  0.20156842421E+03  0.10566000000E+00 0. -1.
        -13    1    4    4    0    0 -0.19172493279E+01  0.85125047383E+01  0.12703016919E+03  0.12732954736E+03  0.10566000000E+00 0.  1.
         14    1    4    4    0    0 -0.12184416415E+01  0.57313233577E+01  0.75194149494E+02  0.75422097463E+02  0.00000000000E+00 0. -1.
<mgrwt>
<rscale>  0 0.78320715E+02</rscale>
<asrwt>0</asrwt>
<pdfrwt beam="1">  1        2 0.74789353E-01 0.78320715E+02</pdfrwt>
<pdfrwt beam="2">  1       -1 0.48531846E-03 0.78320715E+02</pdfrwt>
<totfact> 0.31891589E+05</totfact>
</mgrwt>
</event>
<event>
 8    1  0.1627221E-013  0.7977048E+02  0.7818608E-02  0.1329704E+00
          2   -1    0    0  501    0  0.00000000000E+00  0.00000000000E+00  0.18109252965E+02  0.18109253145E+02  0.25500000000E-02 0. -1.
         -1   -1    0    0    0  501 -0.00000000000E+00 -0.00000000000E+00 -0.87846379900E+02  0.87846380045E+02  0.50400000000E-02 0.  1.
         24    2    1    2    0    0  0.00000000000E+00  0.00000000000E+00 -0.69737126935E+02  0.10595563319E+03  0.79770479072E+02 0.  0.
         66    2    3    3    0    0 -0.33287901723E+02 -0.25538337736E+01 -0.59654975509E+01  0.33973424649E+02  0.19999883174E+01 0.  0.
        -13    1    3    3    0    0  0.33287901723E+02  0.25538337736E+01 -0.63771629384E+02  0.71982208541E+02  0.10566000000E+00 0.  1.
         13    1    4    4    0    0 -0.10569793186E+02 -0.94556062459E+00 -0.23351959623E+01  0.10866412339E+02  0.10566000000E+00 0. -1.
        -13    1    4    4    0    0 -0.12890178935E+02 -0.15257539421E+01 -0.24240079362E+01  0.13204984535E+02  0.10566000000E+00 0.  1.
         14    1    4    4    0    0 -0.98279296019E+01 -0.82519206831E-01 -0.12062936524E+01  0.99020277749E+01  0.00000000000E+00 0. -1.
<mgrwt>
<rscale>  0 0.79770479E+02</rscale>
<asrwt>0</asrwt>
<pdfrwt beam="1">  1        2 0.27860390E-02 0.79770479E+02</pdfrwt>
<pdfrwt beam="2">  1       -1 0.13514828E-01 0.79770479E+02</pdfrwt>
<totfact> 0.12267551E+05</totfact>
</mgrwt>
</event>
<event>
 8    1  0.1627221E-013  0.7975733E+02  0.7818608E-02  0.1329742E+00
         -1   -1    0    0    0  501 -0.00000000000E+00  0.00000000000E+00  0.16336224619E+02  0.16336225396E+02  0.50400000000E-02 0.  1.
          2   -1    0    0  501    0  0.00000000000E+00 -0.00000000000E+00 -0.97348554781E+02  0.97348554815E+02  0.25500000000E-02 0. -1.
         24    2    1    2    0    0  0.71054273576E-14  0.88817841970E-15 -0.81012330163E+02  0.11368478021E+03  0.79757329526E+02 0.  0.
         66    2    3    3    0    0 -0.38830526140E+02 -0.73082482532E+01 -0.47949407703E+02  0.62164024603E+02  0.20000007204E+01 0.  0.
        -13    1    3    3    0    0  0.38830526140E+02  0.73082482532E+01 -0.33062922459E+02  0.51520755608E+02  0.10566000000E+00 0.  1.
         13    1    4    4    0    0 -0.16299400963E+02 -0.37513819872E+01 -0.20783350512E+02  0.26677746552E+02  0.10566000000E+00 0. -1.
        -13    1    4    4    0    0 -0.17242455606E+02 -0.31197351468E+01 -0.20644363567E+02  0.27078329598E+02  0.10566000000E+00 0. -1.
         14    1    4    4    0    0 -0.52886695713E+01 -0.43713111917E+00 -0.65216936243E+01  0.84079484525E+01  0.00000000000E+00 0. -1.
<mgrwt>
<rscale>  0 0.79757330E+02</rscale>
<asrwt>0</asrwt>
<pdfrwt beam="1">  1        2 0.14976700E-01 0.79757330E+02</pdfrwt>
<pdfrwt beam="2">  1       -1 0.25132655E-02 0.79757330E+02</pdfrwt>
<totfact> 0.17737535E+05</totfact>
</mgrwt>
</event>
<event>
 8    1  0.1627221E-013  0.7799759E+02  0.7818608E-02  0.1334832E+00
          2   -1    0    0  501    0  0.00000000000E+00  0.00000000000E+00  0.28966564105E+03  0.28966564106E+03  0.25500000000E-02 0. -1.
         -1   -1    0    0    0  501 -0.00000000000E+00 -0.00000000000E+00 -0.52505557779E+01  0.52505581968E+01  0.50400000000E-02 0.  1.
         24    2    1    2    0    0  0.00000000000E+00  0.00000000000E+00  0.28441508527E+03  0.29491619926E+03  0.77997588773E+02 0.  0.
         66    2    3    3    0    0 -0.17240870002E+01 -0.36263526840E+02  0.19589172694E+03  0.19923750785E+03  0.19999991166E+01 0.  0.
        -13    1    3    3    0    0  0.17240870002E+01  0.36263526840E+02  0.88523358331E+02  0.95678691406E+02  0.10566000000E+00 0.  1.
         13    1    4    4    0    0 -0.47348812412E+00 -0.13666585536E+02  0.76428249509E+02  0.77642051996E+02  0.10566000000E+00 0. -1.
        -13    1    4    4    0    0  0.30742753543E-01 -0.85004989655E+00  0.58286085232E+01  0.58912962322E+01  0.10566000000E+00 0.  1.
        -14    1    4    4    0    0 -0.12813416297E+01 -0.21746891407E+02  0.11363486891E+03  0.11570415962E+03  0.00000000000E+00 0.  1.
<mgrwt>
<rscale>  0 0.77997589E+02</rscale>
<asrwt>0</asrwt>
<pdfrwt beam="1">  1        2 0.44563950E-01 0.77997589E+02</pdfrwt>
<pdfrwt beam="2">  1       -1 0.80777791E-03 0.77997589E+02</pdfrwt>
<totfact> 0.26901241E+05</totfact>
</mgrwt>
</event>
<event>
 8    1  0.1627221E-013  0.7982648E+02  0.7818608E-02  0.1329545E+00
          2   -1    0    0  501    0  0.00000000000E+00  0.00000000000E+00  0.73635946494E+03  0.73635946495E+03  0.25500000000E-02 0. -1.
         -1   -1    0    0    0  501 -0.00000000000E+00 -0.00000000000E+00 -0.21634332560E+01  0.21634391267E+01  0.50400000000E-02 0.  1.
         24    2    1    2    0    0  0.00000000000E+00  0.00000000000E+00  0.73419603169E+03  0.73852290407E+03  0.79826479924E+02 0.  0.
         66    2    3    3    0    0  0.27431100578E+01  0.16909920452E+02  0.70058997926E+03  0.70080224679E+03  0.19999994445E+01 0.  0.
        -13    1    3    3    0    0 -0.27431100578E+01 -0.16909920452E+02  0.33606052424E+02  0.37720657286E+02  0.10566000000E+00 0.  1.
         13    1    4    4    0    0  0.13328082171E+01  0.52134920294E+01  0.19296621466E+03  0.19304125995E+03  0.10566000000E+00 0. -1.
        -13    1    4    4    0    0  0.11957452888E+01  0.69673005234E+01  0.30372701545E+03  0.30380928913E+03  0.10566000000E+00 0.  1.
         14    1    4    4    0    0  0.21455655199E+00  0.47291278995E+01  0.20389674915E+03  0.20395169771E+03  0.00000000000E+00 0. -1.
<mgrwt>
<rscale>  0 0.79826480E+02</rscale>
<asrwt>0</asrwt>
<pdfrwt beam="1">  1        2 0.11328614E+00 0.79826480E+02</pdfrwt>
<pdfrwt beam="2">  1       -1 0.33283613E-03 0.79826480E+02</pdfrwt>
<totfact> 0.34016404E+05</totfact>
</mgrwt>
</event>
<event>
 8    1  0.1627221E-013  0.7845447E+02  0.7818608E-02  0.1333496E+00
          2   -1    0    0  501    0  0.00000000000E+00  0.00000000000E+00  0.13421485400E+04  0.13421485400E+04  0.25500000000E-02 0. -1.
         -1   -1    0    0    0  501 -0.00000000000E+00 -0.00000000000E+00 -0.11464964185E+01  0.11465074964E+01  0.50400000000E-02 0.  1.
         24    2    1    2    0    0  0.00000000000E+00  0.00000000000E+00  0.13410020436E+04  0.13432950475E+04  0.78454469248E+02 0.  0.
         66    2    3    3    0    0  0.13439900037E+02 -0.17089905539E+02  0.12294570336E+04  0.12296508827E+04  0.19999978685E+01 0.  0.
        -13    1    3    3    0    0 -0.13439900037E+02  0.17089905539E+02  0.11154500995E+03  0.11364416480E+03  0.10566000000E+00 0.  1.
         13    1    4    4    0    0  0.49664614324E+01 -0.57845549591E+01  0.45851983082E+03  0.45858322389E+03  0.10566000000E+00 0. -1.
        -13    1    4    4    0    0  0.66885810655E+01 -0.81090910659E+01  0.58434453774E+03  0.58443908530E+03  0.10566000000E+00 0. -1.
         14    1    4    4    0    0  0.17848575388E+01 -0.31962595137E+01  0.18659266507E+03  0.18662857351E+03  0.00000000000E+00 0. -1.
<mgrwt>
<rscale>  0 0.78454469E+02</rscale>
<asrwt>0</asrwt>
<pdfrwt beam="1">  1        2 0.20648423E+00 0.78454469E+02</pdfrwt>
<pdfrwt beam="2">  1       -1 0.17638505E-03 0.78454469E+02</pdfrwt>
<totfact> 0.36168814E+05</totfact>
</mgrwt>
</event>
<event>
 8    1  0.1627221E-013  0.7928117E+02  0.7818608E-02  0.1331104E+00
          2   -1    0    0  501    0  0.00000000000E+00  0.00000000000E+00  0.48040898765E+03  0.48040898766E+03  0.25500000000E-02 0. -1.
         -1   -1    0    0    0  501 -0.00000000000E+00 -0.00000000000E+00 -0.32709110219E+01  0.32709149049E+01  0.50400000000E-02 0.  1.
         24    2    1    2    0    0  0.00000000000E+00  0.22204460493E-15  0.47713807663E+03  0.48367990257E+03  0.79281170361E+02 0.  0.
         66    2    3    3    0    0 -0.11104091467E+02  0.17560889075E+01  0.47047009379E+03  0.47060864192E+03  0.20000019172E+01 0.  0.
        -13    1    3    3    0    0  0.11104091467E+02 -0.17560889075E+01  0.66679828443E+01  0.13071260643E+02  0.10566000000E+00 0.  1.
         13    1    4    4    0    0 -0.27575676093E+01  0.17988087783E+00  0.13805461357E+03  0.13808230889E+03  0.10566000000E+00 0. -1.
        -13    1    4    4    0    0 -0.51562122785E+01  0.10682050846E+01  0.18212641905E+03  0.18220255560E+03  0.10566000000E+00 0.  1.
        -14    1    4    4    0    0 -0.31903115792E+01  0.50800294500E+00  0.15028906116E+03  0.15032377743E+03  0.00000000000E+00 0.  1.
<mgrwt>
<rscale>  0 0.79281170E+02</rscale>
<asrwt>0</asrwt>
<pdfrwt beam="1">  1        2 0.73909060E-01 0.79281170E+02</pdfrwt>
<pdfrwt beam="2">  1       -1 0.50321748E-03 0.79281170E+02</pdfrwt>
<totfact> 0.30777208E+05</totfact>
</mgrwt>
</event>
<event>
 8    1  0.1627221E-013  0.8252096E+02  0.7818608E-02  0.1322046E+00
          2   -1    0    0  501    0  0.00000000000E+00  0.00000000000E+00  0.78292647892E+03  0.78292647892E+03  0.25500000000E-02 0. -1.
         -1   -1    0    0    0  501 -0.00000000000E+00 -0.00000000000E+00 -0.21744378884E+01  0.21744437293E+01  0.50400000000E-02 0.  1.
         24    2    1    2    0    0  0.00000000000E+00  0.00000000000E+00  0.78075204103E+03  0.78510092265E+03  0.82520962042E+02 0.  0.
         66    2    3    3    0    0  0.11809426775E+02  0.86097864203E+01  0.75745766905E+03  0.75760128788E+03  0.20000003709E+01 0.  0.
        -13    1    3    3    0    0 -0.11809426775E+02 -0.86097864203E+01  0.23294371976E+02  0.27499634774E+02  0.10566000000E+00 0.  1.
         13    1    4    4    0    0  0.44641529453E+01  0.31233292984E+01  0.27141165037E+03  0.27146634960E+03  0.10566000000E+00 0. -1.
        -13    1    4    4    0    0  0.11580724694E+01  0.32986207932E+00  0.50589868399E+02  0.50604307025E+02  0.10566000000E+00 0. -1.
        -14    1    4    4    0    0  0.61872013599E+01  0.51565950425E+01  0.43545615029E+03  0.43553063125E+03  0.00000000000E+00 0.  1.
<mgrwt>
<rscale>  0 0.82520962E+02</rscale>
<asrwt>0</asrwt>
<pdfrwt beam="1">  1        2 0.12045006E+00 0.82520962E+02</pdfrwt>
<pdfrwt beam="2">  1       -1 0.33452981E-03 0.82520962E+02</pdfrwt>
<totfact> 0.31579157E+05</totfact>
</mgrwt>
</event>
<event>
 8    1  0.1627221E-013  0.8019456E+02  0.7818608E-02  0.1328500E+00
         -1   -1    0    0    0  501 -0.00000000000E+00  0.00000000000E+00  0.17110338636E+02  0.17110339378E+02  0.50400000000E-02 0.  1.
          2   -1    0    0  501    0  0.00000000000E+00 -0.00000000000E+00 -0.93966100885E+02  0.93966100920E+02  0.25500000000E-02 0. -1.
         24    2    1    2    0    0 -0.35527136788E-14 -0.17763568394E-14 -0.76855762249E+02  0.11107644030E+03  0.80194559656E+02 0.  0.
         66    2    3    3    0    0 -0.17063330297E+02 -0.97405877836E+01 -0.86825778427E+02  0.89043540402E+02  0.19999991834E+01 0.  0.
        -13    1    3    3    0    0  0.17063330297E+02  0.97405877836E+01  0.99700161781E+01  0.22032899896E+02  0.10566000000E+00 0.  1.
         13    1    4    4    0    0 -0.38956163210E+01 -0.29758348513E+01 -0.21972083362E+02  0.22512552740E+02  0.10566000000E+00 0. -1.
        -13    1    4    4    0    0 -0.15544573362E+01 -0.67538665054E+00 -0.89850121335E+01  0.91440741364E+01  0.10566000000E+00 0.  1.
         14    1    4    4    0    0 -0.11613256639E+02 -0.60893662818E+01 -0.55868682932E+02  0.57386913526E+02  0.00000000000E+00 0. -1.
<mgrwt>
<rscale>  0 0.80194560E+02</rscale>
<asrwt>0</asrwt>
<pdfrwt beam="1">  1        2 0.14456323E-01 0.80194560E+02</pdfrwt>
<pdfrwt beam="2">  1       -1 0.26323599E-02 0.80194560E+02</pdfrwt>
<totfact> 0.17310066E+05</totfact>
</mgrwt>
</event>
<event>
 8    1  0.1627221E-013  0.8113982E+02  0.7818608E-02  0.1325848E+00
          2   -1    0    0  501    0  0.00000000000E+00  0.00000000000E+00  0.25887412491E+02  0.25887412617E+02  0.25500000000E-02 0. -1.
         -1   -1    0    0    0  501 -0.00000000000E+00 -0.00000000000E+00 -0.63579848233E+02  0.63579848432E+02  0.50400000000E-02 0.  1.
         24    2    1    2    0    0  0.00000000000E+00  0.00000000000E+00 -0.37692435741E+02  0.89467261050E+02  0.81139824301E+02 0.  0.
         66    2    3    3    0    0  0.16588423875E+01 -0.30943787902E+02  0.99723723821E+01  0.32614689733E+02  0.20000019206E+01 0.  0.
        -13    1    3    3    0    0 -0.16588423875E+01  0.30943787902E+02 -0.47664808123E+02  0.56852571316E+02  0.10566000000E+00 0.  1.
         13    1    4    4    0    0  0.62632533336E+00 -0.33381185758E+01  0.70728014324E+00  0.34708397090E+01  0.10566000000E+00 0. -1.
        -13    1    4    4    0    0  0.10107078998E+01 -0.27179731535E+02  0.90405538359E+01  0.28661858182E+02  0.10566000000E+00 0.  1.
        -14    1    4    4    0    0  0.21809154371E-01 -0.42593779110E+00  0.22453840305E+00  0.48199184178E+00  0.00000000000E+00 0.  1.
<mgrwt>
<rscale>  0 0.81139824E+02</rscale>
<asrwt>0</asrwt>
<pdfrwt beam="1">  1        2 0.39826789E-02 0.81139824E+02</pdfrwt>
<pdfrwt beam="2">  1       -1 0.97815151E-02 0.81139824E+02</pdfrwt>
<totfact> 0.12557115E+05</totfact>
</mgrwt>
</event>
<event>
 8    1  0.1627221E-013  0.8082877E+02  0.7818608E-02  0.1326716E+00
         -1   -1    0    0    0  501 -0.00000000000E+00  0.00000000000E+00  0.36161665780E+01  0.36161700903E+01  0.50400000000E-02 0.  1.
          2   -1    0    0  501    0  0.00000000000E+00 -0.00000000000E+00 -0.45167209482E+03  0.45167209482E+03  0.25500000000E-02 0. -1.
         24    2    1    2    0    0  0.00000000000E+00  0.00000000000E+00 -0.44805592824E+03  0.45528826492E+03  0.80828765540E+02 0.  0.
         66    2    3    3    0    0  0.34345906590E+02  0.78756421590E+01 -0.33535277110E+03  0.33720490524E+03  0.19999986200E+01 0.  0.
        -13    1    3    3    0    0 -0.34345906590E+02 -0.78756421590E+01 -0.11270315714E+03  0.11808335967E+03  0.10566000000E+00 0.  1.
         13    1    4    4    0    0  0.83487371594E+01  0.27020745290E+01 -0.85180364477E+02  0.85631234228E+02  0.10566000000E+00 0. -1.
        -13    1    4    4    0    0  0.12279277975E+02  0.24278003333E+01 -0.12126804602E+03  0.12191236620E+03  0.10566000000E+00 0.  1.
         14    1    4    4    0    0  0.13717891456E+02  0.27457672967E+01 -0.12890436060E+03  0.12966130482E+03  0.00000000000E+00 0. -1.
<mgrwt>
<rscale>  0 0.80828766E+02</rscale>
<asrwt>0</asrwt>
<pdfrwt beam="1">  1        2 0.69487970E-01 0.80828766E+02</pdfrwt>
<pdfrwt beam="2">  1       -1 0.55633395E-03 0.80828766E+02</pdfrwt>
<totfact> 0.28673306E+05</totfact>
</mgrwt>
</event>
<event>
 8    1  0.1627221E-013  0.8042882E+02  0.7818608E-02  0.1327839E+00
         -1   -1    0    0    0  501 -0.00000000000E+00  0.00000000000E+00  0.47261316416E+01  0.47261343290E+01  0.50400000000E-02 0.  1.
          2   -1    0    0  501    0  0.00000000000E+00 -0.00000000000E+00 -0.34218225535E+03  0.34218225536E+03  0.25500000000E-02 0. -1.
         24    2    1    2    0    0  0.00000000000E+00  0.00000000000E+00 -0.33745612371E+03  0.34690838969E+03  0.80428821997E+02 0.  0.
         66    2    3    3    0    0 -0.19905071443E+02  0.94136248659E+01 -0.31384698742E+03  0.31462479196E+03  0.19999992730E+01 0.  0.
        -13    1    3    3    0    0  0.19905071443E+02 -0.94136248659E+01 -0.23609136282E+02  0.32283597728E+02  0.10566000000E+00 0.  1.
         13    1    4    4    0    0 -0.11513958448E+02  0.57984928790E+01 -0.18508398211E+03  0.18553243748E+03  0.10566000000E+00 0. -1.
        -13    1    4    4    0    0 -0.36235655009E+01  0.14450444974E+01 -0.63242736013E+02  0.63363027097E+02  0.10566000000E+00 0.  1.
         14    1    4    4    0    0 -0.47675474940E+01  0.21700874895E+01 -0.65520269297E+02  0.65729327378E+02  0.00000000000E+00 0. -1.
<mgrwt>
<rscale>  0 0.80428822E+02</rscale>
<asrwt>0</asrwt>
<pdfrwt beam="1">  1        2 0.52643405E-01 0.80428822E+02</pdfrwt>
<pdfrwt beam="2">  1       -1 0.72709765E-03 0.80428822E+02</pdfrwt>
<totfact> 0.26361213E+05</totfact>
</mgrwt>
</event>
<event>
 8    1  0.1627221E-013  0.7758660E+02  0.7818608E-02  0.1336043E+00
         -1   -1    0    0    0  501 -0.00000000000E+00  0.00000000000E+00  0.14913424239E+01  0.14913509402E+01  0.50400000000E-02 0.  1.
          2   -1    0    0  501    0  0.00000000000E+00 -0.00000000000E+00 -0.10091015910E+04  0.10091015910E+04  0.25500000000E-02 0. -1.
         24    2    1    2    0    0 -0.17763568394E-14  0.17763568394E-14 -0.10076102486E+04  0.10105929419E+04  0.77586604966E+02 0.  0.
         66    2    3    3    0    0  0.10794442378E+02 -0.14274381970E+02 -0.95207429631E+03  0.95224458185E+03  0.20000023780E+01 0.  0.
        -13    1    3    3    0    0 -0.10794442378E+02  0.14274381970E+02 -0.55535952248E+02  0.58348360072E+02  0.10566000000E+00 0.  1.
         13    1    4    4    0    0  0.58715589742E+01 -0.80840302782E+01 -0.55967464064E+03  0.55976382635E+03  0.10566000000E+00 0. -1.
        -13    1    4    4    0    0  0.13362260016E+01 -0.11970723909E+01 -0.74643948568E+02  0.74665579112E+02  0.10566000000E+00 0.  1.
         14    1    4    4    0    0  0.35866574019E+01 -0.49932793008E+01 -0.31775570710E+03  0.31781517639E+03  0.00000000000E+00 0. -1.
<mgrwt>
<rscale>  0 0.77586605E+02</rscale>
<asrwt>0</asrwt>
<pdfrwt beam="1">  1        2 0.15524585E+00 0.77586605E+02</pdfrwt>
<pdfrwt beam="2">  1       -1 0.22943876E-03 0.77586605E+02</pdfrwt>
<totfact> 0.38155925E+05</totfact>
</mgrwt>
</event>
<event>
 8    1  0.1627221E-013  0.7562755E+02  0.7818608E-02  0.1341939E+00
          2   -1    0    0  501    0  0.00000000000E+00  0.00000000000E+00  0.44620623367E+03  0.44620623368E+03  0.25500000000E-02 0. -1.
         -1   -1    0    0    0  501 -0.00000000000E+00 -0.00000000000E+00 -0.32045283708E+01  0.32045323342E+01  0.50400000000E-02 0.  1.
         24    2    1    2    0    0  0.00000000000E+00  0.00000000000E+00  0.44300170530E+03  0.44941076601E+03  0.75627545968E+02 0.  0.
         66    2    3    3    0    0  0.11726494335E+02 -0.35832187428E+02  0.23671232147E+03  0.23970435846E+03  0.20000004159E+01 0.  0.
        -13    1    3    3    0    0 -0.11726494335E+02  0.35832187428E+02  0.20628938383E+03  0.20970640755E+03  0.10566000000E+00 0.  1.
         13    1    4    4    0    0  0.23968965440E+01 -0.71914920494E+01  0.47833447118E+02  0.48430491409E+02  0.10566000000E+00 0. -1.
        -13    1    4    4    0    0  0.53655912470E+01 -0.15816193733E+02  0.11009191594E+03  0.11135161729E+03  0.10566000000E+00 0.  1.
        -14    1    4    4    0    0  0.39640065438E+01 -0.12824501646E+02  0.78786958412E+02  0.79922249757E+02  0.00000000000E+00 0.  1.
<mgrwt>
<rscale>  0 0.75627546E+02</rscale>
<asrwt>0</asrwt>
<pdfrwt beam="1">  1        2 0.68647113E-01 0.75627546E+02</pdfrwt>
<pdfrwt beam="2">  1       -1 0.49300468E-03 0.75627546E+02</pdfrwt>
<totfact> 0.33954425E+05</totfact>
</mgrwt>
</event>
<event>
 8    1  0.1627221E-013  0.8415549E+02  0.7818608E-02  0.1317656E+00
         -1   -1    0    0    0  501 -0.00000000000E+00  0.00000000000E+00  0.60093360402E+02  0.60093360613E+02  0.50400000000E-02 0.  1.
          2   -1    0    0  501    0  0.00000000000E+00 -0.00000000000E+00 -0.29463098850E+02  0.29463098960E+02  0.25500000000E-02 0. -1.
         24    2    1    2    0    0  0.00000000000E+00  0.00000000000E+00  0.30630261552E+02  0.89556459573E+02  0.84155490187E+02 0.  0.
         66    2    3    3    0    0  0.25593697068E+02  0.10007320442E+02 -0.18552368753E+02  0.33217076547E+02  0.19999989868E+01 0.  0.
        -13    1    3    3    0    0 -0.25593697068E+02 -0.10007320442E+02  0.49182630305E+02  0.56339383026E+02  0.10566000000E+00 0.  1.
         13    1    4    4    0    0  0.90582017268E+01  0.35853487914E+01 -0.56094670631E+01  0.11242020692E+02  0.10566000000E+00 0. -1.
        -13    1    4    4    0    0  0.11025513507E+02  0.43021956795E+01 -0.81421523251E+01  0.14365815127E+02  0.10566000000E+00 0. -1.
         14    1    4    4    0    0  0.55099818347E+01  0.21197759708E+01 -0.48007493646E+01  0.76092407273E+01  0.00000000000E+00 0. -1.
<mgrwt>
<rscale>  0 0.84155490E+02</rscale>
<asrwt>0</asrwt>
<pdfrwt beam="1">  1        2 0.45327845E-02 0.84155490E+02</pdfrwt>
<pdfrwt beam="2">  1       -1 0.92451323E-02 0.84155490E+02</pdfrwt>
<totfact> 0.11624336E+05</totfact>
</mgrwt>
</event>
<event>
 8    1  0.1627221E-013  0.7824079E+02  0.7818608E-02  0.1334119E+00
         -1   -1    0    0    0  501 -0.00000000000E+00  0.00000000000E+00  0.15313530733E+01  0.15313613671E+01  0.50400000000E-02 0.  1.
          2   -1    0    0  501    0  0.00000000000E+00 -0.00000000000E+00 -0.99937829113E+03  0.99937829113E+03  0.25500000000E-02 0. -1.
         24    2    1    2    0    0  0.00000000000E+00 -0.35527136788E-14 -0.99784693805E+03  0.10009096525E+04  0.78240786546E+02 0.  0.
         66    2    3    3    0    0 -0.11162291426E+02  0.18078010594E+02 -0.91907261049E+03  0.91932033295E+03  0.20000017407E+01 0.  0.
        -13    1    3    3    0    0  0.11162291426E+02 -0.18078010594E+02 -0.78774327559E+02  0.81589319542E+02  0.10566000000E+00 0.  1.
         13    1    4    4    0    0 -0.58669239073E+01  0.82291170617E+01 -0.42669635311E+03  0.42681603542E+03  0.10566000000E+00 0. -1.
        -13    1    4    4    0    0 -0.33609273962E+01  0.57898723609E+01 -0.27446285419E+03  0.27454450996E+03  0.10566000000E+00 0.  1.
        -14    1    4    4    0    0 -0.19344401222E+01  0.40590211714E+01 -0.21791340318E+03  0.21795978757E+03  0.00000000000E+00 0.  1.
<mgrwt>
<rscale>  0 0.78240787E+02</rscale>
<asrwt>0</asrwt>
<pdfrwt beam="1">  1        2 0.15374999E+00 0.78240787E+02</pdfrwt>
<pdfrwt beam="2">  1       -1 0.23559422E-03 0.78240787E+02</pdfrwt>
<totfact> 0.37321394E+05</totfact>
</mgrwt>
</event>
<event>
 8    1  0.1627221E-013  0.8085684E+02  0.7818608E-02  0.1326637E+00
          2   -1    0    0  501    0  0.00000000000E+00  0.00000000000E+00  0.57615586569E+03  0.57615586569E+03  0.25500000000E-02 0. -1.
         -1   -1    0    0    0  501 -0.00000000000E+00 -0.00000000000E+00 -0.28368293111E+01  0.28368337882E+01  0.50400000000E-02 0.  1.
         24    2    1    2    0    0  0.35527136788E-14  0.17763568394E-14  0.57331903638E+03  0.57899269948E+03  0.80856840039E+02 0.  0.
         66    2    3    3    0    0 -0.31755237350E+02 -0.79945899598E+01  0.45630955859E+03  0.45748740073E+03  0.20000005082E+01 0.  0.
        -13    1    3    3    0    0  0.31755237350E+02  0.79945899598E+01  0.11700947779E+03  0.12150529875E+03  0.10566000000E+00 0.  1.
         13    1    4    4    0    0 -0.61124231280E+01 -0.13930218406E+01  0.89817370134E+02  0.90035955974E+02  0.10566000000E+00 0. -1.
        -13    1    4    4    0    0 -0.97544347660E+01 -0.31912788897E+01  0.13502698240E+03  0.13541650711E+03  0.10566000000E+00 0.  1.
        -14    1    4    4    0    0 -0.15888379456E+02 -0.34102892295E+01  0.23146520605E+03  0.23203493765E+03  0.00000000000E+00 0.  1.
<mgrwt>
<rscale>  0 0.80856840E+02</rscale>
<asrwt>0</asrwt>
<pdfrwt beam="1">  1        2 0.88639232E-01 0.80856840E+02</pdfrwt>
<pdfrwt beam="2">  1       -1 0.43643627E-03 0.80856840E+02</pdfrwt>
<totfact> 0.30925486E+05</totfact>
</mgrwt>
</event>
<event>
 8    1  0.1627221E-013  0.7833158E+02  0.7818608E-02  0.1333854E+00
          2   -1    0    0  501    0  0.00000000000E+00  0.00000000000E+00  0.93691901631E+03  0.93691901631E+03  0.25500000000E-02 0. -1.
         -1   -1    0    0    0  501 -0.00000000000E+00 -0.00000000000E+00 -0.16372337052E+01  0.16372414627E+01  0.50400000000E-02 0.  1.
         24    2    1    2    0    0  0.00000000000E+00  0.35527136788E-14  0.93528178260E+03  0.93855625778E+03  0.78331578168E+02 0.  0.
         66    2    3    3    0    0  0.38674685941E+01 -0.22117365765E+02  0.85207800430E+03  0.85237612625E+03  0.20000016035E+01 0.  0.
        -13    1    3    3    0    0 -0.38674685941E+01  0.22117365765E+02  0.83203778305E+02  0.86180131527E+02  0.10566000000E+00 0.  1.
         13    1    4    4    0    0  0.18453298373E+01 -0.86248617484E+01  0.31091611449E+03  0.31104121093E+03  0.10566000000E+00 0. -1.
        -13    1    4    4    0    0 -0.11322442105E+00 -0.90941319822E+00  0.35672594721E+02  0.35684520879E+02  0.10566000000E+00 0.  1.
        -14    1    4    4    0    0  0.21353631779E+01 -0.12583090819E+02  0.50548929508E+03  0.50565039444E+03  0.00000000000E+00 0.  1.
<mgrwt>
<rscale>  0 0.78331578E+02</rscale>
<asrwt>0</asrwt>
<pdfrwt beam="1">  1        2 0.14414132E+00 0.78331578E+02</pdfrwt>
<pdfrwt beam="2">  1       -1 0.25188282E-03 0.78331578E+02</pdfrwt>
<totfact> 0.37055550E+05</totfact>
</mgrwt>
</event>
<event>
 8    1  0.1627221E-013  0.8036359E+02  0.7818608E-02  0.1328023E+00
          2   -1    0    0  501    0  0.00000000000E+00  0.00000000000E+00  0.40582246963E+02  0.40582247043E+02  0.25500000000E-02 0. -1.
         -1   -1    0    0    0  501 -0.00000000000E+00 -0.00000000000E+00 -0.39785298961E+02  0.39785299281E+02  0.50400000000E-02 0.  1.
         24    2    1    2    0    0  0.00000000000E+00  0.00000000000E+00  0.79694800176E+00  0.80367546324E+02  0.80363594843E+02 0.  0.
         66    2    3    3    0    0 -0.33616855548E+02 -0.20333516696E+02  0.87073775466E+01  0.40290982876E+02  0.19999998091E+01 0.  0.
        -13    1    3    3    0    0  0.33616855548E+02  0.20333516696E+02 -0.79104295448E+01  0.40076563448E+02  0.10566000000E+00 0.  1.
         13    1    4    4    0    0 -0.36643016240E+01 -0.17487944400E+01  0.65626694275E+00  0.41142725628E+01  0.10566000000E+00 0.  1.
        -13    1    4    4    0    0 -0.40744527586E+01 -0.26396813369E+01  0.71968224528E+00  0.49089906715E+01  0.10566000000E+00 0.  1.
         14    1    4    4    0    0 -0.25878101165E+02 -0.15945040919E+02  0.73314283585E+01  0.31267719642E+02  0.00000000000E+00 0. -1.
<mgrwt>
<rscale>  0 0.80363595E+02</rscale>
<asrwt>0</asrwt>
<pdfrwt beam="1">  1        2 0.62434226E-02 0.80363595E+02</pdfrwt>
<pdfrwt beam="2">  1       -1 0.61208153E-02 0.80363595E+02</pdfrwt>
<totfact> 0.14119654E+05</totfact>
</mgrwt>
</event>
<event>
 8    1  0.1627221E-013  0.7910723E+02  0.7818608E-02  0.1331604E+00
         -1   -1    0    0    0  501 -0.00000000000E+00  0.00000000000E+00  0.22871046255E+03  0.22871046261E+03  0.50400000000E-02 0.  1.
          2   -1    0    0  501    0  0.00000000000E+00 -0.00000000000E+00 -0.68404766962E+01  0.68404771715E+01  0.25500000000E-02 0. -1.
         24    2    1    2    0    0  0.00000000000E+00  0.00000000000E+00  0.22186998586E+03  0.23555093978E+03  0.79107234860E+02 0.  0.
         66    2    3    3    0    0 -0.25311999873E+02 -0.23982956442E+02  0.55570515258E+02  0.65635064645E+02  0.20000019204E+01 0.  0.
        -13    1    3    3    0    0  0.25311999873E+02  0.23982956442E+02  0.16629947060E+03  0.16991587513E+03  0.10566000000E+00 0.  1.
         13    1    4    4    0    0 -0.11103655398E+02 -0.10472507504E+02  0.23055085956E+02  0.27649823310E+02  0.10566000000E+00 0.  1.
        -13    1    4    4    0    0 -0.60393200964E+01 -0.50288877743E+01  0.12758934542E+02  0.14985482113E+02  0.10566000000E+00 0. -1.
        -14    1    4    4    0    0 -0.81690243794E+01 -0.84815611633E+01  0.19756494760E+02  0.22999759222E+02  0.00000000000E+00 0.  1.
<mgrwt>
<rscale>  0 0.79107235E+02</rscale>
<asrwt>0</asrwt>
<pdfrwt beam="1">  1        2 0.10523809E-02 0.79107235E+02</pdfrwt>
<pdfrwt beam="2">  1       -1 0.35186230E-01 0.79107235E+02</pdfrwt>
<totfact> 0.98238621E+04</totfact>
</mgrwt>
</event>
<event>
 8    1  0.1627221E-013  0.8050582E+02  0.7818608E-02  0.1327622E+00
         -1   -1    0    0    0  501 -0.00000000000E+00  0.00000000000E+00  0.51750958227E+02  0.51750958473E+02  0.50400000000E-02 0.  1.
          2   -1    0    0  501    0  0.00000000000E+00 -0.00000000000E+00 -0.31309498906E+02  0.31309499010E+02  0.25500000000E-02 0. -1.
         24    2    1    2    0    0  0.00000000000E+00 -0.35527136788E-14  0.20441459321E+02  0.83060457483E+02  0.80505815555E+02 0.  0.
         66    2    3    3    0    0 -0.29374682173E+02 -0.26333927312E+02  0.21068250013E+01  0.39557381038E+02  0.20000006404E+01 0.  0.
        -13    1    3    3    0    0  0.29374682173E+02  0.26333927312E+02  0.18334634320E+02  0.43503076445E+02  0.10566000000E+00 0.  1.
         13    1    4    4    0    0 -0.13188352540E+01 -0.12049456256E+01  0.44157275056E+00  0.18431958435E+01  0.10566000000E+00 0. -1.
        -13    1    4    4    0    0 -0.10554333513E+02 -0.88812951116E+01  0.40645506353E+00  0.13800280016E+02  0.10566000000E+00 0.  1.
         14    1    4    4    0    0 -0.17501513407E+02 -0.16247686575E+02  0.12587971872E+01  0.23913905179E+02  0.00000000000E+00 0. -1.
<mgrwt>
<rscale>  0 0.80505816E+02</rscale>
<asrwt>0</asrwt>
<pdfrwt beam="1">  1        2 0.48168461E-02 0.80505816E+02</pdfrwt>
<pdfrwt beam="2">  1       -1 0.79616858E-02 0.80505816E+02</pdfrwt>
<totfact> 0.13332140E+05</totfact>
</mgrwt>
</event>
<event>
 8    1  0.1627221E-013  0.7810629E+02  0.7818608E-02  0.1334513E+00
         -1   -1    0    0    0  501 -0.00000000000E+00  0.00000000000E+00  0.19683542655E+01  0.19683607180E+01  0.50400000000E-02 0.  1.
          2   -1    0    0  501    0  0.00000000000E+00 -0.00000000000E+00 -0.77483288787E+03  0.77483288787E+03  0.25500000000E-02 0. -1.
         24    2    1    2    0    0  0.00000000000E+00  0.00000000000E+00 -0.77286453360E+03  0.77680124859E+03  0.78106289828E+02 0.  0.
         66    2    3    3    0    0 -0.82461396431E+01 -0.95777362446E+01 -0.75391426163E+03  0.75402284166E+03  0.19999996762E+01 0.  0.
        -13    1    3    3    0    0  0.82461396431E+01  0.95777362446E+01 -0.18950271969E+02  0.22778406931E+02  0.10566000000E+00 0.  1.
         13    1    4    4    0    0 -0.12027143357E+01 -0.16069541010E+01 -0.10285114432E+03  0.10287078242E+03  0.10566000000E+00 0.  1.
        -13    1    4    4    0    0 -0.13541614224E+01 -0.20235699812E+01 -0.18814801191E+03  0.18816379604E+03  0.10566000000E+00 0. -1.
         14    1    4    4    0    0 -0.56892638850E+01 -0.59472121625E+01 -0.46291510540E+03  0.46298826320E+03  0.00000000000E+00 0. -1.
<mgrwt>
<rscale>  0 0.78106290E+02</rscale>
<asrwt>0</asrwt>
<pdfrwt beam="1">  1        2 0.11920482E+00 0.78106290E+02</pdfrwt>
<pdfrwt beam="2">  1       -1 0.30282485E-03 0.78106290E+02</pdfrwt>
<totfact> 0.36360024E+05</totfact>
</mgrwt>
</event>
<event>
 8    1  0.1627221E-013  0.8031685E+02  0.7818608E-02  0.1328155E+00
          2   -1    0    0  501    0  0.00000000000E+00  0.00000000000E+00  0.66106631067E+02  0.66106631116E+02  0.25500000000E-02 0. -1.
         -1   -1    0    0    0  501 -0.00000000000E+00 -0.00000000000E+00 -0.24395421951E+02  0.24395422471E+02  0.50400000000E-02 0.  1.
         24    2    1    2    0    0 -0.71054273576E-14  0.00000000000E+00  0.41711209117E+02  0.90502053587E+02  0.80316852139E+02 0.  0.
         66    2    3    3    0    0  0.29823734444E+02  0.26700090483E+02  0.17613541479E+02  0.43778839683E+02  0.19999981255E+01 0.  0.
        -13    1    3    3    0    0 -0.29823734444E+02 -0.26700090483E+02  0.24097667637E+02  0.46723213905E+02  0.10566000000E+00 0.  1.
         13    1    4    4    0    0  0.18760640894E+02  0.17706303087E+02  0.11891536458E+02  0.28405890571E+02  0.10566000000E+00 0. -1.
        -13    1    4    4    0    0  0.65837895684E+01  0.51772994179E+01  0.31167594961E+01  0.89373412229E+01  0.10566000000E+00 0.  1.
        -14    1    4    4    0    0  0.44793039821E+01  0.38164879784E+01  0.26052455248E+01  0.64356078887E+01  0.00000000000E+00 0.  1.
<mgrwt>
<rscale>  0 0.80316852E+02</rscale>
<asrwt>0</asrwt>
<pdfrwt beam="1">  1        2 0.10170251E-01 0.80316852E+02</pdfrwt>
<pdfrwt beam="2">  1       -1 0.37531419E-02 0.80316852E+02</pdfrwt>
<totfact> 0.15754931E+05</totfact>
</mgrwt>
</event>
<event>
 8    1  0.1627221E-013  0.8132772E+02  0.7818608E-02  0.1325325E+00
          2   -1    0    0  501    0  0.00000000000E+00  0.00000000000E+00  0.83753155522E+03  0.83753155523E+03  0.25500000000E-02 0. -1.
         -1   -1    0    0    0  501 -0.00000000000E+00 -0.00000000000E+00 -0.19743099424E+01  0.19743163754E+01  0.50400000000E-02 0.  1.
         24    2    1    2    0    0  0.00000000000E+00 -0.88817841970E-15  0.83555724528E+03  0.83950587160E+03  0.81327721681E+02 0.  0.
         66    2    3    3    0    0 -0.31745482570E+02  0.43824877006E+01  0.67600292678E+03  0.67676505442E+03  0.20000005257E+01 0.  0.
        -13    1    3    3    0    0  0.31745482570E+02 -0.43824877006E+01  0.15955431850E+03  0.16274081719E+03  0.10566000000E+00 0.  1.
         13    1    4    4    0    0 -0.63699545308E+01  0.11474911958E+01  0.14283489351E+03  0.14298150588E+03  0.10566000000E+00 0. -1.
        -13    1    4    4    0    0 -0.86650717938E+00 -0.86890006718E-01  0.22053892434E+02  0.22071332540E+02  0.10566000000E+00 0.  1.
         14    1    4    4    0    0 -0.24509020860E+02  0.33218865115E+01  0.51111414084E+03  0.51171221599E+03  0.00000000000E+00 0. -1.
<mgrwt>
<rscale>  0 0.81327722E+02</rscale>
<asrwt>0</asrwt>
<pdfrwt beam="1">  1        2 0.12885087E+00 0.81327722E+02</pdfrwt>
<pdfrwt beam="2">  1       -1 0.30374080E-03 0.81327722E+02</pdfrwt>
<totfact> 0.33170563E+05</totfact>
</mgrwt>
</event>
<event>
 8    1  0.1627221E-013  0.7885430E+02  0.7818608E-02  0.1332335E+00
          2   -1    0    0  501    0  0.00000000000E+00  0.00000000000E+00  0.39438052580E+03  0.39438052580E+03  0.25500000000E-02 0. -1.
         -1   -1    0    0    0  501 -0.00000000000E+00 -0.00000000000E+00 -0.39416238490E+01  0.39416270712E+01  0.50400000000E-02 0.  1.
         24    2    1    2    0    0  0.17763568394E-14  0.88817841970E-15  0.39043890195E+03  0.39832215288E+03  0.78854304370E+02 0.  0.
         66    2    3    3    0    0  0.15851438622E+02  0.52903084559E+01  0.37559007915E+03  0.37596697065E+03  0.19999980382E+01 0.  0.
        -13    1    3    3    0    0 -0.15851438622E+02 -0.52903084559E+01  0.14848822798E+02  0.22355182229E+02  0.10566000000E+00 0.  1.
         13    1    4    4    0    0  0.57171871394E+01  0.24476021102E+01  0.14822465939E+03  0.14835510709E+03  0.10566000000E+00 0. -1.
        -13    1    4    4    0    0  0.91847414068E+01  0.28441814607E+01  0.21089864628E+03  0.21111773731E+03  0.10566000000E+00 0.  1.
        -14    1    4    4    0    0  0.94951007620E+00 -0.14751150077E-02  0.16466773479E+02  0.16494126238E+02  0.00000000000E+00 0.  1.
<mgrwt>
<rscale>  0 0.78854304E+02</rscale>
<asrwt>0</asrwt>
<pdfrwt beam="1">  1        2 0.60673915E-01 0.78854304E+02</pdfrwt>
<pdfrwt beam="2">  1       -1 0.60640404E-03 0.78854304E+02</pdfrwt>
<totfact> 0.29192921E+05</totfact>
</mgrwt>
</event>
<event>
 8    1  0.1627221E-013  0.8043557E+02  0.7818608E-02  0.1327820E+00
          2   -1    0    0  501    0  0.00000000000E+00  0.00000000000E+00  0.42949197099E+03  0.42949197100E+03  0.25500000000E-02 0. -1.
         -1   -1    0    0    0  501 -0.00000000000E+00 -0.00000000000E+00 -0.37660063359E+01  0.37660097084E+01  0.50400000000E-02 0.  1.
         24    2    1    2    0    0 -0.88817841970E-15  0.71054273576E-14  0.42572596466E+03  0.43325798071E+03  0.80435569649E+02 0.  0.
         66    2    3    3    0    0 -0.72844950263E+01  0.38677284186E+02  0.25690874639E+03  0.25991363980E+03  0.19999998302E+01 0.  0.
        -13    1    3    3    0    0  0.72844950263E+01 -0.38677284186E+02  0.16881721826E+03  0.17334434091E+03  0.10566000000E+00 0.  1.
         13    1    4    4    0    0 -0.48319177607E+01  0.26417737547E+02  0.16987023242E+03  0.17198008987E+03  0.10566000000E+00 0. -1.
        -13    1    4    4    0    0 -0.16406622266E+00  0.66035027797E+00  0.43788810329E+01  0.44326903062E+01  0.10566000000E+00 0. -1.
         14    1    4    4    0    0 -0.22885110429E+01  0.11599196362E+02  0.82659632940E+02  0.83500859617E+02  0.00000000000E+00 0. -1.
<mgrwt>
<rscale>  0 0.80435570E+02</rscale>
<asrwt>0</asrwt>
<pdfrwt beam="1">  1        2 0.66075659E-01 0.80435570E+02</pdfrwt>
<pdfrwt beam="2">  1       -1 0.57938610E-03 0.80435570E+02</pdfrwt>
<totfact> 0.28549659E+05</totfact>
</mgrwt>
</event>
<event>
 8    1  0.1627221E-013  0.7991850E+02  0.7818608E-02  0.1329283E+00
         -1   -1    0    0    0  501 -0.00000000000E+00  0.00000000000E+00  0.16217429220E+02  0.16217430003E+02  0.50400000000E-02 0.  1.
          2   -1    0    0  501    0  0.00000000000E+00 -0.00000000000E+00 -0.98458368594E+02  0.98458368627E+02  0.25500000000E-02 0. -1.
         24    2    1    2    0    0  0.71054273576E-14  0.00000000000E+00 -0.82240939374E+02  0.11467579863E+03  0.79918500250E+02 0.  0.
         66    2    3    3    0    0  0.37770442404E+02 -0.10749611459E+02 -0.30741699470E+02  0.49912048424E+02  0.20000064222E+01 0.  0.
        -13    1    3    3    0    0 -0.37770442404E+02  0.10749611459E+02 -0.51499239904E+02  0.64763750206E+02  0.10566000000E+00 0.  1.
         13    1    4    4    0    0  0.30137657903E+01 -0.78294284689E+00 -0.29189723515E+01  0.42693497590E+01  0.10566000000E+00 0.  1.
        -13    1    4    4    0    0  0.22462922446E+02 -0.61941373285E+01 -0.17177522839E+02  0.28948724963E+02  0.10566000000E+00 0.  1.
         14    1    4    4    0    0  0.12293754168E+02 -0.37725312837E+01 -0.10645204279E+02  0.16693973702E+02  0.00000000000E+00 0. -1.
<mgrwt>
<rscale>  0 0.79918500E+02</rscale>
<asrwt>0</asrwt>
<pdfrwt beam="1">  1        2 0.15147441E-01 0.79918500E+02</pdfrwt>
<pdfrwt beam="2">  1       -1 0.24949892E-02 0.79918500E+02</pdfrwt>
<totfact> 0.17697432E+05</totfact>
</mgrwt>
</event>
<event>
 8    1  0.1627221E-013  0.8318354E+02  0.7818608E-02  0.1320252E+00
          2   -1    0    0  501    0  0.00000000000E+00  0.00000000000E+00  0.74198382956E+03  0.74198382956E+03  0.25500000000E-02 0. -1.
         -1   -1    0    0    0  501 -0.00000000000E+00 -0.00000000000E+00 -0.23314163115E+01  0.23314217592E+01  0.50400000000E-02 0.  1.
         24    2    1    2    0    0  0.00000000000E+00  0.00000000000E+00  0.73965241324E+03  0.74431525132E+03  0.83183537605E+02 0.  0.
         66    2    3    3    0    0  0.14043261342E+01  0.25561411333E+02  0.66307519789E+03  0.66357220854E+03  0.20000033803E+01 0.  0.
        -13    1    3    3    0    0 -0.14043261342E+01 -0.25561411333E+02  0.76577215356E+02  0.80743042778E+02  0.10566000000E+00 0.  1.
         13    1    4    4    0    0  0.60224838747E+00  0.13916591028E+02  0.34488236287E+03  0.34516356933E+03  0.10566000000E+00 0. -1.
        -13    1    4    4    0    0 -0.18765816187E+00  0.26327738078E+01  0.65676184306E+02  0.65729286186E+02  0.10566000000E+00 0.  1.
         14    1    4    4    0    0  0.98973590854E+00  0.90120464970E+01  0.25251665071E+03  0.25267935303E+03  0.00000000000E+00 0. -1.
<mgrwt>
<rscale>  0 0.83183538E+02</rscale>
<asrwt>0</asrwt>
<pdfrwt beam="1">  1        2 0.11415138E+00 0.83183538E+02</pdfrwt>
<pdfrwt beam="2">  1       -1 0.35867978E-03 0.83183538E+02</pdfrwt>
<totfact> 0.30605349E+05</totfact>
</mgrwt>
</event>
<event>
 8    1  0.1627221E-013  0.7694060E+02  0.7818608E-02  0.1337965E+00
         -1   -1    0    0    0  501 -0.00000000000E+00  0.00000000000E+00  0.32822463031E+01  0.32822501726E+01  0.50400000000E-02 0.  1.
          2   -1    0    0  501    0  0.00000000000E+00 -0.00000000000E+00 -0.45089944059E+03  0.45089944060E+03  0.25500000000E-02 0. -1.
         24    2    1    2    0    0  0.88817841970E-15  0.00000000000E+00 -0.44761719429E+03  0.45418169077E+03  0.76940597926E+02 0.  0.
         66    2    3    3    0    0  0.63825743991E+01  0.32894272000E+02 -0.33521031241E+03  0.33688681175E+03  0.20000000877E+01 0.  0.
        -13    1    3    3    0    0 -0.63825743991E+01 -0.32894272000E+02 -0.11240688188E+03  0.11729487902E+03  0.10566000000E+00 0.  1.
         13    1    4    4    0    0  0.19226775405E+01  0.10066191698E+02 -0.10336170183E+03  0.10386855864E+03  0.10566000000E+00 0. -1.
        -13    1    4    4    0    0  0.45640881205E+00  0.19053278760E+01 -0.24404990432E+02  0.24483735526E+02  0.10566000000E+00 0.  1.
        -14    1    4    4    0    0  0.40034880465E+01  0.20922752426E+02 -0.20744362015E+03  0.20853451759E+03  0.00000000000E+00 0.  1.
<mgrwt>
<rscale>  0 0.76940598E+02</rscale>
<asrwt>0</asrwt>
<pdfrwt beam="1">  1        2 0.69369096E-01 0.76940598E+02</pdfrwt>
<pdfrwt beam="2">  1       -1 0.50496163E-03 0.76940598E+02</pdfrwt>
<totfact> 0.32584109E+05</totfact>
</mgrwt>
</event>
<event>
 8    1  0.1627221E-013  0.7947060E+02  0.7818608E-02  0.1330561E+00
         -1   -1    0    0    0  501 -0.00000000000E+00  0.00000000000E+00  0.14847477978E+01  0.14847563519E+01  0.50400000000E-02 0.  1.
          2   -1    0    0  501    0  0.00000000000E+00 -0.00000000000E+00 -0.10634057974E+04  0.10634057974E+04  0.25500000000E-02 0. -1.
         24    2    1    2    0    0  0.00000000000E+00  0.00000000000E+00 -0.10619210496E+04  0.10648905538E+04  0.79470597635E+02 0.  0.
         66    2    3    3    0    0  0.48784225193E+01  0.94920278716E+01 -0.10438259837E+04  0.10438824559E+04  0.20000005627E+01 0.  0.
        -13    1    3    3    0    0 -0.48784225193E+01 -0.94920278716E+01 -0.18095065941E+02  0.21008097839E+02  0.10566000000E+00 0.  1.
         13    1    4    4    0    0  0.76329809711E+00  0.10192972868E+01 -0.10836890414E+03  0.10837643719E+03  0.10566000000E+00 0. -1.
        -13    1    4    4    0    0  0.11201397940E+01  0.14026600661E+01 -0.13190921429E+03  0.13192146962E+03  0.10566000000E+00 0.  1.
         14    1    4    4    0    0  0.29949846282E+01  0.70700705187E+01 -0.80354786525E+03  0.80358454912E+03  0.00000000000E+00 0. -1.
<mgrwt>
<rscale>  0 0.79470598E+02</rscale>
<asrwt>0</asrwt>
<pdfrwt beam="1">  1        2 0.16360028E+00 0.79470598E+02</pdfrwt>
<pdfrwt beam="2">  1       -1 0.22842425E-03 0.79470598E+02</pdfrwt>
<totfact> 0.35886104E+05</totfact>
</mgrwt>
</event>
<event>
 8    1  0.1627221E-013  0.7998907E+02  0.7818608E-02  0.1329082E+00
          2   -1    0    0  501    0  0.00000000000E+00  0.00000000000E+00  0.26531203407E+03  0.26531203408E+03  0.25500000000E-02 0. -1.
         -1   -1    0    0    0  501 -0.00000000000E+00 -0.00000000000E+00 -0.60289865622E+01  0.60289886688E+01  0.50400000000E-02 0.  1.
         24    2    1    2    0    0  0.00000000000E+00  0.00000000000E+00  0.25928304751E+03  0.27134102275E+03  0.79989073645E+02 0.  0.
         66    2    3    3    0    0 -0.12162189336E+02 -0.18640451203E+02  0.24234081594E+03  0.24336897161E+03  0.20000002518E+01 0.  0.
        -13    1    3    3    0    0  0.12162189336E+02  0.18640451203E+02  0.16942231564E+02  0.27972051139E+02  0.10566000000E+00 0.  1.
         13    1    4    4    0    0 -0.41443935925E+01 -0.51360985294E+01  0.66752625219E+02  0.67078160709E+02  0.10566000000E+00 0. -1.
        -13    1    4    4    0    0 -0.35605010586E+01 -0.62935299857E+01  0.77022383004E+02  0.77361129355E+02  0.10566000000E+00 0.  1.
         14    1    4    4    0    0 -0.44572946848E+01 -0.72108226879E+01  0.98565807721E+02  0.98929681550E+02  0.00000000000E+00 0. -1.
<mgrwt>
<rscale>  0 0.79989074E+02</rscale>
<asrwt>0</asrwt>
<pdfrwt beam="1">  1        2 0.40817231E-01 0.79989074E+02</pdfrwt>
<pdfrwt beam="2">  1       -1 0.92753666E-03 0.79989074E+02</pdfrwt>
<totfact> 0.24393598E+05</totfact>
</mgrwt>
</event>
<event>
 8    1  0.1627221E-013  0.7873902E+02  0.7818608E-02  0.1332668E+00
         -1   -1    0    0    0  501 -0.00000000000E+00  0.00000000000E+00  0.20183763371E+03  0.20183763377E+03  0.50400000000E-02 0.  1.
          2   -1    0    0  501    0  0.00000000000E+00 -0.00000000000E+00 -0.76792340277E+01  0.76792344511E+01  0.25500000000E-02 0. -1.
         24    2    1    2    0    0  0.00000000000E+00 -0.35527136788E-14  0.19415839968E+03  0.20951686822E+03  0.78739024017E+02 0.  0.
         66    2    3    3    0    0  0.26052318079E+02  0.23542743270E+02  0.49917609728E+02  0.61063506226E+02  0.19999984004E+01 0.  0.
        -13    1    3    3    0    0 -0.26052318079E+02 -0.23542743270E+02  0.14424078995E+03  0.14845336200E+03  0.10566000000E+00 0.  1.
         13    1    4    4    0    0  0.14762562926E+02  0.13204916791E+02  0.28891712998E+02  0.35029206894E+02  0.10566000000E+00 0. -1.
        -13    1    4    4    0    0  0.29290000148E+01  0.32901406004E+01  0.64961708730E+01  0.78495519811E+01  0.10566000000E+00 0.  1.
        -14    1    4    4    0    0  0.83607551384E+01  0.70476858783E+01  0.14529725857E+02  0.18184747351E+02  0.00000000000E+00 0.  1.
<mgrwt>
<rscale>  0 0.78739024E+02</rscale>
<asrwt>0</asrwt>
<pdfrwt beam="1">  1        2 0.11814207E-02 0.78739024E+02</pdfrwt>
<pdfrwt beam="2">  1       -1 0.31051943E-01 0.78739024E+02</pdfrwt>
<totfact> 0.10342652E+05</totfact>
</mgrwt>
</event>
<event>
 8    1  0.1627221E-013  0.8063211E+02  0.7818608E-02  0.1327267E+00
          2   -1    0    0  501    0  0.00000000000E+00  0.00000000000E+00  0.45316754113E+02  0.45316754185E+02  0.25500000000E-02 0. -1.
         -1   -1    0    0    0  501 -0.00000000000E+00 -0.00000000000E+00 -0.35867183812E+02  0.35867184166E+02  0.50400000000E-02 0.  1.
         24    2    1    2    0    0  0.22204460493E-15  0.35527136788E-14  0.94495703013E+01  0.81183938350E+02  0.80632111886E+02 0.  0.
         66    2    3    3    0    0 -0.10005936874E+01 -0.10265505403E+02  0.43942892443E+02  0.45181407532E+02  0.20000003672E+01 0.  0.
        -13    1    3    3    0    0  0.10005936874E+01  0.10265505403E+02 -0.34493322141E+02  0.36002530818E+02  0.10566000000E+00 0.  1.
         13    1    4    4    0    0 -0.50639336506E+00 -0.33567179765E+01  0.17534604237E+02  0.17860501102E+02  0.10566000000E+00 0. -1.
        -13    1    4    4    0    0 -0.49665047803E+00 -0.15325316395E+01  0.54559867488E+01  0.56898392211E+01  0.10566000000E+00 0.  1.
         14    1    4    4    0    0  0.24501557078E-02 -0.53762557875E+01  0.20952301457E+02  0.21631067210E+02  0.00000000000E+00 0. -1.
<mgrwt>
<rscale>  0 0.80632112E+02</rscale>
<asrwt>0</asrwt>
<pdfrwt beam="1">  1        2 0.69718083E-02 0.80632112E+02</pdfrwt>
<pdfrwt beam="2">  1       -1 0.55180284E-02 0.80632112E+02</pdfrwt>
<totfact> 0.14317496E+05</totfact>
</mgrwt>
</event>
<event>
 8    1  0.1627221E-013  0.7989266E+02  0.7818608E-02  0.1329356E+00
          2   -1    0    0  501    0  0.00000000000E+00  0.00000000000E+00  0.20743911376E+03  0.20743911378E+03  0.25500000000E-02 0. -1.
         -1   -1    0    0    0  501 -0.00000000000E+00 -0.00000000000E+00 -0.76924216980E+01  0.76924233491E+01  0.50400000000E-02 0.  1.
         24    2    1    2    0    0  0.00000000000E+00  0.00000000000E+00  0.19974669206E+03  0.21513153713E+03  0.79892660965E+02 0.  0.
         66    2    3    3    0    0  0.21972441893E+02 -0.81808770988E+01  0.18694096608E+03  0.18841613455E+03  0.20000017478E+01 0.  0.
        -13    1    3    3    0    0 -0.21972441893E+02  0.81808770988E+01  0.12805725986E+02  0.26715402578E+02  0.10566000000E+00 0.  1.
         13    1    4    4    0    0  0.12354572068E+02 -0.52449829995E+01  0.10781602206E+03  0.10864829071E+03  0.10566000000E+00 0. -1.
        -13    1    4    4    0    0  0.86380872564E+01 -0.24964654364E+01  0.68201874818E+02  0.68792120071E+02  0.10566000000E+00 0.  1.
        -14    1    4    4    0    0  0.97978256891E+00 -0.43942866296E+00  0.10923069200E+02  0.10975723765E+02  0.00000000000E+00 0.  1.
<mgrwt>
<rscale>  0 0.79892661E+02</rscale>
<asrwt>0</asrwt>
<pdfrwt beam="1">  1        2 0.31913707E-01 0.79892661E+02</pdfrwt>
<pdfrwt beam="2">  1       -1 0.11834497E-02 0.79892661E+02</pdfrwt>
<totfact> 0.22420287E+05</totfact>
</mgrwt>
</event>
<event>
 8    1  0.1627221E-013  0.7922573E+02  0.7818608E-02  0.1331263E+00
          2   -1    0    0  501    0  0.00000000000E+00  0.00000000000E+00  0.13365762600E+03  0.13365762602E+03  0.25500000000E-02 0. -1.
         -1   -1    0    0    0  501 -0.00000000000E+00 -0.00000000000E+00 -0.11740287751E+02  0.11740288833E+02  0.50400000000E-02 0.  1.
         24    2    1    2    0    0 -0.35527136788E-14  0.35527136788E-14  0.12191733825E+03  0.14539791486E+03  0.79225729904E+02 0.  0.
         66    2    3    3    0    0  0.17191022727E+02 -0.30347163388E+02  0.95365481808E+02  0.10156306762E+03  0.19999987759E+01 0.  0.
        -13    1    3    3    0    0 -0.17191022727E+02  0.30347163388E+02  0.26551856440E+02  0.43834847240E+02  0.10566000000E+00 0.  1.
         13    1    4    4    0    0  0.10361051654E+01 -0.11840057041E+01  0.45893205164E+01  0.48526704255E+01  0.10566000000E+00 0.  1.
        -13    1    4    4    0    0  0.31813837217E+01 -0.66044811982E+01  0.20225716215E+02  0.21513510516E+02  0.10566000000E+00 0. -1.
        -14    1    4    4    0    0  0.12973533840E+02 -0.22558676485E+02  0.70550445077E+02  0.75196886675E+02  0.00000000000E+00 0.  1.
<mgrwt>
<rscale>  0 0.79225730E+02</rscale>
<asrwt>0</asrwt>
<pdfrwt beam="1">  1        2 0.20562711E-01 0.79225730E+02</pdfrwt>
<pdfrwt beam="2">  1       -1 0.18061982E-02 0.79225730E+02</pdfrwt>
<totfact> 0.19817489E+05</totfact>
</mgrwt>
</event>
<event>
 8    1  0.1627221E-013  0.7901288E+02  0.7818608E-02  0.1331876E+00
          2   -1    0    0  501    0  0.00000000000E+00  0.00000000000E+00  0.57449963616E+01  0.57449969275E+01  0.25500000000E-02 0. -1.
         -1   -1    0    0    0  501 -0.00000000000E+00 -0.00000000000E+00 -0.27167268497E+03  0.27167268501E+03  0.50400000000E-02 0.  1.
         24    2    1    2    0    0  0.00000000000E+00  0.00000000000E+00 -0.26592768860E+03  0.27741768194E+03  0.79012876714E+02 0.  0.
         66    2    3    3    0    0 -0.37385978233E+02 -0.12620088465E+02 -0.13772748636E+03  0.14328237332E+03  0.20000004053E+01 0.  0.
        -13    1    3    3    0    0  0.37385978233E+02  0.12620088465E+02 -0.12820020224E+03  0.13413530862E+03  0.10566000000E+00 0.  1.
         13    1    4    4    0    0 -0.28957843292E+02 -0.93974744400E+01 -0.10633238281E+03  0.11060495474E+03  0.10566000000E+00 0.  1.
        -13    1    4    4    0    0 -0.74124253183E+01 -0.26329665560E+01 -0.28041764422E+02  0.29124358842E+02  0.10566000000E+00 0. -1.
        -14    1    4    4    0    0 -0.10157096221E+01 -0.58964746866E+00 -0.33533391299E+01  0.35530597369E+01  0.00000000000E+00 0.  1.
<mgrwt>
<rscale>  0 0.79012877E+02</rscale>
<asrwt>0</asrwt>
<pdfrwt beam="1">  1        2 0.88384585E-03 0.79012877E+02</pdfrwt>
<pdfrwt beam="2">  1       -1 0.41795788E-01 0.79012877E+02</pdfrwt>
<totfact> 0.92745722E+04</totfact>
</mgrwt>
</event>
<event>
 8    1  0.1627221E-013  0.7961183E+02  0.7818608E-02  0.1330157E+00
         -1   -1    0    0    0  501 -0.00000000000E+00  0.00000000000E+00  0.20155347985E+03  0.20155347991E+03  0.50400000000E-02 0.  1.
          2   -1    0    0  501    0  0.00000000000E+00 -0.00000000000E+00 -0.78614906144E+01  0.78614910279E+01  0.25500000000E-02 0. -1.
         24    2    1    2    0    0  0.71054273576E-14  0.00000000000E+00  0.19369198923E+03  0.20941497094E+03  0.79611829272E+02 0.  0.
         66    2    3    3    0    0  0.38897558028E+02  0.82892937923E+01  0.94593528467E+02  0.10263365936E+03  0.19999984339E+01 0.  0.
        -13    1    3    3    0    0 -0.38897558028E+02 -0.82892937923E+01  0.99098460767E+02  0.10678131158E+03  0.10566000000E+00 0.  1.
         13    1    4    4    0    0  0.24034814426E+02  0.54485755212E+01  0.59328866550E+02  0.64243947963E+02  0.10566000000E+00 0. -1.
        -13    1    4    4    0    0  0.78852034049E+01  0.15027439395E+01  0.17329720280E+02  0.19098823029E+02  0.10566000000E+00 0.  1.
        -14    1    4    4    0    0  0.69775401968E+01  0.13379743315E+01  0.17934941636E+02  0.19290888368E+02  0.00000000000E+00 0.  1.
<mgrwt>
<rscale>  0 0.79611829E+02</rscale>
<asrwt>0</asrwt>
<pdfrwt beam="1">  1        2 0.12094601E-02 0.79611829E+02</pdfrwt>
<pdfrwt beam="2">  1       -1 0.31008228E-01 0.79611829E+02</pdfrwt>
<totfact> 0.10060836E+05</totfact>
</mgrwt>
</event>
<event>
 8    1  0.1627221E-013  0.8218661E+02  0.7818608E-02  0.1322958E+00
         -1   -1    0    0    0  501 -0.00000000000E+00  0.00000000000E+00  0.71336807798E+02  0.71336807976E+02  0.50400000000E-02 0.  1.
          2   -1    0    0  501    0  0.00000000000E+00 -0.00000000000E+00 -0.23671644018E+02  0.23671644156E+02  0.25500000000E-02 0. -1.
         24    2    1    2    0    0  0.00000000000E+00  0.00000000000E+00  0.47665163780E+02  0.95008452132E+02  0.82186605589E+02 0.  0.
         66    2    3    3    0    0  0.89398543402E+01  0.28804495847E+02 -0.83774865728E+01  0.31365622219E+02  0.19999998213E+01 0.  0.
        -13    1    3    3    0    0 -0.89398543402E+01 -0.28804495847E+02  0.56042650352E+02  0.63642829912E+02  0.10566000000E+00 0.  1.
         13    1    4    4    0    0  0.31039434281E+01  0.10334379441E+02 -0.31247690140E+01  0.11234287189E+02  0.10566000000E+00 0. -1.
        -13    1    4    4    0    0  0.55664562308E+01  0.17889827097E+02 -0.47811929447E+01  0.19336553947E+02  0.10566000000E+00 0.  1.
        -14    1    4    4    0    0  0.26945468125E+00  0.58028930960E+00 -0.47152461413E+00  0.79478108295E+00  0.00000000000E+00 0.  1.
<mgrwt>
<rscale>  0 0.82186606E+02</rscale>
<asrwt>0</asrwt>
<pdfrwt beam="1">  1        2 0.36417914E-02 0.82186606E+02</pdfrwt>
<pdfrwt beam="2">  1       -1 0.10974894E-01 0.82186606E+02</pdfrwt>
<totfact> 0.11891724E+05</totfact>
</mgrwt>
</event>
<event>
 8    1  0.1627221E-013  0.7669674E+02  0.7818608E-02  0.1338696E+00
          2   -1    0    0  501    0  0.00000000000E+00  0.00000000000E+00  0.63095199222E+02  0.63095199273E+02  0.25500000000E-02 0. -1.
         -1   -1    0    0    0  501 -0.00000000000E+00 -0.00000000000E+00 -0.23307598050E+02  0.23307598595E+02  0.50400000000E-02 0.  1.
         24    2    1    2    0    0  0.00000000000E+00  0.00000000000E+00  0.39787601172E+02  0.86402797868E+02  0.76696742254E+02 0.  0.
         66    2    3    3    0    0 -0.18627334602E+02 -0.13852367152E+02  0.54257438193E+02  0.59048583978E+02  0.20000001157E+01 0.  0.
        -13    1    3    3    0    0  0.18627334602E+02  0.13852367152E+02 -0.14469837021E+02  0.27354213890E+02  0.10566000000E+00 0.  1.
         13    1    4    4    0    0 -0.65365172927E+01 -0.56375906763E+01  0.19341417514E+02  0.21180417429E+02  0.10566000000E+00 0. -1.
        -13    1    4    4    0    0 -0.22693530261E+01 -0.17074766207E+01  0.58016085637E+01  0.64602837034E+01  0.10566000000E+00 0.  1.
         14    1    4    4    0    0 -0.98214642831E+01 -0.65072998553E+01  0.29114412115E+02  0.31407882846E+02  0.00000000000E+00 0. -1.
<mgrwt>
<rscale>  0 0.76696742E+02</rscale>
<asrwt>0</asrwt>
<pdfrwt beam="1">  1        2 0.97069535E-02 0.76696742E+02</pdfrwt>
<pdfrwt beam="2">  1       -1 0.35857845E-02 0.76696742E+02</pdfrwt>
<totfact> 0.17655186E+05</totfact>
</mgrwt>
</event>
<event>
 8    1  0.1627221E-013  0.8326419E+02  0.7818608E-02  0.1320035E+00
         -1   -1    0    0    0  501 -0.00000000000E+00  0.00000000000E+00  0.38913051562E+02  0.38913051888E+02  0.50400000000E-02 0.  1.
          2   -1    0    0  501    0  0.00000000000E+00 -0.00000000000E+00 -0.44541134367E+02  0.44541134440E+02  0.25500000000E-02 0. -1.
         24    2    1    2    0    0  0.35527136788E-14 -0.17763568394E-14 -0.56280828050E+01  0.83454186328E+02  0.83264193382E+02 0.  0.
         66    2    3    3    0    0 -0.29165235778E+02  0.13608947523E+02  0.23615178532E+02  0.39968626330E+02  0.20000007265E+01 0.  0.
        -13    1    3    3    0    0  0.29165235778E+02 -0.13608947523E+02 -0.29243261337E+02  0.43485559998E+02  0.10566000000E+00 0.  1.
         13    1    4    4    0    0 -0.22279556544E+01  0.11877913772E+01  0.15773944365E+01  0.29789212808E+01  0.10566000000E+00 0.  1.
        -13    1    4    4    0    0 -0.39535316473E+01  0.16186675548E+01  0.38608680224E+01  0.57591633994E+01  0.10566000000E+00 0. -1.
         14    1    4    4    0    0 -0.22983748476E+02  0.10802488591E+02  0.18176916073E+02  0.31230541649E+02  0.00000000000E+00 0. -1.
<mgrwt>
<rscale>  0 0.83264193E+02</rscale>
<asrwt>0</asrwt>
<pdfrwt beam="1">  1        2 0.68524823E-02 0.83264193E+02</pdfrwt>
<pdfrwt beam="2">  1       -1 0.59866233E-02 0.83264193E+02</pdfrwt>
<totfact> 0.13054234E+05</totfact>
</mgrwt>
</event>
<event>
 8    1  0.1627221E-013  0.7937197E+02  0.7818608E-02  0.1330843E+00
         -1   -1    0    0    0  501 -0.00000000000E+00  0.00000000000E+00  0.52046377842E+01  0.52046402245E+01  0.50400000000E-02 0.  1.
          2   -1    0    0  501    0  0.00000000000E+00 -0.00000000000E+00 -0.30261028610E+03  0.30261028611E+03  0.25500000000E-02 0. -1.
         24    2    1    2    0    0  0.00000000000E+00 -0.35527136788E-14 -0.29740564832E+03  0.30781492634E+03  0.79371967499E+02 0.  0.
         66    2    3    3    0    0  0.23650203282E+02 -0.26726606678E+02 -0.21589299272E+03  0.21883196276E+03  0.20000003662E+01 0.  0.
        -13    1    3    3    0    0 -0.23650203282E+02  0.26726606678E+02 -0.81512655599E+02  0.88982963575E+02  0.10566000000E+00 0.  1.
         13    1    4    4    0    0  0.14475234187E+02 -0.16598864978E+02 -0.13616920765E+03  0.13793882340E+03  0.10566000000E+00 0. -1.
        -13    1    4    4    0    0  0.24822097643E+01 -0.32251480955E+01 -0.25709352994E+02  0.26029693447E+02  0.10566000000E+00 0.  1.
         14    1    4    4    0    0  0.66927593301E+01 -0.69025936045E+01 -0.54014432071E+02  0.54863445916E+02  0.00000000000E+00 0. -1.
<mgrwt>
<rscale>  0 0.79371967E+02</rscale>
<asrwt>0</asrwt>
<pdfrwt beam="1">  1        2 0.46555415E-01 0.79371967E+02</pdfrwt>
<pdfrwt beam="2">  1       -1 0.80071393E-03 0.79371967E+02</pdfrwt>
<totfact> 0.26108242E+05</totfact>
</mgrwt>
</event>
<event>
 8    1  0.1627221E-013  0.8063901E+02  0.7818608E-02  0.1327248E+00
         -1   -1    0    0    0  501 -0.00000000000E+00  0.00000000000E+00  0.70074927561E+02  0.70074927742E+02  0.50400000000E-02 0.  1.
          2   -1    0    0  501    0  0.00000000000E+00 -0.00000000000E+00 -0.23198916649E+02  0.23198916790E+02  0.25500000000E-02 0. -1.
         24    2    1    2    0    0  0.35527136788E-14  0.00000000000E+00  0.46876010912E+02  0.93273844532E+02  0.80639008394E+02 0.  0.
         66    2    3    3    0    0 -0.10497250303E+02 -0.28793909827E+02 -0.68071394533E+01  0.31458204891E+02  0.20000000976E+01 0.  0.
        -13    1    3    3    0    0  0.10497250303E+02  0.28793909827E+02  0.53683150365E+02  0.61815639641E+02  0.10566000000E+00 0.  1.
         13    1    4    4    0    0 -0.49843736731E+01 -0.14277113893E+02 -0.29504486993E+01  0.15407669311E+02  0.10566000000E+00 0. -1.
        -13    1    4    4    0    0 -0.24647916133E+01 -0.51907475737E+01 -0.18336276886E+01  0.60326124197E+01  0.10566000000E+00 0.  1.
        -14    1    4    4    0    0 -0.30480850167E+01 -0.93260483601E+01 -0.20230630655E+01  0.10017923161E+02  0.00000000000E+00 0.  1.
<mgrwt>
<rscale>  0 0.80639008E+02</rscale>
<asrwt>0</asrwt>
<pdfrwt beam="1">  1        2 0.35690642E-02 0.80639008E+02</pdfrwt>
<pdfrwt beam="2">  1       -1 0.10780758E-01 0.80639008E+02</pdfrwt>
<totfact> 0.12503435E+05</totfact>
</mgrwt>
</event>
<event>
 8    1  0.1627221E-013  0.8289898E+02  0.7818608E-02  0.1321020E+00
         -1   -1    0    0    0  501 -0.00000000000E+00  0.00000000000E+00  0.17538812485E+02  0.17538813209E+02  0.50400000000E-02 0.  1.
          2   -1    0    0  501    0  0.00000000000E+00 -0.00000000000E+00 -0.97957622642E+02  0.97957622675E+02  0.25500000000E-02 0. -1.
         24    2    1    2    0    0  0.17763568394E-14 -0.35527136788E-14 -0.80418810157E+02  0.11549643588E+03  0.82898984763E+02 0.  0.
         66    2    3    3    0    0 -0.65710563407E+01  0.21191639367E+02 -0.88971338961E+02  0.91717847333E+02  0.20000005888E+01 0.  0.
        -13    1    3    3    0    0  0.65710563407E+01 -0.21191639367E+02  0.85525288041E+01  0.23778588551E+02  0.10566000000E+00 0.  1.
         13    1    4    4    0    0 -0.56556563176E+01  0.15937966791E+02 -0.66521391539E+02  0.68637540240E+02  0.10566000000E+00 0. -1.
        -13    1    4    4    0    0 -0.28868361629E+00  0.91889969941E+00 -0.45899705450E+01  0.46911308367E+01  0.10566000000E+00 0. -1.
        -14    1    4    4    0    0 -0.62671640686E+00  0.43347728767E+01 -0.17859976877E+02  0.18389176256E+02  0.00000000000E+00 0.  1.
<mgrwt>
<rscale>  0 0.82898985E+02</rscale>
<asrwt>0</asrwt>
<pdfrwt beam="1">  1        2 0.15070403E-01 0.82898985E+02</pdfrwt>
<pdfrwt beam="2">  1       -1 0.26982790E-02 0.82898985E+02</pdfrwt>
<totfact> 0.16017143E+05</totfact>
</mgrwt>
</event>
<event>
 8    1  0.1627221E-013  0.7883911E+02  0.7818608E-02  0.1332379E+00
          2   -1    0    0  501    0  0.00000000000E+00  0.00000000000E+00  0.95039199403E+02  0.95039199438E+02  0.25500000000E-02 0. -1.
         -1   -1    0    0    0  501 -0.00000000000E+00 -0.00000000000E+00 -0.16350110454E+02  0.16350111231E+02  0.50400000000E-02 0.  1.
         24    2    1    2    0    0  0.17763568394E-14  0.00000000000E+00  0.78689088950E+02  0.11138931067E+03  0.78839113462E+02 0.  0.
         66    2    3    3    0    0  0.69801384373E+01 -0.17570763514E+02  0.88199532161E+02  0.90225337573E+02  0.20000009087E+01 0.  0.
        -13    1    3    3    0    0 -0.69801384373E+01  0.17570763514E+02 -0.95104432112E+01  0.21163973096E+02  0.10566000000E+00 0.  1.
         13    1    4    4    0    0  0.19438376487E+01 -0.59446204078E+01  0.30782885575E+02  0.31412007655E+02  0.10566000000E+00 0. -1.
        -13    1    4    4    0    0  0.11450224411E+01 -0.39459545332E+01  0.16995645354E+02  0.17485558573E+02  0.10566000000E+00 0.  1.
         14    1    4    4    0    0  0.38912783475E+01 -0.76801885734E+01  0.40421001232E+02  0.41327771345E+02  0.00000000000E+00 0. -1.
<mgrwt>
<rscale>  0 0.78839113E+02</rscale>
<asrwt>0</asrwt>
<pdfrwt beam="1">  1        2 0.14621415E-01 0.78839113E+02</pdfrwt>
<pdfrwt beam="2">  1       -1 0.25154017E-02 0.78839113E+02</pdfrwt>
<totfact> 0.18175856E+05</totfact>
</mgrwt>
</event>
<event>
 8    1  0.1627221E-013  0.7992706E+02  0.7818608E-02  0.1329259E+00
          2   -1    0    0  501    0  0.00000000000E+00  0.00000000000E+00  0.34330310665E+03  0.34330310666E+03  0.25500000000E-02 0. -1.
         -1   -1    0    0    0  501 -0.00000000000E+00 -0.00000000000E+00 -0.46521083569E+01  0.46521110870E+01  0.50400000000E-02 0.  1.
         24    2    1    2    0    0  0.00000000000E+00  0.00000000000E+00  0.33865099829E+03  0.34795521775E+03  0.79927059949E+02 0.  0.
         66    2    3    3    0    0 -0.11573937259E+02  0.34830195491E+02  0.23798605241E+03  0.24080793110E+03  0.19999996140E+01 0.  0.
        -13    1    3    3    0    0  0.11573937259E+02 -0.34830195491E+02  0.10066494589E+03  0.10714728665E+03  0.10566000000E+00 0.  1.
         13    1    4    4    0    0 -0.26553882613E+01  0.92492940473E+01  0.60173339847E+02  0.60938021953E+02  0.10566000000E+00 0. -1.
        -13    1    4    4    0    0 -0.84074596525E+01  0.23858844620E+02  0.16804296603E+03  0.16993639822E+03  0.10566000000E+00 0.  1.
        -14    1    4    4    0    0 -0.51108934491E+00  0.17220568234E+01  0.97697465287E+01  0.99335109229E+01  0.00000000000E+00 0.  1.
<mgrwt>
<rscale>  0 0.79927060E+02</rscale>
<asrwt>0</asrwt>
<pdfrwt beam="1">  1        2 0.52815856E-01 0.79927060E+02</pdfrwt>
<pdfrwt beam="2">  1       -1 0.71570928E-03 0.79927060E+02</pdfrwt>
<totfact> 0.26828035E+05</totfact>
</mgrwt>
</event>
<event>
 8    1  0.1627221E-013  0.8039800E+02  0.7818608E-02  0.1327926E+00
         -1   -1    0    0    0  501 -0.00000000000E+00  0.00000000000E+00  0.11748296008E+02  0.11748297089E+02  0.50400000000E-02 0.  1.
          2   -1    0    0  501    0  0.00000000000E+00 -0.00000000000E+00 -0.13754843259E+03  0.13754843261E+03  0.25500000000E-02 0. -1.
         24    2    1    2    0    0  0.44408920985E-15 -0.35527136788E-14 -0.12580013658E+03  0.14929672970E+03  0.80398004552E+02 0.  0.
         66    2    3    3    0    0  0.30153653776E+01 -0.27631497411E+02 -0.90751240776E+01  0.29307847777E+02  0.19999966886E+01 0.  0.
        -13    1    3    3    0    0 -0.30153653776E+01  0.27631497411E+02 -0.11672501251E+03  0.11998888193E+03  0.10566000000E+00 0.  1.
         13    1    4    4    0    0  0.19751523390E+01 -0.16805707146E+02 -0.50838966054E+01  0.17668904555E+02  0.10566000000E+00 0. -1.
        -13    1    4    4    0    0  0.23294572541E+00 -0.68962824067E+01 -0.28665175929E+01  0.74726877287E+01  0.10566000000E+00 0.  1.
        -14    1    4    4    0    0  0.80726731314E+00 -0.39295078590E+01 -0.11247098794E+01  0.41662554940E+01  0.00000000000E+00 0.  1.
<mgrwt>
<rscale>  0 0.80398005E+02</rscale>
<asrwt>0</asrwt>
<pdfrwt beam="1">  1        2 0.21161296E-01 0.80398005E+02</pdfrwt>
<pdfrwt beam="2">  1       -1 0.18074303E-02 0.80398005E+02</pdfrwt>
<totfact> 0.19230072E+05</totfact>
</mgrwt>
</event>
<event>
 8    1  0.1627221E-013  0.7888916E+02  0.7818608E-02  0.1332234E+00
         -1   -1    0    0    0  501 -0.00000000000E+00  0.00000000000E+00  0.26015692763E+02  0.26015693251E+02  0.50400000000E-02 0.  1.
          2   -1    0    0  501    0  0.00000000000E+00 -0.00000000000E+00 -0.59805246408E+02  0.59805246463E+02  0.25500000000E-02 0. -1.
         24    2    1    2    0    0  0.00000000000E+00  0.00000000000E+00 -0.33789553645E+02  0.85820939714E+02  0.78889161219E+02 0.  0.
         66    2    3    3    0    0  0.56944593781E+01  0.38930645510E+02 -0.19536348457E+02  0.43973752836E+02  0.20000000095E+01 0.  0.
        -13    1    3    3    0    0 -0.56944593781E+01 -0.38930645510E+02 -0.14253205188E+02  0.41847186878E+02  0.10566000000E+00 0.  1.
         13    1    4    4    0    0  0.74522772947E+00  0.32717099349E+01 -0.21491224859E+01  0.39861437207E+01  0.10566000000E+00 0. -1.
        -13    1    4    4    0    0  0.30806935667E+01  0.24504403741E+02 -0.11722581267E+02  0.27338371406E+02  0.10566000000E+00 0. -1.
        -14    1    4    4    0    0  0.18685380819E+01  0.11154531834E+02 -0.56646447042E+01  0.12649237709E+02  0.00000000000E+00 0.  1.
<mgrwt>
<rscale>  0 0.78889161E+02</rscale>
<asrwt>0</asrwt>
<pdfrwt beam="1">  1        2 0.92008071E-02 0.78889161E+02</pdfrwt>
<pdfrwt beam="2">  1       -1 0.40024143E-02 0.78889161E+02</pdfrwt>
<totfact> 0.16157140E+05</totfact>
</mgrwt>
</event>
<event>
 8    1  0.1627221E-013  0.8072212E+02  0.7818608E-02  0.1327015E+00
         -1   -1    0    0    0  501 -0.00000000000E+00  0.00000000000E+00  0.73067167153E+00  0.73068905368E+00  0.50400000000E-02 0.  1.
          2   -1    0    0  501    0  0.00000000000E+00 -0.00000000000E+00 -0.22294497474E+04  0.22294497474E+04  0.25500000000E-02 0. -1.
         24    2    1    2    0    0  0.00000000000E+00 -0.17763568394E-14 -0.22287190757E+04  0.22301804364E+04  0.80722119838E+02 0.  0.
         66    2    3    3    0    0 -0.11214040971E+02 -0.12693340599E+02 -0.21264386712E+04  0.21265070651E+04  0.19999989264E+01 0.  0.
        -13    1    3    3    0    0  0.11214040971E+02  0.12693340599E+02 -0.10228040447E+03  0.10367337128E+03  0.10566000000E+00 0.  1.
         13    1    4    4    0    0 -0.25403684772E+01 -0.38512690004E+01 -0.63294482595E+03  0.63296164939E+03  0.10566000000E+00 0. -1.
        -13    1    4    4    0    0 -0.39458934042E+00 -0.61153860922E+00 -0.82576715390E+02  0.82579990124E+02  0.10566000000E+00 0. -1.
         14    1    4    4    0    0 -0.82790831530E+01 -0.82305329899E+01 -0.14109171299E+04  0.14109654256E+04  0.00000000000E+00 0. -1.
<mgrwt>
<rscale>  0 0.80722120E+02</rscale>
<asrwt>0</asrwt>
<pdfrwt beam="1">  1        2 0.34298682E+00 0.80722120E+02</pdfrwt>
<pdfrwt beam="2">  1       -1 0.11241415E-03 0.80722120E+02</pdfrwt>
<totfact> 0.24132651E+05</totfact>
</mgrwt>
</event>
<event>
 8    1  0.1627221E-013  0.7867993E+02  0.7818608E-02  0.1332840E+00
          2   -1    0    0  501    0  0.00000000000E+00  0.00000000000E+00  0.20217450493E+03  0.20217450494E+03  0.25500000000E-02 0. -1.
         -1   -1    0    0    0  501 -0.00000000000E+00 -0.00000000000E+00 -0.76549350308E+01  0.76549366900E+01  0.50400000000E-02 0.  1.
         24    2    1    2    0    0  0.17763568394E-14 -0.17763568394E-14  0.19451956990E+03  0.20982944163E+03  0.78679930754E+02 0.  0.
         66    2    3    3    0    0 -0.90237763773E+01  0.14191379103E+02  0.19209236127E+03  0.19283749393E+03  0.20000069584E+01 0.  0.
        -13    1    3    3    0    0  0.90237763773E+01 -0.14191379103E+02  0.24272086304E+01  0.16991947702E+02  0.10566000000E+00 0.  1.
         13    1    4    4    0    0 -0.13837904682E+00  0.11151246179E+00  0.28339613697E+01  0.28414934226E+01  0.10566000000E+00 0.  1.
        -13    1    4    4    0    0 -0.91229124466E+00  0.25162813182E+01  0.31022009739E+02  0.31137440474E+02  0.10566000000E+00 0.  1.
         14    1    4    4    0    0 -0.79731060858E+01  0.11563585323E+02  0.15823639016E+03  0.15885856003E+03  0.00000000000E+00 0. -1.
<mgrwt>
<rscale>  0 0.78679931E+02</rscale>
<asrwt>0</asrwt>
<pdfrwt beam="1">  1        2 0.31103773E-01 0.78679931E+02</pdfrwt>
<pdfrwt beam="2">  1       -1 0.11776823E-02 0.78679931E+02</pdfrwt>
<totfact> 0.23134325E+05</totfact>
</mgrwt>
</event>
<event>
 8    1  0.1627221E-013  0.7828213E+02  0.7818608E-02  0.1333998E+00
          2   -1    0    0  501    0  0.00000000000E+00  0.00000000000E+00  0.10675692159E+03  0.10675692162E+03  0.25500000000E-02 0. -1.
         -1   -1    0    0    0  501 -0.00000000000E+00 -0.00000000000E+00 -0.14350571834E+02  0.14350572719E+02  0.50400000000E-02 0.  1.
         24    2    1    2    0    0  0.00000000000E+00 -0.71054273576E-14  0.92406349757E+02  0.12110749434E+03  0.78282128932E+02 0.  0.
         66    2    3    3    0    0  0.89124537439E+01 -0.38084418776E+02  0.45608313131E+02  0.60116329560E+02  0.20000169762E+01 0.  0.
        -13    1    3    3    0    0 -0.89124537439E+01  0.38084418776E+02  0.46798036626E+02  0.60991164781E+02  0.10566000000E+00 0.  1.
         13    1    4    4    0    0  0.54485548422E+01 -0.24648142191E+02  0.29183711470E+02  0.38586498189E+02  0.10566000000E+00 0. -1.
        -13    1    4    4    0    0  0.14157950366E+00 -0.20347288685E+01  0.25366404960E+01  0.32566662963E+01  0.10566000000E+00 0.  1.
         14    1    4    4    0    0  0.33223193980E+01 -0.11401547716E+02  0.13887961165E+02  0.18273165074E+02  0.00000000000E+00 0. -1.
<mgrwt>
<rscale>  0 0.78282129E+02</rscale>
<asrwt>0</asrwt>
<pdfrwt beam="1">  1        2 0.16424142E-01 0.78282129E+02</pdfrwt>
<pdfrwt beam="2">  1       -1 0.22077803E-02 0.78282129E+02</pdfrwt>
<totfact> 0.19135222E+05</totfact>
</mgrwt>
</event>
<event>
 8    1  0.1627221E-013  0.8069863E+02  0.7818608E-02  0.1327080E+00
          2   -1    0    0  501    0  0.00000000000E+00  0.00000000000E+00  0.97697669936E+01  0.97697673264E+01  0.25500000000E-02 0. -1.
         -1   -1    0    0    0  501 -0.00000000000E+00 -0.00000000000E+00 -0.16664338524E+03  0.16664338531E+03  0.50400000000E-02 0.  1.
         24    2    1    2    0    0  0.00000000000E+00  0.00000000000E+00 -0.15687361824E+03  0.17641315264E+03  0.80698626528E+02 0.  0.
         66    2    3    3    0    0 -0.36445917519E+02 -0.41219090639E+01 -0.11511493544E+03  0.12083353595E+03  0.20000025051E+01 0.  0.
        -13    1    3    3    0    0  0.36445917519E+02  0.41219090639E+01 -0.41758682802E+02  0.55579616691E+02  0.10566000000E+00 0.  1.
         13    1    4    4    0    0 -0.15337578836E+02 -0.21360608318E+01 -0.47086660424E+02  0.49567820553E+02  0.10566000000E+00 0. -1.
        -13    1    4    4    0    0 -0.58033159951E+00 -0.18754862706E+00 -0.23860858140E+01  0.24650616220E+01  0.10566000000E+00 0.  1.
         14    1    4    4    0    0 -0.20528007083E+02 -0.17982996051E+01 -0.65642189203E+02  0.68800653773E+02  0.00000000000E+00 0. -1.
<mgrwt>
<rscale>  0 0.80698627E+02</rscale>
<asrwt>0</asrwt>
<pdfrwt beam="1">  1        2 0.15030412E-02 0.80698627E+02</pdfrwt>
<pdfrwt beam="2">  1       -1 0.25637442E-01 0.80698627E+02</pdfrwt>
<totfact> 0.10264855E+05</totfact>
</mgrwt>
</event>
<event>
 8    1  0.1627221E-013  0.7922275E+02  0.7818608E-02  0.1331272E+00
          2   -1    0    0  501    0  0.00000000000E+00  0.00000000000E+00  0.14494801724E+03  0.14494801726E+03  0.25500000000E-02 0. -1.
         -1   -1    0    0    0  501 -0.00000000000E+00 -0.00000000000E+00 -0.10824990527E+02  0.10824991700E+02  0.50400000000E-02 0.  1.
         24    2    1    2    0    0  0.00000000000E+00  0.00000000000E+00  0.13412302671E+03  0.15577300896E+03  0.79222749424E+02 0.  0.
         66    2    3    3    0    0  0.35281878616E+02 -0.84158140651E+01  0.98281648718E+02  0.10478033865E+03  0.20000018219E+01 0.  0.
        -13    1    3    3    0    0 -0.35281878616E+02  0.84158140651E+01  0.35841377990E+02  0.50992670310E+02  0.10566000000E+00 0.  1.
         13    1    4    4    0    0  0.16902705293E+02 -0.41336217494E+01  0.46895347065E+02  0.50019726262E+02  0.10566000000E+00 0. -1.
        -13    1    4    4    0    0  0.12601679357E+02 -0.35927417044E+01  0.35154620327E+02  0.37517577347E+02  0.10566000000E+00 0.  1.
        -14    1    4    4    0    0  0.57774939658E+01 -0.68945061131E+00  0.16231681326E+02  0.17243035038E+02  0.00000000000E+00 0.  1.
<mgrwt>
<rscale>  0 0.79222749E+02</rscale>
<asrwt>0</asrwt>
<pdfrwt beam="1">  1        2 0.22299695E-01 0.79222749E+02</pdfrwt>
<pdfrwt beam="2">  1       -1 0.16653833E-02 0.79222749E+02</pdfrwt>
<totfact> 0.20331261E+05</totfact>
</mgrwt>
</event>
<event>
 8    1  0.1627221E-013  0.7879333E+02  0.7818608E-02  0.1332511E+00
         -1   -1    0    0    0  501 -0.00000000000E+00  0.00000000000E+00  0.22942562416E+01  0.22942617776E+01  0.50400000000E-02 0.  1.
          2   -1    0    0  501    0  0.00000000000E+00 -0.00000000000E+00 -0.67651355263E+03  0.67651355264E+03  0.25500000000E-02 0. -1.
         24    2    1    2    0    0  0.00000000000E+00  0.35527136788E-14 -0.67421929639E+03  0.67880781441E+03  0.78793332744E+02 0.  0.
         66    2    3    3    0    0 -0.20233017135E+01 -0.24672488418E+02 -0.60107413998E+03  0.60158702379E+03  0.20000008043E+01 0.  0.
        -13    1    3    3    0    0  0.20233017135E+01  0.24672488418E+02 -0.73145156410E+02  0.77220790626E+02  0.10566000000E+00 0.  1.
         13    1    4    4    0    0 -0.41469034091E+00 -0.91728337545E+01 -0.20336259454E+03  0.20356981325E+03  0.10566000000E+00 0. -1.
        -13    1    4    4    0    0 -0.42152328275E-01 -0.43361563834E+00 -0.11752820361E+02  0.11761366834E+02  0.10566000000E+00 0. -1.
         14    1    4    4    0    0 -0.15664590443E+01 -0.15066039025E+02 -0.38595872508E+03  0.38625584370E+03  0.00000000000E+00 0. -1.
<mgrwt>
<rscale>  0 0.78793333E+02</rscale>
<asrwt>0</asrwt>
<pdfrwt beam="1">  1        2 0.10407885E+00 0.78793333E+02</pdfrwt>
<pdfrwt beam="2">  1       -1 0.35296347E-03 0.78793333E+02</pdfrwt>
<totfact> 0.34521011E+05</totfact>
</mgrwt>
</event>
<event>
 8    1  0.1627221E-013  0.7984913E+02  0.7818608E-02  0.1329480E+00
         -1   -1    0    0    0  501 -0.00000000000E+00  0.00000000000E+00  0.54100257807E+01  0.54100281283E+01  0.50400000000E-02 0.  1.
          2   -1    0    0  501    0  0.00000000000E+00 -0.00000000000E+00 -0.29463267572E+03  0.29463267573E+03  0.25500000000E-02 0. -1.
         24    2    1    2    0    0  0.00000000000E+00  0.00000000000E+00 -0.28922264994E+03  0.30004270386E+03  0.79849125864E+02 0.  0.
         66    2    3    3    0    0  0.20295335959E+02 -0.32928164296E+02 -0.10792294584E+03  0.11466266573E+03  0.20000020854E+01 0.  0.
        -13    1    3    3    0    0 -0.20295335959E+02  0.32928164296E+02 -0.18129970410E+03  0.18538003813E+03  0.10566000000E+00 0.  1.
         13    1    4    4    0    0  0.77049814259E+01 -0.12099746497E+02 -0.41600352471E+02  0.44004216774E+02  0.10566000000E+00 0.  1.
        -13    1    4    4    0    0  0.55779424574E+01 -0.80785245739E+01 -0.26287101391E+02  0.28060628378E+02  0.10566000000E+00 0. -1.
        -14    1    4    4    0    0  0.70124120760E+01 -0.12749893225E+02 -0.40035491976E+02  0.42597820579E+02  0.00000000000E+00 0.  1.
<mgrwt>
<rscale>  0 0.79849126E+02</rscale>
<asrwt>0</asrwt>
<pdfrwt beam="1">  1        2 0.45328091E-01 0.79849126E+02</pdfrwt>
<pdfrwt beam="2">  1       -1 0.83231207E-03 0.79849126E+02</pdfrwt>
<totfact> 0.25454036E+05</totfact>
</mgrwt>
</event>
<event>
 8    1  0.1627221E-013  0.7948095E+02  0.7818608E-02  0.1330531E+00
          2   -1    0    0  501    0  0.00000000000E+00  0.00000000000E+00  0.20067357684E+02  0.20067357846E+02  0.25500000000E-02 0. -1.
         -1   -1    0    0    0  501 -0.00000000000E+00 -0.00000000000E+00 -0.78700222884E+02  0.78700223046E+02  0.50400000000E-02 0.  1.
         24    2    1    2    0    0  0.00000000000E+00  0.71054273576E-14 -0.58632865200E+02  0.98767580892E+02  0.79480954660E+02 0.  0.
         66    2    3    3    0    0  0.20491347411E+02  0.29099321778E+02 -0.74333178943E+01  0.36413185257E+02  0.19999997542E+01 0.  0.
        -13    1    3    3    0    0 -0.20491347411E+02 -0.29099321778E+02 -0.51199547306E+02  0.62354395635E+02  0.10566000000E+00 0.  1.
         13    1    4    4    0    0  0.11241527278E+02  0.16285881374E+02 -0.43779206286E+01  0.20267689083E+02  0.10566000000E+00 0. -1.
        -13    1    4    4    0    0  0.87674045400E+01  0.12233660956E+02 -0.26292535957E+01  0.15279200937E+02  0.10566000000E+00 0.  1.
        -14    1    4    4    0    0  0.48241559267E+00  0.57977944715E+00 -0.42614367001E+00  0.86629523770E+00  0.00000000000E+00 0.  1.
<mgrwt>
<rscale>  0 0.79480955E+02</rscale>
<asrwt>0</asrwt>
<pdfrwt beam="1">  1        2 0.30872859E-02 0.79480955E+02</pdfrwt>
<pdfrwt beam="2">  1       -1 0.12107726E-01 0.79480955E+02</pdfrwt>
<totfact> 0.12658427E+05</totfact>
</mgrwt>
</event>
<event>
 8    1  0.1627221E-013  0.7926044E+02  0.7818608E-02  0.1331163E+00
         -1   -1    0    0    0  501 -0.00000000000E+00  0.00000000000E+00  0.38358366448E+01  0.38358399559E+01  0.50400000000E-02 0.  1.
          2   -1    0    0  501    0  0.00000000000E+00 -0.00000000000E+00 -0.40944227843E+03  0.40944227844E+03  0.25500000000E-02 0. -1.
         24    2    1    2    0    0  0.00000000000E+00 -0.35527136788E-14 -0.40560644179E+03  0.41327811840E+03  0.79260441114E+02 0.  0.
         66    2    3    3    0    0 -0.20565116642E+02  0.24633937776E+02 -0.32396323610E+03  0.32555480842E+03  0.20000083667E+01 0.  0.
        -13    1    3    3    0    0  0.20565116642E+02 -0.24633937776E+02 -0.81643205694E+02  0.87723309974E+02  0.10566000000E+00 0.  1.
         13    1    4    4    0    0 -0.94149249979E+01  0.10815410685E+02 -0.13707488559E+03  0.13782289122E+03  0.10566000000E+00 0. -1.
        -13    1    4    4    0    0 -0.10551065529E+02  0.12765308292E+02 -0.17317743212E+03  0.17396756088E+03  0.10566000000E+00 0.  1.
         14    1    4    4    0    0 -0.59912611503E+00  0.10532187987E+01 -0.13710918387E+02  0.13764356322E+02  0.00000000000E+00 0. -1.
<mgrwt>
<rscale>  0 0.79260441E+02</rscale>
<asrwt>0</asrwt>
<pdfrwt beam="1">  1        2 0.62991085E-01 0.79260441E+02</pdfrwt>
<pdfrwt beam="2">  1       -1 0.59012930E-03 0.79260441E+02</pdfrwt>
<totfact> 0.29183190E+05</totfact>
</mgrwt>
</event>
<event>
 8    1  0.1627221E-013  0.8017371E+02  0.7818608E-02  0.1328559E+00
         -1   -1    0    0    0  501 -0.00000000000E+00  0.00000000000E+00  0.19024164746E+02  0.19024165414E+02  0.50400000000E-02 0.  1.
          2   -1    0    0  501    0  0.00000000000E+00 -0.00000000000E+00 -0.84469197469E+02  0.84469197508E+02  0.25500000000E-02 0. -1.
         24    2    1    2    0    0  0.17763568394E-14  0.71054273576E-14 -0.65445032723E+02  0.10349336292E+03  0.80173710533E+02 0.  0.
         66    2    3    3    0    0 -0.11695382461E+02 -0.33333415717E+02 -0.57134772017E+02  0.67203279271E+02  0.19999992738E+01 0.  0.
        -13    1    3    3    0    0  0.11695382461E+02  0.33333415717E+02 -0.83102607062E+01  0.36290083650E+02  0.10566000000E+00 0.  1.
         13    1    4    4    0    0 -0.66571887128E+01 -0.18929425873E+02 -0.31617078180E+02  0.37447191111E+02  0.10566000000E+00 0. -1.
        -13    1    4    4    0    0 -0.38004303603E+01 -0.11125573446E+02 -0.18664631828E+02  0.22059041247E+02  0.10566000000E+00 0.  1.
        -14    1    4    4    0    0 -0.12377633880E+01 -0.32784163985E+01 -0.68530620089E+01  0.76970469133E+01  0.00000000000E+00 0.  1.
<mgrwt>
<rscale>  0 0.80173711E+02</rscale>
<asrwt>0</asrwt>
<pdfrwt beam="1">  1        2 0.12995261E-01 0.80173711E+02</pdfrwt>
<pdfrwt beam="2">  1       -1 0.29267947E-02 0.80173711E+02</pdfrwt>
<totfact> 0.16834363E+05</totfact>
</mgrwt>
</event>
<event>
 8    1  0.1627221E-013  0.8029571E+02  0.7818608E-02  0.1328214E+00
         -1   -1    0    0    0  501 -0.00000000000E+00  0.00000000000E+00  0.99227330179E+02  0.99227330307E+02  0.50400000000E-02 0.  1.
          2   -1    0    0  501    0  0.00000000000E+00 -0.00000000000E+00 -0.16244016448E+02  0.16244016648E+02  0.25500000000E-02 0. -1.
         24    2    1    2    0    0  0.71054273576E-14  0.00000000000E+00  0.82983313730E+02  0.11547134696E+03  0.80295713522E+02 0.  0.
         66    2    3    3    0    0 -0.38852695716E+02 -0.98506851972E+01  0.44120790354E+02  0.59642368364E+02  0.19999998480E+01 0.  0.
        -13    1    3    3    0    0  0.38852695716E+02  0.98506851972E+01  0.38862523376E+02  0.55828978591E+02  0.10566000000E+00 0.  1.
         13    1    4    4    0    0 -0.12291218069E+02 -0.25926537363E+01  0.13220705901E+02  0.18237163254E+02  0.10566000000E+00 0.  1.
        -13    1    4    4    0    0 -0.10340842852E+02 -0.23295386701E+01  0.11434638293E+02  0.15592366666E+02  0.10566000000E+00 0. -1.
        -14    1    4    4    0    0 -0.16220634795E+02 -0.49284927908E+01  0.19465446161E+02  0.25812838445E+02  0.00000000000E+00 0.  1.
<mgrwt>
<rscale>  0 0.80295714E+02</rscale>
<asrwt>0</asrwt>
<pdfrwt beam="1">  1        2 0.24990795E-02 0.80295714E+02</pdfrwt>
<pdfrwt beam="2">  1       -1 0.15265743E-01 0.80295714E+02</pdfrwt>
<totfact> 0.11764042E+05</totfact>
</mgrwt>
</event>
<event>
 8    1  0.1627221E-013  0.8901137E+02  0.7818608E-02  0.1305264E+00
          2   -1    0    0  501    0  0.00000000000E+00  0.00000000000E+00  0.55836828691E+03  0.55836828691E+03  0.25500000000E-02 0. -1.
         -1   -1    0    0    0  501 -0.00000000000E+00 -0.00000000000E+00 -0.35473988863E+01  0.35474024666E+01  0.50400000000E-02 0.  1.
         24    2    1    2    0    0 -0.17763568394E-14  0.00000000000E+00  0.55482088802E+03  0.56191568938E+03  0.89011371109E+02 0.  0.
         66    2    3    3    0    0 -0.15612909484E+02 -0.37153019498E+02  0.39643323872E+03  0.39848139550E+03  0.19999995912E+01 0.  0.
        -13    1    3    3    0    0  0.15612909484E+02  0.37153019498E+02  0.15838764930E+03  0.16343429388E+03  0.10566000000E+00 0.  1.
         13    1    4    4    0    0 -0.44070599661E+01 -0.11426105383E+02  0.12775645259E+03  0.12834212249E+03  0.10566000000E+00 0. -1.
        -13    1    4    4    0    0 -0.21666096725E+01 -0.52742716926E+01  0.52123202071E+02  0.52434258816E+02  0.10566000000E+00 0.  1.
         14    1    4    4    0    0 -0.90392398455E+01 -0.20452642422E+02  0.21655358405E+03  0.21770501419E+03  0.00000000000E+00 0. -1.
<mgrwt>
<rscale>  0 0.89011371E+02</rscale>
<asrwt>0</asrwt>
<pdfrwt beam="1">  1        2 0.85902746E-01 0.89011371E+02</pdfrwt>
<pdfrwt beam="2">  1       -1 0.54575438E-03 0.89011371E+02</pdfrwt>
<totfact> 0.23826015E+05</totfact>
</mgrwt>
</event>
<event>
 8    1  0.1627221E-013  0.7456006E+02  0.7818608E-02  0.1345239E+00
         -1   -1    0    0    0  501 -0.00000000000E+00  0.00000000000E+00  0.31881032992E+01  0.31881072830E+01  0.50400000000E-02 0.  1.
          2   -1    0    0  501    0  0.00000000000E+00 -0.00000000000E+00 -0.43593313903E+03  0.43593313904E+03  0.25500000000E-02 0. -1.
         24    2    1    2    0    0  0.00000000000E+00  0.00000000000E+00 -0.43274503573E+03  0.43912124632E+03  0.74560063173E+02 0.  0.
         66    2    3    3    0    0 -0.26140795974E+02  0.23633300689E+01 -0.37222331178E+03  0.37315294502E+03  0.19999992810E+01 0.  0.
        -13    1    3    3    0    0  0.26140795974E+02 -0.23633300689E+01 -0.60521723948E+02  0.65968301304E+02  0.10566000000E+00 0.  1.
         13    1    4    4    0    0 -0.27453284837E+01  0.50762161851E+00 -0.44344079949E+02  0.44432005342E+02  0.10566000000E+00 0.  1.
        -13    1    4    4    0    0 -0.38655744753E+01 -0.19139382660E+00 -0.53499185486E+02  0.53639102428E+02  0.10566000000E+00 0.  1.
         14    1    4    4    0    0 -0.19529893015E+02  0.20471022770E+01 -0.27438004635E+03  0.27508183725E+03  0.00000000000E+00 0. -1.
<mgrwt>
<rscale>  0 0.74560063E+02</rscale>
<asrwt>0</asrwt>
<pdfrwt beam="1">  1        2 0.67066590E-01 0.74560063E+02</pdfrwt>
<pdfrwt beam="2">  1       -1 0.49047808E-03 0.74560063E+02</pdfrwt>
<totfact> 0.34953233E+05</totfact>
</mgrwt>
</event>
<event>
 8    1  0.1627221E-013  0.8288876E+02  0.7818608E-02  0.1321048E+00
          2   -1    0    0  501    0  0.00000000000E+00  0.00000000000E+00  0.39202580789E+03  0.39202580790E+03  0.25500000000E-02 0. -1.
         -1   -1    0    0    0  501 -0.00000000000E+00 -0.00000000000E+00 -0.43814360488E+01  0.43814389476E+01  0.50400000000E-02 0.  1.
         24    2    1    2    0    0 -0.22204460493E-15 -0.71054273576E-14  0.38764437184E+03  0.39640724685E+03  0.82888758778E+02 0.  0.
         66    2    3    3    0    0  0.18180658709E+01 -0.39924972196E+02  0.24595589212E+03  0.24918990677E+03  0.20000001982E+01 0.  0.
        -13    1    3    3    0    0 -0.18180658709E+01  0.39924972196E+02  0.14168847973E+03  0.14721734008E+03  0.10566000000E+00 0.  1.
         13    1    4    4    0    0  0.34206891317E+00 -0.16786766927E+02  0.99977825371E+02  0.10137795266E+03  0.10566000000E+00 0. -1.
        -13    1    4    4    0    0  0.19813208002E+00 -0.22101139837E+01  0.12160899536E+02  0.12362139852E+02  0.10566000000E+00 0.  1.
         14    1    4    4    0    0  0.12778648777E+01 -0.20928091285E+02  0.13381716721E+03  0.13544981426E+03  0.00000000000E+00 0. -1.
<mgrwt>
<rscale>  0 0.82888759E+02</rscale>
<asrwt>0</asrwt>
<pdfrwt beam="1">  1        2 0.60311665E-01 0.82888759E+02</pdfrwt>
<pdfrwt beam="2">  1       -1 0.67406729E-03 0.82888759E+02</pdfrwt>
<totfact> 0.25567384E+05</totfact>
</mgrwt>
</event>
<event>
 8    1  0.1627221E-013  0.8017432E+02  0.7818608E-02  0.1328557E+00
          2   -1    0    0  501    0  0.00000000000E+00  0.00000000000E+00  0.87704347133E+03  0.87704347133E+03  0.25500000000E-02 0. -1.
         -1   -1    0    0    0  501 -0.00000000000E+00 -0.00000000000E+00 -0.18322666894E+01  0.18322736211E+01  0.50400000000E-02 0.  1.
         24    2    1    2    0    0  0.00000000000E+00  0.00000000000E+00  0.87521120464E+03  0.87887574495E+03  0.80174324702E+02 0.  0.
         66    2    3    3    0    0 -0.80646914800E+01  0.15718928495E+02  0.83203168327E+03  0.83222163269E+03  0.19999959235E+01 0.  0.
        -13    1    3    3    0    0  0.80646914800E+01 -0.15718928495E+02  0.43179521362E+02  0.46654112260E+02  0.10566000000E+00 0.  1.
         13    1    4    4    0    0 -0.28556414930E+01  0.42432554310E+01  0.21665431200E+03  0.21671470181E+03  0.10566000000E+00 0. -1.
        -13    1    4    4    0    0 -0.44410708680E+00  0.62153016694E+00  0.34451134261E+02  0.34459764172E+02  0.10566000000E+00 0.  1.
         14    1    4    4    0    0 -0.47649429002E+01  0.10854142897E+02  0.58092623701E+03  0.58104716671E+03  0.00000000000E+00 0. -1.
<mgrwt>
<rscale>  0 0.80174325E+02</rscale>
<asrwt>0</asrwt>
<pdfrwt beam="1">  1        2 0.13492966E+00 0.80174325E+02</pdfrwt>
<pdfrwt beam="2">  1       -1 0.28188794E-03 0.80174325E+02</pdfrwt>
<totfact> 0.34644241E+05</totfact>
</mgrwt>
</event>
<event>
 8    1  0.1627221E-013  0.7746955E+02  0.7818608E-02  0.1336390E+00
          2   -1    0    0  501    0  0.00000000000E+00  0.00000000000E+00  0.24020091501E+03  0.24020091502E+03  0.25500000000E-02 0. -1.
         -1   -1    0    0    0  501 -0.00000000000E+00 -0.00000000000E+00 -0.62463642954E+01  0.62463663287E+01  0.50400000000E-02 0.  1.
         24    2    1    2    0    0  0.00000000000E+00  0.44408920985E-15  0.23395455071E+03  0.24644728135E+03  0.77469546828E+02 0.  0.
         66    2    3    3    0    0 -0.31261148780E+02  0.32968544411E+01  0.18891451286E+03  0.19152237948E+03  0.19999995710E+01 0.  0.
        -13    1    3    3    0    0  0.31261148780E+02 -0.32968544411E+01  0.45040037852E+02  0.54924901875E+02  0.10566000000E+00 0.  1.
         13    1    4    4    0    0 -0.11849496684E+02  0.13858473703E+01  0.75250989562E+02  0.76190903254E+02  0.10566000000E+00 0. -1.
        -13    1    4    4    0    0 -0.27037724512E+01  0.38524791963E+00  0.13728338249E+02  0.13997758268E+02  0.10566000000E+00 0.  1.
        -14    1    4    4    0    0 -0.16707879644E+02  0.15257591511E+01  0.99935185050E+02  0.10133371795E+03  0.00000000000E+00 0.  1.
<mgrwt>
<rscale>  0 0.77469547E+02</rscale>
<asrwt>0</asrwt>
<pdfrwt beam="1">  1        2 0.36953988E-01 0.77469547E+02</pdfrwt>
<pdfrwt beam="2">  1       -1 0.96097925E-03 0.77469547E+02</pdfrwt>
<totfact> 0.25602081E+05</totfact>
</mgrwt>
</event>
<event>
 8    1  0.1627221E-013  0.7920584E+02  0.7818608E-02  0.1331320E+00
         -1   -1    0    0    0  501 -0.00000000000E+00  0.00000000000E+00  0.68283543320E+02  0.68283543506E+02  0.50400000000E-02 0.  1.
          2   -1    0    0  501    0  0.00000000000E+00 -0.00000000000E+00 -0.22968803004E+02  0.22968803145E+02  0.25500000000E-02 0. -1.
         24    2    1    2    0    0  0.00000000000E+00  0.88817841970E-15  0.45314740316E+02  0.91252346651E+02  0.79205839932E+02 0.  0.
         66    2    3    3    0    0 -0.39385178723E+02 -0.38910998520E+01  0.22937913535E+02  0.45787343606E+02  0.19999990181E+01 0.  0.
        -13    1    3    3    0    0  0.39385178723E+02  0.38910998520E+01  0.22376826781E+02  0.45465003045E+02  0.10566000000E+00 0.  1.
         13    1    4    4    0    0 -0.28651735136E+01 -0.51799832827E+00  0.14726164081E+01  0.32645527492E+01  0.10566000000E+00 0. -1.
        -13    1    4    4    0    0 -0.71684432666E+01 -0.12271252257E+01  0.40065411490E+01  0.83039720134E+01  0.10566000000E+00 0.  1.
         14    1    4    4    0    0 -0.29351561942E+02 -0.21459762981E+01  0.17458755978E+02  0.34218818843E+02  0.00000000000E+00 0. -1.
<mgrwt>
<rscale>  0 0.79205840E+02</rscale>
<asrwt>0</asrwt>
<pdfrwt beam="1">  1        2 0.35336620E-02 0.79205840E+02</pdfrwt>
<pdfrwt beam="2">  1       -1 0.10505160E-01 0.79205840E+02</pdfrwt>
<totfact> 0.13131874E+05</totfact>
</mgrwt>
</event>
<event>
 8    1  0.1627221E-013  0.8192612E+02  0.7818608E-02  0.1323673E+00
          2   -1    0    0  501    0  0.00000000000E+00  0.00000000000E+00  0.59702219206E+03  0.59702219207E+03  0.25500000000E-02 0. -1.
         -1   -1    0    0    0  501 -0.00000000000E+00 -0.00000000000E+00 -0.28105668482E+01  0.28105713671E+01  0.50400000000E-02 0.  1.
         24    2    1    2    0    0  0.35527136788E-14  0.00000000000E+00  0.59421162521E+03  0.59983276343E+03  0.81926116411E+02 0.  0.
         66    2    3    3    0    0  0.18941201415E+02 -0.30522903997E+02  0.44104579445E+03  0.44251080165E+03  0.20000007511E+01 0.  0.
        -13    1    3    3    0    0 -0.18941201415E+02  0.30522903997E+02  0.15316583077E+03  0.15732196178E+03  0.10566000000E+00 0.  1.
         13    1    4    4    0    0  0.42498377070E+01 -0.71111667098E+01  0.10187159100E+03  0.10220793525E+03  0.10566000000E+00 0. -1.
        -13    1    4    4    0    0  0.47632429028E+01 -0.89339948659E+01  0.12915271550E+03  0.12954898622E+03  0.10566000000E+00 0.  1.
        -14    1    4    4    0    0  0.99281208047E+01 -0.14477742422E+02  0.21002148795E+03  0.21075388018E+03  0.00000000000E+00 0.  1.
<mgrwt>
<rscale>  0 0.81926116E+02</rscale>
<asrwt>0</asrwt>
<pdfrwt beam="1">  1        2 0.91849675E-01 0.81926116E+02</pdfrwt>
<pdfrwt beam="2">  1       -1 0.43239474E-03 0.81926116E+02</pdfrwt>
<totfact> 0.30188527E+05</totfact>
</mgrwt>
</event>
<event>
 8    1  0.1660465E-013  0.7930061E+02  0.7818608E-02  0.1331048E+00
         -1   -1    0    0    0  501 -0.00000000000E+00  0.00000000000E+00  0.91025038190E+01  0.91025052143E+01  0.50400000000E-02 0.  1.
          2   -1    0    0  501    0  0.00000000000E+00 -0.00000000000E+00 -0.17271581565E+03  0.17271581567E+03  0.25500000000E-02 0. -1.
         24    2    1    2    0    0  0.88817841970E-15  0.17763568394E-14 -0.16361331183E+03  0.18181832088E+03  0.79300605296E+02 0.  0.
         66    2    3    3    0    0 -0.72530928775E+01 -0.13154399176E+02 -0.16592851597E+03  0.16661908050E+03  0.20000002033E+01 0.  0.
        -13    1    3    3    0    0  0.72530928775E+01  0.13154399176E+02  0.23152041390E+01  0.15199240383E+02  0.10566000000E+00 0.  1.
         13    1    4    4    0    0 -0.25891352675E+01 -0.50886140992E+01 -0.64714099710E+02  0.64965556106E+02  0.10566000000E+00 0. -1.
        -13    1    4    4    0    0 -0.26966693557E+01 -0.60179480417E+01 -0.71953797782E+02  0.72255435114E+02  0.10566000000E+00 0.  1.
        -14    1    4    4    0    0 -0.19672882543E+01 -0.20478370352E+01 -0.29260618475E+02  0.29398089277E+02  0.00000000000E+00 0.  1.
<mgrwt>
<rscale>  0 0.79300605E+02</rscale>
<asrwt>0</asrwt>
<pdfrwt beam="1">  1        2 0.26571662E-01 0.79300605E+02</pdfrwt>
<pdfrwt beam="2">  1       -1 0.14003854E-02 0.79300605E+02</pdfrwt>
<totfact> 0.21473106E+05</totfact>
</mgrwt>
</event>
<event>
 8    1  0.1627221E-013  0.8010597E+02  0.7818608E-02  0.1328751E+00
          2   -1    0    0  501    0  0.00000000000E+00  0.00000000000E+00  0.72604205515E+02  0.72604205560E+02  0.25500000000E-02 0. -1.
         -1   -1    0    0    0  501 -0.00000000000E+00 -0.00000000000E+00 -0.22095713299E+02  0.22095713874E+02  0.50400000000E-02 0.  1.
         24    2    1    2    0    0 -0.35527136788E-14  0.17763568394E-14  0.50508492216E+02  0.94699919434E+02  0.80105973278E+02 0.  0.
         66    2    3    3    0    0 -0.19321848208E+02  0.98749427763E+01  0.65033991717E+02  0.68587669190E+02  0.19999933148E+01 0.  0.
        -13    1    3    3    0    0  0.19321848208E+02 -0.98749427763E+01 -0.14525499501E+02  0.26112250244E+02  0.10566000000E+00 0.  1.
         13    1    4    4    0    0 -0.11138238388E+02  0.60666708995E+01  0.40121758188E+02  0.42078872303E+02  0.10566000000E+00 0. -1.
        -13    1    4    4    0    0 -0.48149638772E+01  0.18205289667E+01  0.14002122568E+02  0.14918740004E+02  0.10566000000E+00 0.  1.
        -14    1    4    4    0    0 -0.33686459430E+01  0.19877429101E+01  0.10910110961E+02  0.11590056883E+02  0.00000000000E+00 0.  1.
<mgrwt>
<rscale>  0 0.80105973E+02</rscale>
<asrwt>0</asrwt>
<pdfrwt beam="1">  1        2 0.11169878E-01 0.80105973E+02</pdfrwt>
<pdfrwt beam="2">  1       -1 0.33993406E-02 0.80105973E+02</pdfrwt>
<totfact> 0.16233966E+05</totfact>
</mgrwt>
</event>
<event>
 8    1  0.1627221E-013  0.7949146E+02  0.7818608E-02  0.1330501E+00
         -1   -1    0    0    0  501 -0.00000000000E+00  0.00000000000E+00  0.92734971179E+02  0.92734971316E+02  0.50400000000E-02 0.  1.
          2   -1    0    0  501    0  0.00000000000E+00 -0.00000000000E+00 -0.17034816594E+02  0.17034816785E+02  0.25500000000E-02 0. -1.
         24    2    1    2    0    0  0.17763568394E-14  0.00000000000E+00  0.75700154586E+02  0.10976978810E+03  0.79491464796E+02 0.  0.
         66    2    3    3    0    0 -0.14793339707E+02  0.15862969214E+02 -0.80758187592E+01  0.23231348284E+02  0.20000006229E+01 0.  0.
        -13    1    3    3    0    0  0.14793339707E+02 -0.15862969214E+02  0.83775973345E+02  0.86538439817E+02  0.10566000000E+00 0.  1.
         13    1    4    4    0    0 -0.10400262763E+02  0.11644005616E+02 -0.54055675621E+01  0.16522096024E+02  0.10566000000E+00 0. -1.
        -13    1    4    4    0    0 -0.33153129157E+01  0.36337072957E+01 -0.22768268664E+01  0.54212759619E+01  0.10566000000E+00 0.  1.
        -14    1    4    4    0    0 -0.10777640286E+01  0.58525630206E+00 -0.39342433080E+00  0.12879762981E+01  0.00000000000E+00 0.  1.
<mgrwt>
<rscale>  0 0.79491465E+02</rscale>
<asrwt>0</asrwt>
<pdfrwt beam="1">  1        2 0.26207410E-02 0.79491465E+02</pdfrwt>
<pdfrwt beam="2">  1       -1 0.14266919E-01 0.79491465E+02</pdfrwt>
<totfact> 0.12236302E+05</totfact>
</mgrwt>
</event>
<event>
 8    1  0.1627221E-013  0.8041480E+02  0.7818608E-02  0.1327878E+00
          2   -1    0    0  501    0  0.00000000000E+00  0.00000000000E+00  0.31518570525E+02  0.31518570628E+02  0.25500000000E-02 0. -1.
         -1   -1    0    0    0  501 -0.00000000000E+00 -0.00000000000E+00 -0.51291506270E+02  0.51291506518E+02  0.50400000000E-02 0.  1.
         24    2    1    2    0    0  0.35527136788E-14  0.35527136788E-14 -0.19772935745E+02  0.82810077146E+02  0.80414798943E+02 0.  0.
         66    2    3    3    0    0  0.24377486483E+02 -0.31897490069E+02 -0.11651749389E+02  0.41850627055E+02  0.20000002924E+01 0.  0.
        -13    1    3    3    0    0 -0.24377486483E+02  0.31897490069E+02 -0.81211863560E+01  0.40959450091E+02  0.10566000000E+00 0.  1.
         13    1    4    4    0    0  0.14251675540E+02 -0.17251973871E+02 -0.63059210285E+01  0.23249014220E+02  0.10566000000E+00 0. -1.
        -13    1    4    4    0    0  0.45637611334E+01 -0.60564167184E+01 -0.22882684831E+01  0.79218328584E+01  0.10566000000E+00 0.  1.
        -14    1    4    4    0    0  0.55620498091E+01 -0.85890994788E+01 -0.30575598769E+01  0.10679779976E+02  0.00000000000E+00 0.  1.
<mgrwt>
<rscale>  0 0.80414799E+02</rscale>
<asrwt>0</asrwt>
<pdfrwt beam="1">  1        2 0.48490109E-02 0.80414799E+02</pdfrwt>
<pdfrwt beam="2">  1       -1 0.78910010E-02 0.80414799E+02</pdfrwt>
<totfact> 0.13392136E+05</totfact>
</mgrwt>
</event>
<event>
 8    1  0.1627221E-013  0.8186572E+02  0.7818608E-02  0.1323839E+00
         -1   -1    0    0    0  501 -0.00000000000E+00  0.00000000000E+00  0.23369613084E+01  0.23369667431E+01  0.50400000000E-02 0.  1.
          2   -1    0    0  501    0  0.00000000000E+00 -0.00000000000E+00 -0.71695537394E+03  0.71695537395E+03  0.25500000000E-02 0. -1.
         24    2    1    2    0    0  0.00000000000E+00  0.00000000000E+00 -0.71461841263E+03  0.71929234069E+03  0.81865717488E+02 0.  0.
         66    2    3    3    0    0  0.10120661642E+02 -0.27961317621E+01 -0.70491183662E+03  0.70499286773E+03  0.20000007718E+01 0.  0.
        -13    1    3    3    0    0 -0.10120661642E+02  0.27961317621E+01 -0.97065760166E+01  0.14299472959E+02  0.10566000000E+00 0.  1.
         13    1    4    4    0    0  0.44883470310E+01 -0.98545817915E+00 -0.32300914794E+03  0.32304185054E+03  0.10566000000E+00 0. -1.
        -13    1    4    4    0    0  0.19878809634E+01 -0.45744985919E+00 -0.17396901180E+03  0.17398100230E+03  0.10566000000E+00 0.  1.
         14    1    4    4    0    0  0.36444336479E+01 -0.13532237238E+01 -0.20793367688E+03  0.20797001489E+03  0.00000000000E+00 0. -1.
<mgrwt>
<rscale>  0 0.81865717E+02</rscale>
<asrwt>0</asrwt>
<pdfrwt beam="1">  1        2 0.11030065E+00 0.81865717E+02</pdfrwt>
<pdfrwt beam="2">  1       -1 0.35953350E-03 0.81865717E+02</pdfrwt>
<totfact> 0.31673565E+05</totfact>
</mgrwt>
</event>
<event>
 8    1  0.1627221E-013  0.7623217E+02  0.7818608E-02  0.1340097E+00
         -1   -1    0    0    0  501 -0.00000000000E+00  0.00000000000E+00  0.32718837355E+01  0.32718876173E+01  0.50400000000E-02 0.  1.
          2   -1    0    0  501    0  0.00000000000E+00 -0.00000000000E+00 -0.44403629968E+03  0.44403629968E+03  0.25500000000E-02 0. -1.
         24    2    1    2    0    0 -0.71054273576E-14  0.44408920985E-15 -0.44076441594E+03  0.44730818730E+03  0.76232172125E+02 0.  0.
         66    2    3    3    0    0 -0.29995045242E+02 -0.31699148774E+01 -0.35702299400E+03  0.35830038982E+03  0.20000006047E+01 0.  0.
        -13    1    3    3    0    0  0.29995045242E+02  0.31699148774E+01 -0.83741421942E+02  0.89007797480E+02  0.10566000000E+00 0.  1.
         13    1    4    4    0    0 -0.18733464844E+02 -0.26373252040E+01 -0.22022040446E+03  0.22103152692E+03  0.10566000000E+00 0. -1.
        -13    1    4    4    0    0 -0.59444543759E+00 -0.13072246109E+00 -0.61659116175E+01  0.61967801196E+01  0.10566000000E+00 0. -1.
        -14    1    4    4    0    0 -0.10667134960E+02 -0.40186721225E+00 -0.13063667792E+03  0.13107208278E+03  0.00000000000E+00 0.  1.
<mgrwt>
<rscale>  0 0.76232172E+02</rscale>
<asrwt>0</asrwt>
<pdfrwt beam="1">  1        2 0.68313229E-01 0.76232172E+02</pdfrwt>
<pdfrwt beam="2">  1       -1 0.50336738E-03 0.76232172E+02</pdfrwt>
<totfact> 0.33205402E+05</totfact>
</mgrwt>
</event>
<event>
 8    1  0.1627221E-013  0.8276464E+02  0.7818608E-02  0.1321384E+00
         -1   -1    0    0    0  501 -0.00000000000E+00  0.00000000000E+00  0.36464914428E+01  0.36464949258E+01  0.50400000000E-02 0.  1.
          2   -1    0    0  501    0  0.00000000000E+00 -0.00000000000E+00 -0.46962834526E+03  0.46962834527E+03  0.25500000000E-02 0. -1.
         24    2    1    2    0    0  0.00000000000E+00  0.17763568394E-14 -0.46598185382E+03  0.47327484019E+03  0.82764643856E+02 0.  0.
         66    2    3    3    0    0  0.10015333449E+02 -0.13588622984E+02 -0.44902894342E+03  0.44935058652E+03  0.20000001941E+01 0.  0.
        -13    1    3    3    0    0 -0.10015333449E+02  0.13588622984E+02 -0.16952910397E+02  0.23924253670E+02  0.10566000000E+00 0.  1.
         13    1    4    4    0    0  0.59571134775E+01 -0.76024416215E+01 -0.23632203979E+03  0.23651934799E+03  0.10566000000E+00 0. -1.
        -13    1    4    4    0    0  0.21550742628E+01 -0.38204376446E+01 -0.13139285364E+03  0.13146609160E+03  0.10566000000E+00 0.  1.
         14    1    4    4    0    0  0.19031457087E+01 -0.21657437181E+01 -0.81314049990E+02  0.81365146931E+02  0.00000000000E+00 0. -1.
<mgrwt>
<rscale>  0 0.82764644E+02</rscale>
<asrwt>0</asrwt>
<pdfrwt beam="1">  1        2 0.72250467E-01 0.82764644E+02</pdfrwt>
<pdfrwt beam="2">  1       -1 0.56099933E-03 0.82764644E+02</pdfrwt>
<totfact> 0.27305129E+05</totfact>
</mgrwt>
</event>
<event>
 8    1  0.1627221E-013  0.7996662E+02  0.7818608E-02  0.1329146E+00
          2   -1    0    0  501    0  0.00000000000E+00  0.00000000000E+00  0.33485775494E+02  0.33485775591E+02  0.25500000000E-02 0. -1.
         -1   -1    0    0    0  501 -0.00000000000E+00 -0.00000000000E+00 -0.47741622337E+02  0.47741622603E+02  0.50400000000E-02 0.  1.
         24    2    1    2    0    0  0.00000000000E+00  0.17763568394E-14 -0.14255846843E+02  0.81227398195E+02  0.79966624590E+02 0.  0.
         66    2    3    3    0    0 -0.97867487061E+01 -0.11010924771E+02  0.30596741157E+02  0.34017370352E+02  0.20000004148E+01 0.  0.
        -13    1    3    3    0    0  0.97867487061E+01  0.11010924771E+02 -0.44852588000E+02  0.47210027843E+02  0.10566000000E+00 0.  1.
         13    1    4    4    0    0 -0.63546563588E+01 -0.68810002234E+01  0.20240003061E+02  0.22302437299E+02  0.10566000000E+00 0. -1.
        -13    1    4    4    0    0 -0.25336939967E+01 -0.36009009342E+01  0.78712889999E+01  0.90196700252E+01  0.10566000000E+00 0.  1.
         14    1    4    4    0    0 -0.89839835060E+00 -0.52902361331E+00  0.24854490964E+01  0.26952630281E+01  0.00000000000E+00 0. -1.
<mgrwt>
<rscale>  0 0.79966625E+02</rscale>
<asrwt>0</asrwt>
<pdfrwt beam="1">  1        2 0.51516578E-02 0.79966625E+02</pdfrwt>
<pdfrwt beam="2">  1       -1 0.73448650E-02 0.79966625E+02</pdfrwt>
<totfact> 0.13767781E+05</totfact>
</mgrwt>
</event>
<event>
 8    1  0.1627221E-013  0.7920657E+02  0.7818608E-02  0.1331318E+00
          2   -1    0    0  501    0  0.00000000000E+00  0.00000000000E+00  0.41002944088E+02  0.41002944167E+02  0.25500000000E-02 0. -1.
         -1   -1    0    0    0  501 -0.00000000000E+00 -0.00000000000E+00 -0.38251406102E+02  0.38251406434E+02  0.50400000000E-02 0.  1.
         24    2    1    2    0    0  0.00000000000E+00 -0.71054273576E-14  0.27515379858E+01  0.79254350601E+02  0.79206572505E+02 0.  0.
         66    2    3    3    0    0  0.64447038222E+01  0.35115770823E+02  0.18468041010E+02  0.40245746432E+02  0.19999998212E+01 0.  0.
        -13    1    3    3    0    0 -0.64447038222E+01 -0.35115770823E+02 -0.15716503024E+02  0.39008604169E+02  0.10566000000E+00 0.  1.
         13    1    4    4    0    0  0.91059701340E-01  0.19033833076E+01  0.68607250715E+00  0.20280580380E+01  0.10566000000E+00 0.  1.
        -13    1    4    4    0    0  0.49463945171E+01  0.27289504241E+02  0.14872414240E+02  0.31470362721E+02  0.10566000000E+00 0. -1.
        -14    1    4    4    0    0  0.14072496037E+01  0.59228832746E+01  0.29095542635E+01  0.67473256735E+01  0.00000000000E+00 0.  1.
<mgrwt>
<rscale>  0 0.79206573E+02</rscale>
<asrwt>0</asrwt>
<pdfrwt beam="1">  1        2 0.63081453E-02 0.79206573E+02</pdfrwt>
<pdfrwt beam="2">  1       -1 0.58848317E-02 0.79206573E+02</pdfrwt>
<totfact> 0.14727692E+05</totfact>
</mgrwt>
</event>
<event>
 8    1  0.1627221E-013  0.8191840E+02  0.7818608E-02  0.1323694E+00
         -1   -1    0    0    0  501 -0.00000000000E+00  0.00000000000E+00  0.32346183876E+01  0.32346223141E+01  0.50400000000E-02 0.  1.
          2   -1    0    0  501    0  0.00000000000E+00 -0.00000000000E+00 -0.51865619640E+03  0.51865619641E+03  0.25500000000E-02 0. -1.
         24    2    1    2    0    0  0.00000000000E+00 -0.35527136788E-14 -0.51542157801E+03  0.52189081872E+03  0.81918395881E+02 0.  0.
         66    2    3    3    0    0 -0.17897875979E+01 -0.24807199151E+02 -0.46499543665E+03  0.46566442486E+03  0.20000023883E+01 0.  0.
        -13    1    3    3    0    0  0.17897875979E+01  0.24807199151E+02 -0.50426141365E+02  0.56226393859E+02  0.10566000000E+00 0.  1.
         13    1    4    4    0    0 -0.68122031142E+00 -0.66609519368E+01 -0.12679739073E+03  0.12697409894E+03  0.10566000000E+00 0. -1.
        -13    1    4    4    0    0 -0.88100222747E+00 -0.39992292010E+01 -0.71599241278E+02  0.71716333667E+02  0.10566000000E+00 0.  1.
        -14    1    4    4    0    0 -0.22756505904E+00 -0.14147018013E+02 -0.26659880464E+03  0.26697399226E+03  0.00000000000E+00 0.  1.
<mgrwt>
<rscale>  0 0.81918396E+02</rscale>
<asrwt>0</asrwt>
<pdfrwt beam="1">  1        2 0.79793195E-01 0.81918396E+02</pdfrwt>
<pdfrwt beam="2">  1       -1 0.49763431E-03 0.81918396E+02</pdfrwt>
<totfact> 0.28958574E+05</totfact>
</mgrwt>
</event>
<event>
 8    1  0.1627221E-013  0.7717830E+02  0.7818608E-02  0.1337255E+00
         -1   -1    0    0    0  501 -0.00000000000E+00  0.00000000000E+00  0.10629740457E+02  0.10629741652E+02  0.50400000000E-02 0.  1.
          2   -1    0    0  501    0  0.00000000000E+00 -0.00000000000E+00 -0.14009020869E+03  0.14009020872E+03  0.25500000000E-02 0. -1.
         24    2    1    2    0    0 -0.35527136788E-14  0.88817841970E-15 -0.12946046824E+03  0.15071995037E+03  0.77178303965E+02 0.  0.
         66    2    3    3    0    0 -0.31775663412E+02  0.22137719415E+01 -0.10722454241E+03  0.11187357174E+03  0.19999964472E+01 0.  0.
        -13    1    3    3    0    0  0.31775663412E+02 -0.22137719415E+01 -0.22235925822E+02  0.38846378630E+02  0.10566000000E+00 0.  1.
         13    1    4    4    0    0 -0.96826113813E+01  0.30291988578E+00 -0.35176522998E+02  0.36486211887E+02  0.10566000000E+00 0. -1.
        -13    1    4    4    0    0 -0.12794222629E+01 -0.12635333802E-01 -0.44410517140E+01  0.46228979375E+01  0.10566000000E+00 0.  1.
        -14    1    4    4    0    0 -0.20813629768E+02  0.19234873895E+01 -0.67606967702E+02  0.70764461912E+02  0.00000000000E+00 0.  1.
<mgrwt>
<rscale>  0 0.77178304E+02</rscale>
<asrwt>0</asrwt>
<pdfrwt beam="1">  1        2 0.21552339E-01 0.77178304E+02</pdfrwt>
<pdfrwt beam="2">  1       -1 0.16353449E-02 0.77178304E+02</pdfrwt>
<totfact> 0.21556214E+05</totfact>
</mgrwt>
</event>
<event>
 8    1  0.1627221E-013  0.7923616E+02  0.7818608E-02  0.1331233E+00
         -1   -1    0    0    0  501 -0.00000000000E+00  0.00000000000E+00  0.22549533054E+01  0.22549589378E+01  0.50400000000E-02 0.  1.
          2   -1    0    0  501    0  0.00000000000E+00 -0.00000000000E+00 -0.69606332755E+03  0.69606332756E+03  0.25500000000E-02 0. -1.
         24    2    1    2    0    0 -0.71054273576E-14  0.00000000000E+00 -0.69380837425E+03  0.69831828649E+03  0.79236160166E+02 0.  0.
         66    2    3    3    0    0  0.35129538039E+02 -0.93255212006E+01 -0.48550400853E+03  0.48686670875E+03  0.20000012916E+01 0.  0.
        -13    1    3    3    0    0 -0.35129538039E+02  0.93255212006E+01 -0.20830436572E+03  0.21145157774E+03  0.10566000000E+00 0.  1.
         13    1    4    4    0    0  0.17861715523E+02 -0.43687736274E+01 -0.25302127847E+03  0.25368859964E+03  0.10566000000E+00 0. -1.
        -13    1    4    4    0    0  0.19863615793E+01 -0.26441347342E+00 -0.24747534553E+02  0.24828757063E+02  0.10566000000E+00 0.  1.
         14    1    4    4    0    0  0.15281460937E+02 -0.46923340997E+01 -0.20773519550E+03  0.20834935205E+03  0.00000000000E+00 0. -1.
<mgrwt>
<rscale>  0 0.79236160E+02</rscale>
<asrwt>0</asrwt>
<pdfrwt beam="1">  1        2 0.10708649E+00 0.79236160E+02</pdfrwt>
<pdfrwt beam="2">  1       -1 0.34691688E-03 0.79236160E+02</pdfrwt>
<totfact> 0.34251632E+05</totfact>
</mgrwt>
</event>
<event>
 8    1  0.1627221E-013  0.8091349E+02  0.7818608E-02  0.1326479E+00
          2   -1    0    0  501    0  0.00000000000E+00  0.00000000000E+00  0.18591225720E+03  0.18591225721E+03  0.25500000000E-02 0. -1.
         -1   -1    0    0    0  501 -0.00000000000E+00 -0.00000000000E+00 -0.88038729935E+01  0.88038744361E+01  0.50400000000E-02 0.  1.
         24    2    1    2    0    0  0.00000000000E+00  0.44408920985E-15  0.17710838420E+03  0.19471613165E+03  0.80913485710E+02 0.  0.
         66    2    3    3    0    0 -0.31846699229E+02  0.32655188912E+01  0.14803717742E+03  0.15147237958E+03  0.20000026815E+01 0.  0.
        -13    1    3    3    0    0  0.31846699229E+02 -0.32655188912E+01  0.29071206779E+02  0.43243752069E+02  0.10566000000E+00 0.  1.
         13    1    4    4    0    0 -0.29038113162E+02  0.27170815560E+01  0.13599368461E+03  0.13908590140E+03  0.10566000000E+00 0. -1.
        -13    1    4    4    0    0 -0.21518763883E+01  0.35850012617E+00  0.98351577390E+01  0.10074749928E+02  0.10566000000E+00 0. -1.
         14    1    4    4    0    0 -0.65670967856E+00  0.18993720901E+00  0.22083350710E+01  0.23117282563E+01  0.00000000000E+00 0. -1.
<mgrwt>
<rscale>  0 0.80913486E+02</rscale>
<asrwt>0</asrwt>
<pdfrwt beam="1">  1        2 0.28601885E-01 0.80913486E+02</pdfrwt>
<pdfrwt beam="2">  1       -1 0.13544421E-02 0.80913486E+02</pdfrwt>
<totfact> 0.20873999E+05</totfact>
</mgrwt>
</event>
<event>
 8    1  0.1627221E-013  0.7909025E+02  0.7818608E-02  0.1331653E+00
         -1   -1    0    0    0  501 -0.00000000000E+00  0.00000000000E+00  0.27559448346E+01  0.27559494431E+01  0.50400000000E-02 0.  1.
          2   -1    0    0  501    0  0.00000000000E+00 -0.00000000000E+00 -0.56743362218E+03  0.56743362219E+03  0.25500000000E-02 0. -1.
         24    2    1    2    0    0  0.00000000000E+00  0.00000000000E+00 -0.56467767735E+03  0.57018957163E+03  0.79090254153E+02 0.  0.
         66    2    3    3    0    0 -0.22460617534E+02  0.11396743121E+02 -0.50207262858E+03  0.50270795644E+03  0.20000008752E+01 0.  0.
        -13    1    3    3    0    0  0.22460617534E+02 -0.11396743121E+02 -0.62605048766E+02  0.67481615191E+02  0.10566000000E+00 0.  1.
         13    1    4    4    0    0 -0.16005267219E+02  0.82464853086E+01 -0.34802900779E+03  0.34849443973E+03  0.10566000000E+00 0. -1.
        -13    1    4    4    0    0 -0.15384141909E+01  0.39395334225E+00 -0.30927614275E+02  0.30968538975E+02  0.10566000000E+00 0.  1.
        -14    1    4    4    0    0 -0.49169361235E+01  0.27563044702E+01 -0.12311600652E+03  0.12324497773E+03  0.00000000000E+00 0.  1.
<mgrwt>
<rscale>  0 0.79090254E+02</rscale>
<asrwt>0</asrwt>
<pdfrwt beam="1">  1        2 0.87297388E-01 0.79090254E+02</pdfrwt>
<pdfrwt beam="2">  1       -1 0.42399232E-03 0.79090254E+02</pdfrwt>
<totfact> 0.32610820E+05</totfact>
</mgrwt>
</event>
<event>
 8    1  0.1627221E-013  0.7948233E+02  0.7818608E-02  0.1330527E+00
          2   -1    0    0  501    0  0.00000000000E+00  0.00000000000E+00  0.43719610410E+03  0.43719610411E+03  0.25500000000E-02 0. -1.
         -1   -1    0    0    0  501 -0.00000000000E+00 -0.00000000000E+00 -0.36124736363E+01  0.36124771521E+01  0.50400000000E-02 0.  1.
         24    2    1    2    0    0  0.00000000000E+00  0.71054273576E-14  0.43358363047E+03  0.44080858126E+03  0.79482329521E+02 0.  0.
         66    2    3    3    0    0 -0.17898512159E+02  0.35423098829E+02  0.22515951813E+03  0.22863936946E+03  0.19999989817E+01 0.  0.
        -13    1    3    3    0    0  0.17898512159E+02 -0.35423098829E+02  0.20842411234E+03  0.21216921180E+03  0.10566000000E+00 0.  1.
         13    1    4    4    0    0 -0.10212683893E+02  0.20268717299E+02  0.12918974341E+03  0.13116829182E+03  0.10566000000E+00 0. -1.
        -13    1    4    4    0    0 -0.36583825340E+01  0.60038802059E+01  0.37804717943E+02  0.38453064937E+02  0.10566000000E+00 0.  1.
        -14    1    4    4    0    0 -0.40274457323E+01  0.91505013236E+01  0.58165056775E+02  0.59018012701E+02  0.00000000000E+00 0.  1.
<mgrwt>
<rscale>  0 0.79482330E+02</rscale>
<asrwt>0</asrwt>
<pdfrwt beam="1">  1        2 0.67260916E-01 0.79482330E+02</pdfrwt>
<pdfrwt beam="2">  1       -1 0.55576564E-03 0.79482330E+02</pdfrwt>
<totfact> 0.29630808E+05</totfact>
</mgrwt>
</event>
<event>
 8    1  0.1627221E-013  0.8162652E+02  0.7818608E-02  0.1324498E+00
         -1   -1    0    0    0  501 -0.00000000000E+00  0.00000000000E+00  0.18233683680E+02  0.18233684377E+02  0.50400000000E-02 0.  1.
          2   -1    0    0  501    0  0.00000000000E+00 -0.00000000000E+00 -0.91354121055E+02  0.91354121091E+02  0.25500000000E-02 0. -1.
         24    2    1    2    0    0  0.00000000000E+00  0.35527136788E-14 -0.73120437375E+02  0.10958780547E+03  0.81626519865E+02 0.  0.
         66    2    3    3    0    0  0.26260014769E+02 -0.27438831073E+02 -0.16612836797E+02  0.41502580099E+02  0.19999955380E+01 0.  0.
        -13    1    3    3    0    0 -0.26260014769E+02  0.27438831073E+02 -0.56507600578E+02  0.68085225368E+02  0.10566000000E+00 0.  1.
         13    1    4    4    0    0  0.12799642939E+02 -0.13939041861E+02 -0.87790920065E+01  0.20861720156E+02  0.10566000000E+00 0. -1.
        -13    1    4    4    0    0  0.26444221888E+01 -0.29825421750E+01 -0.20530499951E+01  0.44849420126E+01  0.10566000000E+00 0.  1.
         14    1    4    4    0    0  0.10815949640E+02 -0.10517247037E+02 -0.57806947955E+01  0.16155917931E+02  0.00000000000E+00 0. -1.
<mgrwt>
<rscale>  0 0.81626520E+02</rscale>
<asrwt>0</asrwt>
<pdfrwt beam="1">  1        2 0.14054480E-01 0.81626520E+02</pdfrwt>
<pdfrwt beam="2">  1       -1 0.28051822E-02 0.81626520E+02</pdfrwt>
<totfact> 0.16379430E+05</totfact>
</mgrwt>
</event>
<event>
 8    1  0.1627221E-013  0.8099654E+02  0.7818608E-02  0.1326247E+00
          2   -1    0    0  501    0  0.00000000000E+00  0.00000000000E+00  0.23471179941E+03  0.23471179942E+03  0.25500000000E-02 0. -1.
         -1   -1    0    0    0  501 -0.00000000000E+00 -0.00000000000E+00 -0.69877598922E+01  0.69877617097E+01  0.50400000000E-02 0.  1.
         24    2    1    2    0    0  0.00000000000E+00  0.00000000000E+00  0.22772403951E+03  0.24169956113E+03  0.80996541147E+02 0.  0.
         66    2    3    3    0    0 -0.16240250469E+02 -0.23216577213E+02  0.20017816235E+03  0.20218321381E+03  0.20000180376E+01 0.  0.
        -13    1    3    3    0    0  0.16240250469E+02  0.23216577213E+02  0.27545877169E+02  0.39516347324E+02  0.10566000000E+00 0.  1.
         13    1    4    4    0    0 -0.10634082788E+02 -0.14748700348E+02  0.12826044337E+03  0.12954289010E+03  0.10566000000E+00 0. -1.
        -13    1    4    4    0    0 -0.29621521474E+01 -0.36055573253E+01  0.35076689060E+02  0.35385868202E+02  0.10566000000E+00 0.  1.
         14    1    4    4    0    0 -0.26440155334E+01 -0.48623195400E+01  0.36841029916E+02  0.37254455502E+02  0.00000000000E+00 0. -1.
<mgrwt>
<rscale>  0 0.80996541E+02</rscale>
<asrwt>0</asrwt>
<pdfrwt beam="1">  1        2 0.36109503E-01 0.80996541E+02</pdfrwt>
<pdfrwt beam="2">  1       -1 0.10750403E-02 0.80996541E+02</pdfrwt>
<totfact> 0.22588050E+05</totfact>
</mgrwt>
</event>
<event>
 8    1  0.1627221E-013  0.8042230E+02  0.7818608E-02  0.1327857E+00
         -1   -1    0    0    0  501 -0.00000000000E+00  0.00000000000E+00  0.69517499598E+01  0.69517517868E+01  0.50400000000E-02 0.  1.
          2   -1    0    0  501    0  0.00000000000E+00 -0.00000000000E+00 -0.23259413669E+03  0.23259413670E+03  0.25500000000E-02 0. -1.
         24    2    1    2    0    0  0.00000000000E+00  0.00000000000E+00 -0.22564238673E+03  0.23954588849E+03  0.80422297925E+02 0.  0.
         66    2    3    3    0    0 -0.18709949684E+02 -0.34672293569E+02 -0.13647658246E+03  0.14206367486E+03  0.19999993208E+01 0.  0.
        -13    1    3    3    0    0  0.18709949684E+02  0.34672293569E+02 -0.89165804270E+02  0.97482213627E+02  0.10566000000E+00 0.  1.
         13    1    4    4    0    0 -0.58421945774E+01 -0.10745333603E+02 -0.44346215496E+02  0.46002080655E+02  0.10566000000E+00 0. -1.
        -13    1    4    4    0    0 -0.79265292479E+01 -0.13460264272E+02 -0.53749195260E+02  0.55973169781E+02  0.10566000000E+00 0.  1.
        -14    1    4    4    0    0 -0.49412258589E+01 -0.10466695694E+02 -0.38381171703E+02  0.40088424427E+02  0.00000000000E+00 0.  1.
<mgrwt>
<rscale>  0 0.80422298E+02</rscale>
<asrwt>0</asrwt>
<pdfrwt beam="1">  1        2 0.35783707E-01 0.80422298E+02</pdfrwt>
<pdfrwt beam="2">  1       -1 0.10695003E-02 0.80422298E+02</pdfrwt>
<totfact> 0.22941230E+05</totfact>
</mgrwt>
</event>
<event>
 8    1  0.1627221E-013  0.8122088E+02  0.7818608E-02  0.1325622E+00
          2   -1    0    0  501    0  0.00000000000E+00  0.00000000000E+00  0.10664370216E+02  0.10664370521E+02  0.25500000000E-02 0. -1.
         -1   -1    0    0    0  501 -0.00000000000E+00 -0.00000000000E+00 -0.15464652049E+03  0.15464652057E+03  0.50400000000E-02 0.  1.
         24    2    1    2    0    0  0.00000000000E+00  0.00000000000E+00 -0.14398215027E+03  0.16531089109E+03  0.81220878574E+02 0.  0.
         66    2    3    3    0    0  0.35679744880E+02  0.18301980240E+02 -0.59292085162E+02  0.71606969253E+02  0.20000018187E+01 0.  0.
        -13    1    3    3    0    0 -0.35679744880E+02 -0.18301980240E+02 -0.84690065110E+02  0.93703921838E+02  0.10566000000E+00 0.  1.
         13    1    4    4    0    0  0.19928660692E+02  0.11193762796E+02 -0.33215704692E+02  0.40320541226E+02  0.10566000000E+00 0. -1.
        -13    1    4    4    0    0  0.78978342765E+01  0.34122879090E+01 -0.12642222632E+02  0.15292365812E+02  0.10566000000E+00 0.  1.
        -14    1    4    4    0    0  0.78532499124E+01  0.36959295355E+01 -0.13434157838E+02  0.15994062215E+02  0.00000000000E+00 0.  1.
<mgrwt>
<rscale>  0 0.81220879E+02</rscale>
<asrwt>0</asrwt>
<pdfrwt beam="1">  1        2 0.16406725E-02 0.81220879E+02</pdfrwt>
<pdfrwt beam="2">  1       -1 0.23791771E-01 0.81220879E+02</pdfrwt>
<totfact> 0.10300647E+05</totfact>
</mgrwt>
</event>
<event>
 8    1  0.1627221E-013  0.7924623E+02  0.7818608E-02  0.1331204E+00
         -1   -1    0    0    0  501 -0.00000000000E+00  0.00000000000E+00  0.44969506160E+01  0.44969534403E+01  0.50400000000E-02 0.  1.
          2   -1    0    0  501    0  0.00000000000E+00 -0.00000000000E+00 -0.34912343659E+03  0.34912343660E+03  0.25500000000E-02 0. -1.
         24    2    1    2    0    0  0.22204460493E-15 -0.35527136788E-14 -0.34462648598E+03  0.35362039004E+03  0.79246232825E+02 0.  0.
         66    2    3    3    0    0  0.18363368964E+01 -0.20282829177E+02 -0.32395839287E+03  0.32460407516E+03  0.20000020212E+01 0.  0.
        -13    1    3    3    0    0 -0.18363368964E+01  0.20282829177E+02 -0.20668093111E+02  0.29016314885E+02  0.10566000000E+00 0.  1.
         13    1    4    4    0    0 -0.11584373069E+00 -0.10267550711E+01 -0.21650602851E+02  0.21675502615E+02  0.10566000000E+00 0.  1.
        -13    1    4    4    0    0  0.44159134234E+00 -0.19449028857E+01 -0.28416838938E+02  0.28486936469E+02  0.10566000000E+00 0. -1.
         14    1    4    4    0    0  0.15105892848E+01 -0.17311171220E+02 -0.27389095108E+03  0.27444163607E+03  0.00000000000E+00 0. -1.
<mgrwt>
<rscale>  0 0.79246233E+02</rscale>
<asrwt>0</asrwt>
<pdfrwt beam="1">  1        2 0.53711277E-01 0.79246233E+02</pdfrwt>
<pdfrwt beam="2">  1       -1 0.69183905E-03 0.79246233E+02</pdfrwt>
<totfact> 0.27600428E+05</totfact>
</mgrwt>
</event>
<event>
 8    1  0.1627221E-013  0.8020259E+02  0.7818608E-02  0.1328477E+00
          2   -1    0    0  501    0  0.00000000000E+00  0.00000000000E+00  0.51481918667E+02  0.51481918730E+02  0.25500000000E-02 0. -1.
         -1   -1    0    0    0  501 -0.00000000000E+00 -0.00000000000E+00 -0.31236478189E+02  0.31236478596E+02  0.50400000000E-02 0.  1.
         24    2    1    2    0    0  0.00000000000E+00  0.00000000000E+00  0.20245440478E+02  0.82718397327E+02  0.80202589710E+02 0.  0.
         66    2    3    3    0    0  0.11962728475E+02 -0.13080723698E+02  0.47199426415E+02  0.50457883893E+02  0.19999970021E+01 0.  0.
        -13    1    3    3    0    0 -0.11962728475E+02  0.13080723698E+02 -0.26953985937E+02  0.32260513433E+02  0.10566000000E+00 0.  1.
         13    1    4    4    0    0  0.64359603603E+01 -0.67568354242E+01  0.23729307308E+02  0.25498384264E+02  0.10566000000E+00 0. -1.
        -13    1    4    4    0    0  0.41707738916E+01 -0.55099547341E+01  0.19047403328E+02  0.20262519429E+02  0.10566000000E+00 0.  1.
         14    1    4    4    0    0  0.13559942232E+01 -0.81393353961E+00  0.44227157784E+01  0.46969801998E+01  0.00000000000E+00 0. -1.
<mgrwt>
<rscale>  0 0.80202590E+02</rscale>
<asrwt>0</asrwt>
<pdfrwt beam="1">  1        2 0.79202952E-02 0.80202590E+02</pdfrwt>
<pdfrwt beam="2">  1       -1 0.48056121E-02 0.80202590E+02</pdfrwt>
<totfact> 0.14934995E+05</totfact>
</mgrwt>
</event>
<event>
 8    1  0.1627221E-013  0.7987961E+02  0.7818608E-02  0.1329393E+00
         -1   -1    0    0    0  501 -0.00000000000E+00  0.00000000000E+00  0.42355003179E+02  0.42355003479E+02  0.50400000000E-02 0.  1.
          2   -1    0    0  501    0  0.00000000000E+00 -0.00000000000E+00 -0.37662324802E+02  0.37662324888E+02  0.25500000000E-02 0. -1.
         24    2    1    2    0    0  0.00000000000E+00  0.00000000000E+00  0.46926783774E+01  0.80017328367E+02  0.79879606964E+02 0.  0.
         66    2    3    3    0    0 -0.20050975853E+02 -0.28928740122E+01 -0.32102949727E+02  0.38013283749E+02  0.20000018684E+01 0.  0.
        -13    1    3    3    0    0  0.20050975853E+02  0.28928740122E+01  0.36795628104E+02  0.42004044619E+02  0.10566000000E+00 0.  1.
         13    1    4    4    0    0 -0.10513157299E+02 -0.17507656273E+01 -0.18159117549E+02  0.21056029324E+02  0.10566000000E+00 0. -1.
        -13    1    4    4    0    0 -0.25742166319E+01 -0.39022529307E+00 -0.31215377712E+01  0.40662057424E+01  0.10566000000E+00 0.  1.
         14    1    4    4    0    0 -0.69636019229E+01 -0.75188309178E+00 -0.10822294406E+02  0.12891048683E+02  0.00000000000E+00 0. -1.
<mgrwt>
<rscale>  0 0.79879607E+02</rscale>
<asrwt>0</asrwt>
<pdfrwt beam="1">  1        2 0.57942039E-02 0.79879607E+02</pdfrwt>
<pdfrwt beam="2">  1       -1 0.65161543E-02 0.79879607E+02</pdfrwt>
<totfact> 0.14139790E+05</totfact>
</mgrwt>
</event>
<event>
 8    1  0.1627221E-013  0.8095890E+02  0.7818608E-02  0.1326352E+00
          2   -1    0    0  501    0  0.00000000000E+00  0.00000000000E+00  0.18140634250E+03  0.18140634252E+03  0.25500000000E-02 0. -1.
         -1   -1    0    0    0  501 -0.00000000000E+00 -0.00000000000E+00 -0.90326821155E+01  0.90326835216E+01  0.50400000000E-02 0.  1.
         24    2    1    2    0    0  0.35527136788E-14  0.35527136788E-14  0.17237366039E+03  0.19043902604E+03  0.80958902195E+02 0.  0.
         66    2    3    3    0    0  0.24803194176E+02  0.26482993873E+02  0.12832057865E+03  0.13336685611E+03  0.19999996395E+01 0.  0.
        -13    1    3    3    0    0 -0.24803194176E+02 -0.26482993873E+02  0.44053081736E+02  0.57072169928E+02  0.10566000000E+00 0.  1.
         13    1    4    4    0    0  0.95431628700E+01  0.10448628199E+02  0.52890436627E+02  0.54750846929E+02  0.10566000000E+00 0. -1.
        -13    1    4    4    0    0  0.76096380774E+01  0.86139121707E+01  0.38733705203E+02  0.40403182515E+02  0.10566000000E+00 0.  1.
         14    1    4    4    0    0  0.76503932287E+01  0.74204535038E+01  0.36696436819E+02  0.38212826668E+02  0.00000000000E+00 0. -1.
<mgrwt>
<rscale>  0 0.80958902E+02</rscale>
<asrwt>0</asrwt>
<pdfrwt beam="1">  1        2 0.27908667E-01 0.80958902E+02</pdfrwt>
<pdfrwt beam="2">  1       -1 0.13896436E-02 0.80958902E+02</pdfrwt>
<totfact> 0.20669012E+05</totfact>
</mgrwt>
</event>
<event>
 8    1  0.1627221E-013  0.8090547E+02  0.7818608E-02  0.1326501E+00
          2   -1    0    0  501    0  0.00000000000E+00  0.00000000000E+00  0.11184283012E+04  0.11184283013E+04  0.25500000000E-02 0. -1.
         -1   -1    0    0    0  501 -0.00000000000E+00 -0.00000000000E+00 -0.14631415504E+01  0.14631502309E+01  0.50400000000E-02 0.  1.
         24    2    1    2    0    0  0.00000000000E+00 -0.35527136788E-14  0.11169651597E+04  0.11198914515E+04  0.80905470296E+02 0.  0.
         66    2    3    3    0    0  0.15693073766E+02 -0.23610800516E+02  0.95776876987E+03  0.95819035636E+03  0.20000046965E+01 0.  0.
        -13    1    3    3    0    0 -0.15693073766E+02  0.23610800516E+02  0.15919638983E+03  0.16170109512E+03  0.10566000000E+00 0.  1.
         13    1    4    4    0    0  0.70720415673E+00 -0.15453527162E+01  0.55598189360E+02  0.55624257990E+02  0.10566000000E+00 0.  1.
        -13    1    4    4    0    0  0.12869048848E+02 -0.19042338322E+02  0.75853669764E+03  0.75888481069E+03  0.10566000000E+00 0. -1.
        -14    1    4    4    0    0  0.21168207613E+01 -0.30231094780E+01  0.14363388287E+03  0.14368128768E+03  0.00000000000E+00 0.  1.
<mgrwt>
<rscale>  0 0.80905470E+02</rscale>
<asrwt>0</asrwt>
<pdfrwt beam="1">  1        2 0.17206633E+00 0.80905470E+02</pdfrwt>
<pdfrwt beam="2">  1       -1 0.22509879E-03 0.80905470E+02</pdfrwt>
<totfact> 0.34214195E+05</totfact>
</mgrwt>
</event>
<event>
 8    1  0.1627221E-013  0.8031470E+02  0.7818608E-02  0.1328161E+00
         -1   -1    0    0    0  501 -0.00000000000E+00  0.00000000000E+00  0.21274798077E+02  0.21274798674E+02  0.50400000000E-02 0.  1.
          2   -1    0    0  501    0  0.00000000000E+00 -0.00000000000E+00 -0.75799207607E+02  0.75799207650E+02  0.25500000000E-02 0. -1.
         24    2    1    2    0    0  0.00000000000E+00 -0.35527136788E-14 -0.54524409530E+02  0.97074006324E+02  0.80314702697E+02 0.  0.
         66    2    3    3    0    0  0.37134530711E+02 -0.14086604993E+02 -0.34243573902E+02  0.52478835407E+02  0.20000002029E+01 0.  0.
        -13    1    3    3    0    0 -0.37134530711E+02  0.14086604993E+02 -0.20280835628E+02  0.44595170917E+02  0.10566000000E+00 0.  1.
         13    1    4    4    0    0  0.23406541105E+02 -0.80581366796E+01 -0.21018279247E+02  0.32474281513E+02  0.10566000000E+00 0. -1.
        -13    1    4    4    0    0  0.12854223789E+02 -0.56953809523E+01 -0.12178883750E+02  0.18601204446E+02  0.10566000000E+00 0. -1.
         14    1    4    4    0    0  0.87376581701E+00 -0.33308736077E+00 -0.10464109048E+01  0.14033494485E+01  0.00000000000E+00 0. -1.
<mgrwt>
<rscale>  0 0.80314703E+02</rscale>
<asrwt>0</asrwt>
<pdfrwt beam="1">  1        2 0.11661416E-01 0.80314703E+02</pdfrwt>
<pdfrwt beam="2">  1       -1 0.32730460E-02 0.80314703E+02</pdfrwt>
<totfact> 0.16294547E+05</totfact>
</mgrwt>
</event>
<event>
 8    1  0.1627221E-013  0.7736178E+02  0.7818608E-02  0.1336710E+00
         -1   -1    0    0    0  501 -0.00000000000E+00  0.00000000000E+00  0.50203349569E+02  0.50203349822E+02  0.50400000000E-02 0.  1.
          2   -1    0    0  501    0  0.00000000000E+00 -0.00000000000E+00 -0.29803013002E+02  0.29803013111E+02  0.25500000000E-02 0. -1.
         24    2    1    2    0    0 -0.35527136788E-14  0.00000000000E+00  0.20400336567E+02  0.80006362933E+02  0.77361775947E+02 0.  0.
         66    2    3    3    0    0  0.19692092559E+02 -0.10171846150E+02 -0.22545209957E+02  0.31678564579E+02  0.19999995751E+01 0.  0.
        -13    1    3    3    0    0 -0.19692092559E+02  0.10171846150E+02  0.42945546524E+02  0.48327798354E+02  0.10566000000E+00 0.  1.
         13    1    4    4    0    0  0.78701927434E+01 -0.36930413005E+01 -0.88730246345E+01  0.12422568900E+02  0.10566000000E+00 0. -1.
        -13    1    4    4    0    0  0.78942079215E+01 -0.44884977369E+01 -0.82336028259E+01  0.12258405695E+02  0.10566000000E+00 0.  1.
        -14    1    4    4    0    0  0.39276918944E+01 -0.19903071129E+01 -0.54385824967E+01  0.69975899847E+01  0.00000000000E+00 0.  1.
<mgrwt>
<rscale>  0 0.77361776E+02</rscale>
<asrwt>0</asrwt>
<pdfrwt beam="1">  1        2 0.45850790E-02 0.77361776E+02</pdfrwt>
<pdfrwt beam="2">  1       -1 0.77235923E-02 0.77361776E+02</pdfrwt>
<totfact> 0.14758547E+05</totfact>
</mgrwt>
</event>
<event>
 8    1  0.1627221E-013  0.8025192E+02  0.7818608E-02  0.1328338E+00
         -1   -1    0    0    0  501 -0.00000000000E+00  0.00000000000E+00  0.25404390450E+02  0.25404390950E+02  0.50400000000E-02 0.  1.
          2   -1    0    0  501    0  0.00000000000E+00 -0.00000000000E+00 -0.63378517359E+02  0.63378517411E+02  0.25500000000E-02 0. -1.
         24    2    1    2    0    0  0.00000000000E+00  0.44408920985E-15 -0.37974126909E+02  0.88782908361E+02  0.80251918996E+02 0.  0.
         66    2    3    3    0    0  0.17025622263E+02  0.24016488521E+01 -0.59077648263E+02  0.61561418537E+02  0.19999993562E+01 0.  0.
        -13    1    3    3    0    0 -0.17025622263E+02 -0.24016488521E+01  0.21103521354E+02  0.27221489824E+02  0.10566000000E+00 0.  1.
         13    1    4    4    0    0  0.65941198490E+00  0.80287035020E-01 -0.36450844625E+01  0.37066258171E+01  0.10566000000E+00 0. -1.
        -13    1    4    4    0    0  0.14012537311E+01 -0.80401980135E-01 -0.49135963420E+01  0.51112199664E+01  0.10566000000E+00 0.  1.
         14    1    4    4    0    0  0.14964956547E+02  0.24017637972E+01 -0.50518967458E+02  0.52743572754E+02  0.00000000000E+00 0. -1.
<mgrwt>
<rscale>  0 0.80251919E+02</rscale>
<asrwt>0</asrwt>
<pdfrwt beam="1">  1        2 0.97505411E-02 0.80251919E+02</pdfrwt>
<pdfrwt beam="2">  1       -1 0.39083678E-02 0.80251919E+02</pdfrwt>
<totfact> 0.15632250E+05</totfact>
</mgrwt>
</event>
<event>
 8    1  0.1627221E-013  0.8102790E+02  0.7818608E-02  0.1326159E+00
          2   -1    0    0  501    0  0.00000000000E+00  0.00000000000E+00  0.12081229875E+04  0.12081229875E+04  0.25500000000E-02 0. -1.
         -1   -1    0    0    0  501 -0.00000000000E+00 -0.00000000000E+00 -0.13586153514E+01  0.13586246997E+01  0.50400000000E-02 0.  1.
         24    2    1    2    0    0  0.00000000000E+00 -0.17763568394E-14  0.12067643721E+04  0.12094816122E+04  0.81027898704E+02 0.  0.
         66    2    3    3    0    0  0.17941596320E+02 -0.14558112051E+02  0.11000565222E+04  0.11003009550E+04  0.20000016465E+01 0.  0.
        -13    1    3    3    0    0 -0.17941596320E+02  0.14558112051E+02  0.10670784991E+03  0.10918065717E+03  0.10566000000E+00 0.  1.
         13    1    4    4    0    0  0.71086720589E+01 -0.61499276431E+01  0.45718082109E+03  0.45727745316E+03  0.10566000000E+00 0. -1.
        -13    1    4    4    0    0  0.98740895529E+01 -0.80123196389E+01  0.60481221290E+03  0.60494588101E+03  0.10566000000E+00 0.  1.
        -14    1    4    4    0    0  0.95883470800E+00 -0.39586476884E+00  0.38063488245E+02  0.38077620859E+02  0.00000000000E+00 0.  1.
<mgrwt>
<rscale>  0 0.81027899E+02</rscale>
<asrwt>0</asrwt>
<pdfrwt beam="1">  1        2 0.18586517E+00 0.81027899E+02</pdfrwt>
<pdfrwt beam="2">  1       -1 0.20901836E-03 0.81027899E+02</pdfrwt>
<totfact> 0.33869000E+05</totfact>
</mgrwt>
</event>
<event>
 8    1  0.1627221E-013  0.8589252E+02  0.7818608E-02  0.1313115E+00
         -1   -1    0    0    0  501 -0.00000000000E+00  0.00000000000E+00  0.35210221513E+02  0.35210221874E+02  0.50400000000E-02 0.  1.
          2   -1    0    0  501    0  0.00000000000E+00 -0.00000000000E+00 -0.52381978012E+02  0.52381978074E+02  0.25500000000E-02 0. -1.
         24    2    1    2    0    0  0.00000000000E+00  0.22204460493E-15 -0.17171756498E+02  0.87592199948E+02  0.85892515800E+02 0.  0.
         66    2    3    3    0    0 -0.20765203002E+02 -0.11328505750E+01 -0.46882173423E+02  0.51326554441E+02  0.19999999484E+01 0.  0.
        -13    1    3    3    0    0  0.20765203002E+02  0.11328505750E+01  0.29710416925E+02  0.36265645507E+02  0.10566000000E+00 0.  1.
         13    1    4    4    0    0 -0.17792494890E+02 -0.10647225907E+01 -0.39651012572E+02  0.43473215555E+02  0.10566000000E+00 0. -1.
        -13    1    4    4    0    0 -0.10485424817E+01 -0.26306250420E+00 -0.32615155111E+01  0.34376286422E+01  0.10566000000E+00 0.  1.
        -14    1    4    4    0    0 -0.19241656310E+01  0.19493451989E+00 -0.39696453394E+01  0.44157102445E+01  0.00000000000E+00 0.  1.
<mgrwt>
<rscale>  0 0.85892516E+02</rscale>
<asrwt>0</asrwt>
<pdfrwt beam="1">  1        2 0.80587659E-02 0.85892516E+02</pdfrwt>
<pdfrwt beam="2">  1       -1 0.54169572E-02 0.85892516E+02</pdfrwt>
<totfact> 0.12417672E+05</totfact>
</mgrwt>
</event>
<event>
 8    1  0.1627221E-013  0.7549101E+02  0.7818608E-02  0.1342357E+00
         -1   -1    0    0    0  501 -0.00000000000E+00  0.00000000000E+00  0.50616139307E+01  0.50616164399E+01  0.50400000000E-02 0.  1.
          2   -1    0    0  501    0  0.00000000000E+00 -0.00000000000E+00 -0.28147595724E+03  0.28147595725E+03  0.25500000000E-02 0. -1.
         24    2    1    2    0    0  0.00000000000E+00  0.00000000000E+00 -0.27641434331E+03  0.28653757369E+03  0.75491005755E+02 0.  0.
         66    2    3    3    0    0 -0.31487694236E+02 -0.18461352009E+02 -0.17439688320E+03  0.17818689424E+03  0.20000007250E+01 0.  0.
        -13    1    3    3    0    0  0.31487694236E+02  0.18461352009E+02 -0.10201746011E+03  0.10835067945E+03  0.10566000000E+00 0.  1.
         13    1    4    4    0    0 -0.43416156839E+01 -0.26058834654E+01 -0.24998612343E+02  0.25506509728E+02  0.10566000000E+00 0. -1.
        -13    1    4    4    0    0 -0.29451575724E+01 -0.11190852577E+01 -0.14701658442E+02  0.15035831534E+02  0.10566000000E+00 0.  1.
        -14    1    4    4    0    0 -0.24200920979E+02 -0.14736383286E+02 -0.13469661242E+03  0.13764455298E+03  0.00000000000E+00 0.  1.
<mgrwt>
<rscale>  0 0.75491006E+02</rscale>
<asrwt>0</asrwt>
<pdfrwt beam="1">  1        2 0.43303981E-01 0.75491006E+02</pdfrwt>
<pdfrwt beam="2">  1       -1 0.77871025E-03 0.75491006E+02</pdfrwt>
<totfact> 0.28996227E+05</totfact>
</mgrwt>
</event>
<event>
 8    1  0.1627221E-013  0.8090534E+02  0.7818608E-02  0.1326502E+00
         -1   -1    0    0    0  501 -0.00000000000E+00  0.00000000000E+00  0.28990002749E+01  0.28990046560E+01  0.50400000000E-02 0.  1.
          2   -1    0    0  501    0  0.00000000000E+00 -0.00000000000E+00 -0.56447647111E+03  0.56447647111E+03  0.25500000000E-02 0. -1.
         24    2    1    2    0    0  0.00000000000E+00  0.00000000000E+00 -0.56157747083E+03  0.56737547577E+03  0.80905344432E+02 0.  0.
         66    2    3    3    0    0  0.33512704608E+02 -0.20908085299E+01 -0.43885616085E+03  0.44014338886E+03  0.19999985192E+01 0.  0.
        -13    1    3    3    0    0 -0.33512704608E+02  0.20908085299E+01 -0.12272130998E+03  0.12723208691E+03  0.10566000000E+00 0.  1.
         13    1    4    4    0    0  0.19676179557E+02 -0.10146806477E+01 -0.25265874528E+03  0.25342579654E+03  0.10566000000E+00 0. -1.
        -13    1    4    4    0    0  0.13408746011E+00 -0.69143435215E-01 -0.19931686289E+01  0.20016606807E+01  0.10566000000E+00 0. -1.
         14    1    4    4    0    0  0.13702437591E+02 -0.10069844470E+01 -0.18420424694E+03  0.18471593165E+03  0.00000000000E+00 0. -1.
<mgrwt>
<rscale>  0 0.80905344E+02</rscale>
<asrwt>0</asrwt>
<pdfrwt beam="1">  1        2 0.86842446E-01 0.80905344E+02</pdfrwt>
<pdfrwt beam="2">  1       -1 0.44600083E-03 0.80905344E+02</pdfrwt>
<totfact> 0.30693196E+05</totfact>
</mgrwt>
</event>
<event>
 8    1  0.1627221E-013  0.8186540E+02  0.7818608E-02  0.1323840E+00
          2   -1    0    0  501    0  0.00000000000E+00  0.00000000000E+00  0.83813698115E+03  0.83813698115E+03  0.25500000000E-02 0. -1.
         -1   -1    0    0    0  501 -0.00000000000E+00 -0.00000000000E+00 -0.19990564175E+01  0.19990627709E+01  0.50400000000E-02 0.  1.
         24    2    1    2    0    0  0.00000000000E+00  0.17763568394E-14  0.83613792473E+03  0.84013604393E+03  0.81865396387E+02 0.  0.
         66    2    3    3    0    0 -0.23586734357E+02  0.15092164426E+02  0.72436702264E+03  0.72491081586E+03  0.19999982718E+01 0.  0.
        -13    1    3    3    0    0  0.23586734357E+02 -0.15092164426E+02  0.11177090209E+03  0.11522522807E+03  0.10566000000E+00 0.  1.
         13    1    4    4    0    0 -0.12470242996E+02  0.71960457516E+01  0.36753317892E+03  0.36781508779E+03  0.10566000000E+00 0. -1.
        -13    1    4    4    0    0 -0.10756216618E+02  0.76620380289E+01  0.33998200543E+03  0.34023841377E+03  0.10566000000E+00 0.  1.
        -14    1    4    4    0    0 -0.36027474373E+00  0.23408064569E+00  0.16851838292E+02  0.16857314301E+02  0.00000000000E+00 0.  1.
<mgrwt>
<rscale>  0 0.81865396E+02</rscale>
<asrwt>0</asrwt>
<pdfrwt beam="1">  1        2 0.12894382E+00 0.81865396E+02</pdfrwt>
<pdfrwt beam="2">  1       -1 0.30754841E-03 0.81865396E+02</pdfrwt>
<totfact> 0.32610120E+05</totfact>
</mgrwt>
</event>
<event>
 8    1  0.1627221E-013  0.7960745E+02  0.7818608E-02  0.1330169E+00
         -1   -1    0    0    0  501 -0.00000000000E+00  0.00000000000E+00  0.30948352860E+01  0.30948393899E+01  0.50400000000E-02 0.  1.
          2   -1    0    0  501    0  0.00000000000E+00 -0.00000000000E+00 -0.51192880468E+03  0.51192880469E+03  0.25500000000E-02 0. -1.
         24    2    1    2    0    0  0.17763568394E-14  0.00000000000E+00 -0.50883396940E+03  0.51502364408E+03  0.79607446563E+02 0.  0.
         66    2    3    3    0    0  0.11430622166E+02 -0.10057625060E+02 -0.49232870300E+03  0.49256813411E+03  0.20000003874E+01 0.  0.
        -13    1    3    3    0    0 -0.11430622166E+02  0.10057625060E+02 -0.16505266397E+02  0.22455509966E+02  0.10566000000E+00 0.  1.
         13    1    4    4    0    0  0.91654853431E+01 -0.74411850604E+01 -0.36162143104E+03  0.36181410684E+03  0.10566000000E+00 0. -1.
        -13    1    4    4    0    0  0.22405546169E+01 -0.24668531232E+01 -0.12255093854E+03  0.12259628522E+03  0.10566000000E+00 0.  1.
         14    1    4    4    0    0  0.24582206078E-01 -0.14958687622E+00 -0.81563334218E+01  0.81577420532E+01  0.00000000000E+00 0. -1.
<mgrwt>
<rscale>  0 0.79607447E+02</rscale>
<asrwt>0</asrwt>
<pdfrwt beam="1">  1        2 0.78758211E-01 0.79607447E+02</pdfrwt>
<pdfrwt beam="2">  1       -1 0.47612923E-03 0.79607447E+02</pdfrwt>
<totfact> 0.31075047E+05</totfact>
</mgrwt>
</event>
<event>
 8    1  0.1627221E-013  0.7940393E+02  0.7818608E-02  0.1330752E+00
          2   -1    0    0  501    0  0.00000000000E+00  0.00000000000E+00  0.64858396182E+01  0.64858401195E+01  0.25500000000E-02 0. -1.
         -1   -1    0    0    0  501 -0.00000000000E+00 -0.00000000000E+00 -0.24302879217E+03  0.24302879222E+03  0.50400000000E-02 0.  1.
         24    2    1    2    0    0  0.00000000000E+00  0.55511151231E-16 -0.23654295255E+03  0.24951463234E+03  0.79403925285E+02 0.  0.
         66    2    3    3    0    0  0.39444539684E+02 -0.28825214001E+00 -0.10490892718E+03  0.11209744783E+03  0.20000017916E+01 0.  0.
        -13    1    3    3    0    0 -0.39444539684E+02  0.28825214001E+00 -0.13163402537E+03  0.13741718451E+03  0.10566000000E+00 0.  1.
         13    1    4    4    0    0  0.66830829077E+01 -0.32419627100E+00 -0.18703805343E+02  0.19864848319E+02  0.10566000000E+00 0. -1.
        -13    1    4    4    0    0  0.67582585375E+01  0.24587882638E+00 -0.19369870709E+02  0.20516763151E+02  0.10566000000E+00 0.  1.
         14    1    4    4    0    0  0.26003198239E+02 -0.20993469539E+00 -0.66835251129E+02  0.71715836359E+02  0.00000000000E+00 0. -1.
<mgrwt>
<rscale>  0 0.79403925E+02</rscale>
<asrwt>0</asrwt>
<pdfrwt beam="1">  1        2 0.99782171E-03 0.79403925E+02</pdfrwt>
<pdfrwt beam="2">  1       -1 0.37389038E-01 0.79403925E+02</pdfrwt>
<totfact> 0.95329874E+04</totfact>
</mgrwt>
</event>
<event>
 8    1  0.1627221E-013  0.7858529E+02  0.7818608E-02  0.1333115E+00
         -1   -1    0    0    0  501 -0.00000000000E+00  0.00000000000E+00  0.14583312546E+01  0.14583399638E+01  0.50400000000E-02 0.  1.
          2   -1    0    0  501    0  0.00000000000E+00 -0.00000000000E+00 -0.10586809351E+04  0.10586809351E+04  0.25500000000E-02 0. -1.
         24    2    1    2    0    0  0.00000000000E+00  0.00000000000E+00 -0.10572226039E+04  0.10601392751E+04  0.78585294158E+02 0.  0.
         66    2    3    3    0    0  0.10894151678E+02  0.50923310917E+01 -0.10332253080E+04  0.10332972232E+04  0.19999990554E+01 0.  0.
        -13    1    3    3    0    0 -0.10894151678E+02 -0.50923310917E+01 -0.23997295849E+02  0.26842051874E+02  0.10566000000E+00 0.  1.
         13    1    4    4    0    0  0.60433552582E+01  0.33582311266E+01 -0.63770315055E+03  0.63774063634E+03  0.10566000000E+00 0. -1.
        -13    1    4    4    0    0  0.18730091532E+01  0.43664482349E+00 -0.17303647537E+03  0.17304719528E+03  0.10566000000E+00 0.  1.
         14    1    4    4    0    0  0.29777872665E+01  0.12974551416E+01 -0.22248568211E+03  0.22250939160E+03  0.00000000000E+00 0. -1.
<mgrwt>
<rscale>  0 0.78585294E+02</rscale>
<asrwt>0</asrwt>
<pdfrwt beam="1">  1        2 0.16287338E+00 0.78585294E+02</pdfrwt>
<pdfrwt beam="2">  1       -1 0.22436017E-03 0.78585294E+02</pdfrwt>
<totfact> 0.36944136E+05</totfact>
</mgrwt>
</event>
<event>
 8    1  0.1627221E-013  0.7827297E+02  0.7818608E-02  0.1334025E+00
         -1   -1    0    0    0  501 -0.00000000000E+00  0.00000000000E+00  0.36104753104E+02  0.36104753456E+02  0.50400000000E-02 0.  1.
          2   -1    0    0  501    0  0.00000000000E+00 -0.00000000000E+00 -0.42422794744E+02  0.42422794820E+02  0.25500000000E-02 0. -1.
         24    2    1    2    0    0 -0.35527136788E-14  0.00000000000E+00 -0.63180416394E+01  0.78527548276E+02  0.78272972271E+02 0.  0.
         66    2    3    3    0    0 -0.21689417646E+02  0.22396907751E+02 -0.26851589087E+02  0.41195389894E+02  0.19999993412E+01 0.  0.
        -13    1    3    3    0    0  0.21689417646E+02 -0.22396907751E+02  0.20533547448E+02  0.37332158382E+02  0.10566000000E+00 0.  1.
         13    1    4    4    0    0 -0.20523037183E+02  0.21508313858E+02 -0.25674842516E+02  0.39281182804E+02  0.10566000000E+00 0. -1.
        -13    1    4    4    0    0 -0.12659137968E+00  0.15178592146E+00 -0.98214636905E-01  0.24469265184E+00  0.10566000000E+00 0. -1.
         14    1    4    4    0    0 -0.10397890841E+01  0.73680797126E+00 -0.10785319347E+01  0.16695144384E+01  0.00000000000E+00 0. -1.
<mgrwt>
<rscale>  0 0.78272972E+02</rscale>
<asrwt>0</asrwt>
<pdfrwt beam="1">  1        2 0.65265838E-02 0.78272972E+02</pdfrwt>
<pdfrwt beam="2">  1       -1 0.55545774E-02 0.78272972E+02</pdfrwt>
<totfact> 0.15323149E+05</totfact>
</mgrwt>
</event>
<event>
 8    1  0.1627221E-013  0.7803548E+02  0.7818608E-02  0.1334721E+00
         -1   -1    0    0    0  501 -0.00000000000E+00  0.00000000000E+00  0.74831272410E+01  0.74831289382E+01  0.50400000000E-02 0.  1.
          2   -1    0    0  501    0  0.00000000000E+00 -0.00000000000E+00 -0.20344217291E+03  0.20344217292E+03  0.25500000000E-02 0. -1.
         24    2    1    2    0    0  0.00000000000E+00  0.00000000000E+00 -0.19595904567E+03  0.21092530186E+03  0.78035475182E+02 0.  0.
         66    2    3    3    0    0  0.20139906595E+01  0.19868308710E+02 -0.18856491992E+03  0.18962999466E+03  0.19999998014E+01 0.  0.
        -13    1    3    3    0    0 -0.20139906595E+01 -0.19868308710E+02 -0.73941257454E+01  0.21295307205E+02  0.10566000000E+00 0.  1.
         13    1    4    4    0    0  0.82900007213E+00  0.10144492833E+02 -0.97467806881E+02  0.97997869967E+02  0.10566000000E+00 0. -1.
        -13    1    4    4    0    0 -0.51281485263E-01  0.11630220471E+01 -0.77959779427E+01  0.78831266761E+01  0.10566000000E+00 0.  1.
        -14    1    4    4    0    0  0.12362720726E+01  0.85607938304E+01 -0.83301135096E+02  0.83748998012E+02  0.00000000000E+00 0.  1.
<mgrwt>
<rscale>  0 0.78035475E+02</rscale>
<asrwt>0</asrwt>
<pdfrwt beam="1">  1        2 0.31298792E-01 0.78035475E+02</pdfrwt>
<pdfrwt beam="2">  1       -1 0.11512506E-02 0.78035475E+02</pdfrwt>
<totfact> 0.23692012E+05</totfact>
</mgrwt>
</event>
<event>
 8    1  0.1627221E-013  0.7866758E+02  0.7818608E-02  0.1332876E+00
          2   -1    0    0  501    0  0.00000000000E+00  0.00000000000E+00  0.22931978211E+02  0.22931978353E+02  0.25500000000E-02 0. -1.
         -1   -1    0    0    0  501 -0.00000000000E+00 -0.00000000000E+00 -0.67466800327E+02  0.67466800516E+02  0.50400000000E-02 0.  1.
         24    2    1    2    0    0  0.00000000000E+00  0.00000000000E+00 -0.44534822117E+02  0.90398778868E+02  0.78667584429E+02 0.  0.
         66    2    3    3    0    0  0.19553426139E+02  0.22586440077E+02  0.70751070091E+01  0.30765904566E+02  0.19999988578E+01 0.  0.
        -13    1    3    3    0    0 -0.19553426139E+02 -0.22586440077E+02 -0.51609929126E+02  0.59632874302E+02  0.10566000000E+00 0.  1.
         13    1    4    4    0    0  0.12268032393E+02  0.13089051654E+02  0.41493975438E+01  0.18413488426E+02  0.10566000000E+00 0. -1.
        -13    1    4    4    0    0  0.20583080899E+01  0.27204914607E+01  0.44724440409E+00  0.34422227664E+01  0.10566000000E+00 0.  1.
        -14    1    4    4    0    0  0.52270856566E+01  0.67768969627E+01  0.24784650613E+01  0.89101933741E+01  0.00000000000E+00 0.  1.
<mgrwt>
<rscale>  0 0.78667584E+02</rscale>
<asrwt>0</asrwt>
<pdfrwt beam="1">  1        2 0.35279967E-02 0.78667584E+02</pdfrwt>
<pdfrwt beam="2">  1       -1 0.10379508E-01 0.78667584E+02</pdfrwt>
<totfact> 0.13384369E+05</totfact>
</mgrwt>
</event>
<event>
 8    1  0.1627221E-013  0.8138829E+02  0.7818608E-02  0.1325157E+00
         -1   -1    0    0    0  501 -0.00000000000E+00  0.00000000000E+00  0.92207534338E+03  0.92207534340E+03  0.50400000000E-02 0.  1.
          2   -1    0    0  501    0  0.00000000000E+00 -0.00000000000E+00 -0.17959624175E+01  0.17959642278E+01  0.25500000000E-02 0. -1.
         24    2    1    2    0    0  0.00000000000E+00  0.00000000000E+00  0.92027938097E+03  0.92387130763E+03  0.81388291674E+02 0.  0.
         66    2    3    3    0    0  0.30810087926E+02 -0.13998489356E+02  0.71646309121E+03  0.71726465150E+03  0.19999998715E+01 0.  0.
        -13    1    3    3    0    0 -0.30810087926E+02  0.13998489356E+02  0.20381628975E+03  0.20660665613E+03  0.10566000000E+00 0.  1.
         13    1    4    4    0    0  0.14452712345E+02 -0.67016035535E+01  0.34486521826E+03  0.34523299714E+03  0.10566000000E+00 0. -1.
        -13    1    4    4    0    0  0.65569936380E+01 -0.22264919954E+01  0.14197414519E+03  0.14214295796E+03  0.10566000000E+00 0.  1.
        -14    1    4    4    0    0  0.98003819425E+01 -0.50703938069E+01  0.22962372777E+03  0.22988869640E+03  0.00000000000E+00 0.  1.
<mgrwt>
<rscale>  0 0.81388292E+02</rscale>
<asrwt>0</asrwt>
<pdfrwt beam="1">  1        2 0.27630164E-03 0.81388292E+02</pdfrwt>
<pdfrwt beam="2">  1       -1 0.14185796E+00 0.81388292E+02</pdfrwt>
<totfact> 0.38139084E+04</totfact>
</mgrwt>
</event>
<event>
 8    1  0.1627221E-013  0.7907212E+02  0.7818608E-02  0.1331705E+00
         -1   -1    0    0    0  501 -0.00000000000E+00  0.00000000000E+00  0.25359785755E+01  0.25359835838E+01  0.50400000000E-02 0.  1.
          2   -1    0    0  501    0  0.00000000000E+00 -0.00000000000E+00 -0.61636892748E+03  0.61636892749E+03  0.25500000000E-02 0. -1.
         24    2    1    2    0    0  0.00000000000E+00 -0.44408920985E-15 -0.61383294891E+03  0.61890491107E+03  0.79072117619E+02 0.  0.
         66    2    3    3    0    0 -0.28813681593E+02 -0.37645973628E+01 -0.51665260260E+03  0.51747300626E+03  0.19999999752E+01 0.  0.
        -13    1    3    3    0    0  0.28813681593E+02  0.37645973628E+01 -0.97180346313E+02  0.10143190481E+03  0.10566000000E+00 0.  1.
         13    1    4    4    0    0 -0.14926578711E+02 -0.24056643914E+01 -0.26882131378E+03  0.26924616966E+03  0.10566000000E+00 0. -1.
        -13    1    4    4    0    0 -0.12113369928E+02 -0.10041677464E+01 -0.20857736590E+03  0.20893125859E+03  0.10566000000E+00 0.  1.
        -14    1    4    4    0    0 -0.17737329539E+01 -0.35476522501E+00 -0.39253922917E+02  0.39295578012E+02  0.00000000000E+00 0.  1.
<mgrwt>
<rscale>  0 0.79072118E+02</rscale>
<asrwt>0</asrwt>
<pdfrwt beam="1">  1        2 0.94825870E-01 0.79072118E+02</pdfrwt>
<pdfrwt beam="2">  1       -1 0.39015143E-03 0.79072118E+02</pdfrwt>
<totfact> 0.33399991E+05</totfact>
</mgrwt>
</event>
<event>
 8    1  0.1627221E-013  0.7986039E+02  0.7818608E-02  0.1329448E+00
          2   -1    0    0  501    0  0.00000000000E+00  0.00000000000E+00  0.32144302632E+03  0.32144302633E+03  0.25500000000E-02 0. -1.
         -1   -1    0    0    0  501 -0.00000000000E+00 -0.00000000000E+00 -0.49601953885E+01  0.49601979490E+01  0.50400000000E-02 0.  1.
         24    2    1    2    0    0  0.35527136788E-14  0.00000000000E+00  0.31648283094E+03  0.32640322428E+03  0.79860394098E+02 0.  0.
         66    2    3    3    0    0 -0.29317847712E+02 -0.19308763123E+02  0.23589454435E+03  0.23850073498E+03  0.20000003794E+01 0.  0.
        -13    1    3    3    0    0  0.29317847712E+02  0.19308763123E+02  0.80588286585E+02  0.87902489308E+02  0.10566000000E+00 0.  1.
         13    1    4    4    0    0 -0.32875508984E+01 -0.24109265123E+01  0.28386801925E+02  0.28678253872E+02  0.10566000000E+00 0. -1.
        -13    1    4    4    0    0 -0.20987575089E+02 -0.13096213706E+02  0.16168757714E+03  0.16356916851E+03  0.10566000000E+00 0.  1.
        -14    1    4    4    0    0 -0.50427217246E+01 -0.38016229043E+01  0.45820165282E+02  0.46253312591E+02  0.00000000000E+00 0.  1.
<mgrwt>
<rscale>  0 0.79860394E+02</rscale>
<asrwt>0</asrwt>
<pdfrwt beam="1">  1        2 0.49452780E-01 0.79860394E+02</pdfrwt>
<pdfrwt beam="2">  1       -1 0.76310709E-03 0.79860394E+02</pdfrwt>
<totfact> 0.26258471E+05</totfact>
</mgrwt>
</event>
<event>
 8    1  0.1627221E-013  0.7879498E+02  0.7818608E-02  0.1332506E+00
         -1   -1    0    0    0  501 -0.00000000000E+00  0.00000000000E+00  0.13600574802E+02  0.13600575736E+02  0.50400000000E-02 0.  1.
          2   -1    0    0  501    0  0.00000000000E+00 -0.00000000000E+00 -0.11412475337E+03  0.11412475339E+03  0.25500000000E-02 0. -1.
         24    2    1    2    0    0 -0.35527136788E-14  0.88817841970E-15 -0.10052417856E+03  0.12772532913E+03  0.78794982236E+02 0.  0.
         66    2    3    3    0    0 -0.29413132561E+02 -0.72035885654E+01 -0.91081783675E+02  0.96004767336E+02  0.19999946628E+01 0.  0.
        -13    1    3    3    0    0  0.29413132561E+02  0.72035885654E+01 -0.94423948881E+01  0.31720561794E+02  0.10566000000E+00 0.  1.
         13    1    4    4    0    0 -0.87696804045E+01 -0.16948863179E+01 -0.26687198444E+02  0.28142452965E+02  0.10566000000E+00 0. -1.
        -13    1    4    4    0    0 -0.36407540872E+01 -0.15489801398E+01 -0.11899825478E+02  0.12540791053E+02  0.10566000000E+00 0.  1.
        -14    1    4    4    0    0 -0.17002698069E+02 -0.39597221077E+01 -0.52494759752E+02  0.55321523318E+02  0.00000000000E+00 0.  1.
<mgrwt>
<rscale>  0 0.78794982E+02</rscale>
<asrwt>0</asrwt>
<pdfrwt beam="1">  1        2 0.17557654E-01 0.78794982E+02</pdfrwt>
<pdfrwt beam="2">  1       -1 0.20923963E-02 0.78794982E+02</pdfrwt>
<totfact> 0.19171243E+05</totfact>
</mgrwt>
</event>
<event>
 8    1  0.1627221E-013  0.7850189E+02  0.7818608E-02  0.1333357E+00
         -1   -1    0    0    0  501 -0.00000000000E+00  0.00000000000E+00  0.22112891421E+01  0.22112948857E+01  0.50400000000E-02 0.  1.
          2   -1    0    0  501    0  0.00000000000E+00 -0.00000000000E+00 -0.69671341337E+03  0.69671341337E+03  0.25500000000E-02 0. -1.
         24    2    1    2    0    0  0.00000000000E+00  0.88817841970E-15 -0.69450212422E+03  0.69892470826E+03  0.78501893351E+02 0.  0.
         66    2    3    3    0    0 -0.24534742191E+02  0.78359167494E+01 -0.61088018140E+03  0.61142616169E+03  0.20000011536E+01 0.  0.
        -13    1    3    3    0    0  0.24534742191E+02 -0.78359167494E+01 -0.83621942820E+02  0.87498546563E+02  0.10566000000E+00 0.  1.
         13    1    4    4    0    0 -0.13531914287E+02  0.45061813486E+01 -0.32703150651E+03  0.32734238312E+03  0.10566000000E+00 0. -1.
        -13    1    4    4    0    0 -0.10263619135E+02  0.28277569213E+01 -0.25766185363E+03  0.25788171720E+03  0.10566000000E+00 0.  1.
         14    1    4    4    0    0 -0.73920876901E+00  0.50197847951E+00 -0.26186821262E+02  0.26202061365E+02  0.00000000000E+00 0. -1.
<mgrwt>
<rscale>  0 0.78501893E+02</rscale>
<asrwt>0</asrwt>
<pdfrwt beam="1">  1        2 0.10718650E+00 0.78501893E+02</pdfrwt>
<pdfrwt beam="2">  1       -1 0.34019933E-03 0.78501893E+02</pdfrwt>
<totfact> 0.35097051E+05</totfact>
</mgrwt>
</event>
<event>
 8    1  0.1627221E-013  0.7949867E+02  0.7818608E-02  0.1330480E+00
         -1   -1    0    0    0  501 -0.00000000000E+00  0.00000000000E+00  0.85557872965E+01  0.85557887810E+01  0.50400000000E-02 0.  1.
          2   -1    0    0  501    0  0.00000000000E+00 -0.00000000000E+00 -0.18467145111E+03  0.18467145113E+03  0.25500000000E-02 0. -1.
         24    2    1    2    0    0 -0.35527136788E-14 -0.88817841970E-15 -0.17611566381E+03  0.19322723991E+03  0.79498674217E+02 0.  0.
         66    2    3    3    0    0  0.23121323671E+02 -0.63986469438E+01 -0.16506957312E+03  0.16681577318E+03  0.19999802708E+01 0.  0.
        -13    1    3    3    0    0 -0.23121323671E+02  0.63986469438E+01 -0.11046090693E+02  0.26411466727E+02  0.10566000000E+00 0.  1.
         13    1    4    4    0    0  0.11540139508E+01 -0.66522369892E+00 -0.10112381470E+02  0.10200279104E+02  0.10566000000E+00 0.  1.
        -13    1    4    4    0    0  0.41363762983E+01 -0.10569248104E+01 -0.26324799490E+02  0.26668950695E+02  0.10566000000E+00 0.  1.
         14    1    4    4    0    0  0.17830933422E+02 -0.46764984345E+01 -0.12863239216E+03  0.12994654338E+03  0.00000000000E+00 0. -1.
<mgrwt>
<rscale>  0 0.79498674E+02</rscale>
<asrwt>0</asrwt>
<pdfrwt beam="1">  1        2 0.28410989E-01 0.79498674E+02</pdfrwt>
<pdfrwt beam="2">  1       -1 0.13162752E-02 0.79498674E+02</pdfrwt>
<totfact> 0.21820222E+05</totfact>
</mgrwt>
</event>
<event>
 8    1  0.1627221E-013  0.7862375E+02  0.7818608E-02  0.1333003E+00
         -1   -1    0    0    0  501 -0.00000000000E+00  0.00000000000E+00  0.34572427614E+01  0.34572464351E+01  0.50400000000E-02 0.  1.
          2   -1    0    0  501    0  0.00000000000E+00 -0.00000000000E+00 -0.44701022477E+03  0.44701022477E+03  0.25500000000E-02 0. -1.
         24    2    1    2    0    0  0.00000000000E+00  0.35527136788E-14 -0.44355298200E+03  0.45046747121E+03  0.78623754500E+02 0.  0.
         66    2    3    3    0    0  0.21302315774E+02  0.16782661502E+02 -0.38477715102E+03  0.38573683043E+03  0.20000033605E+01 0.  0.
        -13    1    3    3    0    0 -0.21302315774E+02 -0.16782661502E+02 -0.58775830980E+02  0.64730640780E+02  0.10566000000E+00 0.  1.
         13    1    4    4    0    0  0.46360508868E+01  0.34041370175E+01 -0.74000206160E+02  0.74223465241E+02  0.10566000000E+00 0. -1.
        -13    1    4    4    0    0  0.30339014312E+01  0.19299039915E+01 -0.55481946390E+02  0.55598440865E+02  0.10566000000E+00 0.  1.
         14    1    4    4    0    0  0.13632363456E+02  0.11448620493E+02 -0.25529499847E+03  0.25591492432E+03  0.00000000000E+00 0. -1.
<mgrwt>
<rscale>  0 0.78623755E+02</rscale>
<asrwt>0</asrwt>
<pdfrwt beam="1">  1        2 0.68770758E-01 0.78623755E+02</pdfrwt>
<pdfrwt beam="2">  1       -1 0.53188414E-03 0.78623755E+02</pdfrwt>
<totfact> 0.30710946E+05</totfact>
</mgrwt>
</event>
<event>
 8    1  0.1627221E-013  0.8218835E+02  0.7818608E-02  0.1322953E+00
          2   -1    0    0  501    0  0.00000000000E+00  0.00000000000E+00  0.84309291109E+03  0.84309291109E+03  0.25500000000E-02 0. -1.
         -1   -1    0    0    0  501 -0.00000000000E+00 -0.00000000000E+00 -0.20030158435E+01  0.20030221843E+01  0.50400000000E-02 0.  1.
         24    2    1    2    0    0  0.17763568394E-14  0.00000000000E+00  0.84108989524E+03  0.84509593327E+03  0.82188348065E+02 0.  0.
         66    2    3    3    0    0  0.97646901521E+01 -0.33496163669E+02  0.64356491915E+03  0.64451310873E+03  0.20000052823E+01 0.  0.
        -13    1    3    3    0    0 -0.97646901521E+01  0.33496163669E+02  0.19752497610E+03  0.20058282454E+03  0.10566000000E+00 0.  1.
         13    1    4    4    0    0  0.38060318086E+01 -0.11902932942E+02  0.22236763951E+03  0.22271853079E+03  0.10566000000E+00 0. -1.
        -13    1    4    4    0    0  0.26719806407E+01 -0.95637303297E+01  0.19903143710E+03  0.19927902181E+03  0.10566000000E+00 0.  1.
         14    1    4    4    0    0  0.32866777028E+01 -0.12029500397E+02  0.22216584254E+03  0.22251555614E+03  0.00000000000E+00 0. -1.
<mgrwt>
<rscale>  0 0.82188348E+02</rscale>
<asrwt>0</asrwt>
<pdfrwt beam="1">  1        2 0.12970708E+00 0.82188348E+02</pdfrwt>
<pdfrwt beam="2">  1       -1 0.30815563E-03 0.82188348E+02</pdfrwt>
<totfact> 0.32305744E+05</totfact>
</mgrwt>
</event>
<event>
 8    1  0.1627221E-013  0.8053677E+02  0.7818608E-02  0.1327535E+00
         -1   -1    0    0    0  501 -0.00000000000E+00  0.00000000000E+00  0.21084542014E+02  0.21084542617E+02  0.50400000000E-02 0.  1.
          2   -1    0    0  501    0  0.00000000000E+00 -0.00000000000E+00 -0.76906718989E+02  0.76906719031E+02  0.25500000000E-02 0. -1.
         24    2    1    2    0    0  0.00000000000E+00  0.35527136788E-14 -0.55822176974E+02  0.97991261648E+02  0.80536773695E+02 0.  0.
         66    2    3    3    0    0  0.73925692876E+01 -0.28705452844E+02 -0.61046588130E+02  0.67892113161E+02  0.20000008805E+01 0.  0.
        -13    1    3    3    0    0 -0.73925692876E+01  0.28705452844E+02  0.52244111556E+01  0.30099148487E+02  0.10566000000E+00 0.  1.
         13    1    4    4    0    0  0.26033678881E+01 -0.69711230072E+01 -0.15090942626E+02  0.16826223395E+02  0.10566000000E+00 0. -1.
        -13    1    4    4    0    0  0.37330650329E+01 -0.17533900527E+02 -0.36451552624E+02  0.40621426550E+02  0.10566000000E+00 0.  1.
        -14    1    4    4    0    0  0.10561363666E+01 -0.42004293096E+01 -0.95040928794E+01  0.10444463216E+02  0.00000000000E+00 0.  1.
<mgrwt>
<rscale>  0 0.80536774E+02</rscale>
<asrwt>0</asrwt>
<pdfrwt beam="1">  1        2 0.11831803E-01 0.80536774E+02</pdfrwt>
<pdfrwt beam="2">  1       -1 0.32437758E-02 0.80536774E+02</pdfrwt>
<totfact> 0.16232864E+05</totfact>
</mgrwt>
</event>
<event>
 8    1  0.1627221E-013  0.8111967E+02  0.7818608E-02  0.1325904E+00
          2   -1    0    0  501    0  0.00000000000E+00  0.00000000000E+00  0.11571416078E+04  0.11571416078E+04  0.25500000000E-02 0. -1.
         -1   -1    0    0    0  501 -0.00000000000E+00 -0.00000000000E+00 -0.14216885756E+01  0.14216975091E+01  0.50400000000E-02 0.  1.
         24    2    1    2    0    0  0.00000000000E+00  0.00000000000E+00  0.11557199192E+04  0.11585633053E+04  0.81119669150E+02 0.  0.
         66    2    3    3    0    0 -0.15299842310E+02  0.18539994760E+02  0.10443597208E+04  0.10446382355E+04  0.20000003967E+01 0.  0.
        -13    1    3    3    0    0  0.15299842310E+02 -0.18539994760E+02  0.11136019836E+03  0.11392506978E+03  0.10566000000E+00 0.  1.
         13    1    4    4    0    0 -0.54939486707E-01  0.45698578510E-01  0.44333938342E+01  0.44352284757E+01  0.10566000000E+00 0. -1.
        -13    1    4    4    0    0 -0.11868771527E+02  0.13727556451E+02  0.78140292376E+03  0.78161362192E+03  0.10566000000E+00 0. -1.
         14    1    4    4    0    0 -0.33761312965E+01  0.47667397306E+01  0.25852340324E+03  0.25858938512E+03  0.00000000000E+00 0. -1.
<mgrwt>
<rscale>  0 0.81119669E+02</rscale>
<asrwt>0</asrwt>
<pdfrwt beam="1">  1        2 0.17802092E+00 0.81119669E+02</pdfrwt>
<pdfrwt beam="2">  1       -1 0.21872307E-03 0.81119669E+02</pdfrwt>
<totfact> 0.33909821E+05</totfact>
</mgrwt>
</event>
<event>
 8    1  0.1627221E-013  0.7957647E+02  0.7818608E-02  0.1330258E+00
          2   -1    0    0  501    0  0.00000000000E+00  0.00000000000E+00  0.66125419181E+03  0.66125419182E+03  0.25500000000E-02 0. -1.
         -1   -1    0    0    0  501 -0.00000000000E+00 -0.00000000000E+00 -0.23940898766E+01  0.23940951817E+01  0.50400000000E-02 0.  1.
         24    2    1    2    0    0  0.00000000000E+00  0.35527136788E-14  0.65886010193E+03  0.66364828700E+03  0.79576472112E+02 0.  0.
         66    2    3    3    0    0 -0.90095617272E+01 -0.22436731242E+02  0.59290444499E+03  0.59340058982E+03  0.20000005156E+01 0.  0.
        -13    1    3    3    0    0  0.90095617272E+01  0.22436731242E+02  0.65955656946E+02  0.70247697176E+02  0.10566000000E+00 0.  1.
         13    1    4    4    0    0 -0.17716561008E+01 -0.36160061959E+01  0.10527803454E+03  0.10535506626E+03  0.10566000000E+00 0. -1.
        -13    1    4    4    0    0 -0.70861602202E+01 -0.17511203123E+02  0.45131383117E+03  0.45170902280E+03  0.10566000000E+00 0.  1.
        -14    1    4    4    0    0 -0.15174540621E+00 -0.13095219230E+01  0.36312579271E+02  0.36336500762E+02  0.00000000000E+00 0.  1.
<mgrwt>
<rscale>  0 0.79576472E+02</rscale>
<asrwt>0</asrwt>
<pdfrwt beam="1">  1        2 0.10173140E+00 0.79576472E+02</pdfrwt>
<pdfrwt beam="2">  1       -1 0.36832199E-03 0.79576472E+02</pdfrwt>
<totfact> 0.33458095E+05</totfact>
</mgrwt>
</event>
<event>
 8    1  0.1627221E-013  0.7774498E+02  0.7818608E-02  0.1335575E+00
          2   -1    0    0  501    0  0.00000000000E+00  0.00000000000E+00  0.88879318367E+02  0.88879318404E+02  0.25500000000E-02 0. -1.
         -1   -1    0    0    0  501 -0.00000000000E+00 -0.00000000000E+00 -0.17001373629E+02  0.17001374376E+02  0.50400000000E-02 0.  1.
         24    2    1    2    0    0 -0.88817841970E-15  0.00000000000E+00  0.71877944739E+02  0.10588069278E+03  0.77744981598E+02 0.  0.
         66    2    3    3    0    0  0.78298281799E+01  0.37998000797E+02  0.38656131647E+02  0.54803747853E+02  0.19999977491E+01 0.  0.
        -13    1    3    3    0    0 -0.78298281799E+01 -0.37998000797E+02  0.33221813091E+02  0.51076944926E+02  0.10566000000E+00 0.  1.
         13    1    4    4    0    0  0.34547621298E+01  0.17434131376E+02  0.17394437909E+02  0.24868895280E+02  0.10566000000E+00 0. -1.
        -13    1    4    4    0    0  0.21728723264E+01  0.69893564573E+01  0.73448388527E+01  0.10369681752E+02  0.10566000000E+00 0.  1.
         14    1    4    4    0    0  0.22021937237E+01  0.13574512963E+02  0.13916854885E+02  0.19565170821E+02  0.00000000000E+00 0. -1.
<mgrwt>
<rscale>  0 0.77744982E+02</rscale>
<asrwt>0</asrwt>
<pdfrwt beam="1">  1        2 0.13673741E-01 0.77744982E+02</pdfrwt>
<pdfrwt beam="2">  1       -1 0.26155961E-02 0.77744982E+02</pdfrwt>
<totfact> 0.18531185E+05</totfact>
</mgrwt>
</event>
<event>
 8    1  0.1627221E-013  0.8003120E+02  0.7818608E-02  0.1328963E+00
         -1   -1    0    0    0  501 -0.00000000000E+00  0.00000000000E+00  0.20401892010E+02  0.20401892632E+02  0.50400000000E-02 0.  1.
          2   -1    0    0  501    0  0.00000000000E+00 -0.00000000000E+00 -0.78485286645E+02  0.78485286686E+02  0.25500000000E-02 0. -1.
         24    2    1    2    0    0  0.35527136788E-14  0.00000000000E+00 -0.58083394635E+02  0.98887179318E+02  0.80031203297E+02 0.  0.
         66    2    3    3    0    0 -0.22380048095E+02  0.11661545802E+02 -0.67391221479E+02  0.71989130916E+02  0.20000086089E+01 0.  0.
        -13    1    3    3    0    0  0.22380048095E+02 -0.11661545802E+02  0.93078268437E+01  0.26898048402E+02  0.10566000000E+00 0.  1.
         13    1    4    4    0    0 -0.12171834977E+02  0.58263424152E+01 -0.34228426303E+02  0.36792610180E+02  0.10566000000E+00 0. -1.
        -13    1    4    4    0    0 -0.31226154941E+01  0.13623243958E+01 -0.99572607891E+01  0.10524488669E+02  0.10566000000E+00 0.  1.
         14    1    4    4    0    0 -0.70855976247E+01  0.44728789916E+01 -0.23205534386E+02  0.24672032067E+02  0.00000000000E+00 0. -1.
<mgrwt>
<rscale>  0 0.80031203E+02</rscale>
<asrwt>0</asrwt>
<pdfrwt beam="1">  1        2 0.12074659E-01 0.80031203E+02</pdfrwt>
<pdfrwt beam="2">  1       -1 0.31387527E-02 0.80031203E+02</pdfrwt>
<totfact> 0.16596701E+05</totfact>
</mgrwt>
</event>
<event>
 8    1  0.1627221E-013  0.7944744E+02  0.7818608E-02  0.1330627E+00
         -1   -1    0    0    0  501 -0.00000000000E+00  0.00000000000E+00  0.13852447504E+02  0.13852448421E+02  0.50400000000E-02 0.  1.
          2   -1    0    0  501    0  0.00000000000E+00 -0.00000000000E+00 -0.11391300651E+03  0.11391300654E+03  0.25500000000E-02 0. -1.
         24    2    1    2    0    0  0.71054273576E-14  0.00000000000E+00 -0.10006055900E+03  0.12776545496E+03  0.79447441824E+02 0.  0.
         66    2    3    3    0    0  0.38670677389E+02  0.64708337943E+01 -0.40060636507E+02  0.56090530169E+02  0.19999993936E+01 0.  0.
        -13    1    3    3    0    0 -0.38670677389E+02 -0.64708337943E+01 -0.59999922497E+02  0.71674924788E+02  0.10566000000E+00 0.  1.
         13    1    4    4    0    0  0.16465160533E+02  0.24443193846E+01 -0.18279741911E+02  0.24723194312E+02  0.10566000000E+00 0. -1.
        -13    1    4    4    0    0  0.64402815436E+01  0.11935872995E+01 -0.60689766269E+01  0.89300346212E+01  0.10566000000E+00 0.  1.
         14    1    4    4    0    0  0.15765235313E+02  0.28329271101E+01 -0.15711917969E+02  0.22437301236E+02  0.00000000000E+00 0. -1.
<mgrwt>
<rscale>  0 0.79447442E+02</rscale>
<asrwt>0</asrwt>
<pdfrwt beam="1">  1        2 0.17525077E-01 0.79447442E+02</pdfrwt>
<pdfrwt beam="2">  1       -1 0.21311459E-02 0.79447442E+02</pdfrwt>
<totfact> 0.18744051E+05</totfact>
</mgrwt>
</event>
<event>
 8    1  0.1627221E-013  0.8081622E+02  0.7818608E-02  0.1326751E+00
          2   -1    0    0  501    0  0.00000000000E+00  0.00000000000E+00  0.11111966418E+04  0.11111966418E+04  0.25500000000E-02 0. -1.
         -1   -1    0    0    0  501 -0.00000000000E+00 -0.00000000000E+00 -0.14694164527E+01  0.14694250961E+01  0.50400000000E-02 0.  1.
         24    2    1    2    0    0  0.00000000000E+00  0.00000000000E+00  0.11097272253E+04  0.11126660669E+04  0.80816222081E+02 0.  0.
         66    2    3    3    0    0 -0.23200598887E+02 -0.15441363286E+02  0.95756955721E+03  0.95797711892E+03  0.19999989508E+01 0.  0.
        -13    1    3    3    0    0  0.23200598887E+02  0.15441363286E+02  0.15215766813E+03  0.15468894797E+03  0.10566000000E+00 0.  1.
         13    1    4    4    0    0 -0.91591106933E+01 -0.59455700131E+01  0.37168711716E+03  0.37184750011E+03  0.10566000000E+00 0. -1.
        -13    1    4    4    0    0 -0.30908592239E+01 -0.22358535544E+01  0.11159891734E+03  0.11166414809E+03  0.10566000000E+00 0.  1.
        -14    1    4    4    0    0 -0.10950628970E+02 -0.72599397183E+01  0.47428352270E+03  0.47446547072E+03  0.00000000000E+00 0.  1.
<mgrwt>
<rscale>  0 0.80816222E+02</rscale>
<asrwt>0</asrwt>
<pdfrwt beam="1">  1        2 0.17095444E+00 0.80816222E+02</pdfrwt>
<pdfrwt beam="2">  1       -1 0.22606326E-03 0.80816222E+02</pdfrwt>
<totfact> 0.34322045E+05</totfact>
</mgrwt>
</event>
<event>
 8    1  0.1627221E-013  0.7914782E+02  0.7818608E-02  0.1331487E+00
         -1   -1    0    0    0  501 -0.00000000000E+00  0.00000000000E+00  0.74455328860E+02  0.74455329031E+02  0.50400000000E-02 0.  1.
          2   -1    0    0  501    0  0.00000000000E+00 -0.00000000000E+00 -0.21034013289E+02  0.21034013443E+02  0.25500000000E-02 0. -1.
         24    2    1    2    0    0  0.00000000000E+00  0.71054273576E-14  0.53421315571E+02  0.95489342474E+02  0.79147820998E+02 0.  0.
         66    2    3    3    0    0 -0.63533191616E+01  0.39017014770E+02  0.25301510133E+02  0.46977212776E+02  0.19999998063E+01 0.  0.
        -13    1    3    3    0    0  0.63533191616E+01 -0.39017014770E+02  0.28119805438E+02  0.48512129698E+02  0.10566000000E+00 0.  1.
         13    1    4    4    0    0 -0.12090003159E+00  0.33720604712E+01  0.24194457567E+01  0.41533468967E+01  0.10566000000E+00 0. -1.
        -13    1    4    4    0    0 -0.25368320903E+01  0.12518020558E+02  0.77453956468E+01  0.14937826934E+02  0.10566000000E+00 0.  1.
        -14    1    4    4    0    0 -0.36955870398E+01  0.23126933741E+02  0.15136668730E+02  0.27886038946E+02  0.00000000000E+00 0.  1.
<mgrwt>
<rscale>  0 0.79147821E+02</rscale>
<asrwt>0</asrwt>
<pdfrwt beam="1">  1        2 0.32360021E-02 0.79147821E+02</pdfrwt>
<pdfrwt beam="2">  1       -1 0.11454666E-01 0.79147821E+02</pdfrwt>
<totfact> 0.12932471E+05</totfact>
</mgrwt>
</event>
<event>
 8    1  0.1627221E-013  0.7776580E+02  0.7818608E-02  0.1335514E+00
          2   -1    0    0  501    0  0.00000000000E+00  0.00000000000E+00  0.60411326807E+03  0.60411326808E+03  0.25500000000E-02 0. -1.
         -1   -1    0    0    0  501 -0.00000000000E+00 -0.00000000000E+00 -0.25026402959E+01  0.25026453709E+01  0.50400000000E-02 0.  1.
         24    2    1    2    0    0 -0.44408920985E-15  0.71054273576E-14  0.60161062778E+03  0.60661591345E+03  0.77765795794E+02 0.  0.
         66    2    3    3    0    0  0.39380953364E+01 -0.34090962210E+02  0.44317341492E+03  0.44450464338E+03  0.20000003399E+01 0.  0.
        -13    1    3    3    0    0 -0.39380953364E+01  0.34090962210E+02  0.15843721286E+03  0.16211127007E+03  0.10566000000E+00 0.  1.
         13    1    4    4    0    0  0.28518392938E+01 -0.23262893731E+02  0.29893092443E+03  0.29984830158E+03  0.10566000000E+00 0. -1.
        -13    1    4    4    0    0  0.71434524394E-01 -0.79134648755E+00  0.14580892876E+02  0.14602908383E+02  0.10566000000E+00 0.  1.
        -14    1    4    4    0    0  0.10148215182E+01 -0.10036721992E+02  0.12966159761E+03  0.13005343342E+03  0.00000000000E+00 0.  1.
<mgrwt>
<rscale>  0 0.77765796E+02</rscale>
<asrwt>0</asrwt>
<pdfrwt beam="1">  1        2 0.92940468E-01 0.77765796E+02</pdfrwt>
<pdfrwt beam="2">  1       -1 0.38502212E-03 0.77765796E+02</pdfrwt>
<totfact> 0.34685664E+05</totfact>
</mgrwt>
</event>
<event>
 8    1  0.1627221E-013  0.7931926E+02  0.7818608E-02  0.1330994E+00
         -1   -1    0    0    0  501 -0.00000000000E+00  0.00000000000E+00  0.26105549425E+01  0.26105598076E+01  0.50400000000E-02 0.  1.
          2   -1    0    0  501    0  0.00000000000E+00 -0.00000000000E+00 -0.60250968112E+03  0.60250968112E+03  0.25500000000E-02 0. -1.
         24    2    1    2    0    0  0.22204460493E-15  0.00000000000E+00 -0.59989912617E+03  0.60512024093E+03  0.79319256163E+02 0.  0.
         66    2    3    3    0    0 -0.10700110097E+01  0.10442997453E+02 -0.59170822464E+03  0.59180471798E+03  0.19999999383E+01 0.  0.
        -13    1    3    3    0    0  0.10700110097E+01 -0.10442997453E+02 -0.81909015314E+01  0.13315522945E+02  0.10566000000E+00 0.  1.
         13    1    4    4    0    0 -0.83598929576E+00  0.85314828843E+01 -0.45757761139E+03  0.45765791448E+03  0.10566000000E+00 0. -1.
        -13    1    4    4    0    0 -0.43337940636E+00  0.16099553239E+01 -0.11972559762E+03  0.11973725261E+03  0.10566000000E+00 0.  1.
         14    1    4    4    0    0  0.19935769243E+00  0.30155924474E+00 -0.14405015636E+02  0.14409550893E+02  0.00000000000E+00 0. -1.
<mgrwt>
<rscale>  0 0.79319256E+02</rscale>
<asrwt>0</asrwt>
<pdfrwt beam="1">  1        2 0.92693687E-01 0.79319256E+02</pdfrwt>
<pdfrwt beam="2">  1       -1 0.40162469E-03 0.79319256E+02</pdfrwt>
<totfact> 0.32924570E+05</totfact>
</mgrwt>
</event>
<event>
 8    1  0.1627221E-013  0.8016252E+02  0.7818608E-02  0.1328591E+00
          2   -1    0    0  501    0  0.00000000000E+00  0.00000000000E+00  0.84074159215E+03  0.84074159216E+03  0.25500000000E-02 0. -1.
         -1   -1    0    0    0  501 -0.00000000000E+00 -0.00000000000E+00 -0.19108185586E+01  0.19108252053E+01  0.50400000000E-02 0.  1.
         24    2    1    2    0    0 -0.35527136788E-14  0.00000000000E+00  0.83883077360E+03  0.84265241736E+03  0.80162520902E+02 0.  0.
         66    2    3    3    0    0  0.30551426980E+02  0.10409730577E+02  0.66904042795E+03  0.66982150340E+03  0.20000027556E+01 0.  0.
        -13    1    3    3    0    0 -0.30551426980E+02 -0.10409730577E+02  0.16979034565E+03  0.17283091396E+03  0.10566000000E+00 0.  1.
         13    1    4    4    0    0  0.12365363490E+02  0.44239846968E+01  0.25753440817E+03  0.25786906835E+03  0.10566000000E+00 0.  1.
        -13    1    4    4    0    0  0.32577036014E+01  0.91534980558E+00  0.65585618976E+02  0.65672940230E+02  0.10566000000E+00 0. -1.
         14    1    4    4    0    0  0.14928359889E+02  0.50703960744E+01  0.34592040080E+03  0.34627949482E+03  0.00000000000E+00 0. -1.
<mgrwt>
<rscale>  0 0.80162521E+02</rscale>
<asrwt>0</asrwt>
<pdfrwt beam="1">  1        2 0.12934462E+00 0.80162521E+02</pdfrwt>
<pdfrwt beam="2">  1       -1 0.29397315E-03 0.80162521E+02</pdfrwt>
<totfact> 0.34458173E+05</totfact>
</mgrwt>
</event>
<event>
 8    1  0.1627221E-013  0.7945870E+02  0.7818608E-02  0.1330595E+00
          2   -1    0    0  501    0  0.00000000000E+00  0.00000000000E+00  0.14199332520E+03  0.14199332522E+03  0.25500000000E-02 0. -1.
         -1   -1    0    0    0  501 -0.00000000000E+00 -0.00000000000E+00 -0.11116164130E+02  0.11116165272E+02  0.50400000000E-02 0.  1.
         24    2    1    2    0    0 -0.17763568394E-14  0.00000000000E+00  0.13087716107E+03  0.15310949049E+03  0.79458698642E+02 0.  0.
         66    2    3    3    0    0 -0.94741746907E+01  0.13901011777E+02  0.13477942858E+03  0.13583995170E+03  0.19999982855E+01 0.  0.
        -13    1    3    3    0    0  0.94741746907E+01 -0.13901011777E+02 -0.39022675143E+01  0.17269538798E+02  0.10566000000E+00 0.  1.
         13    1    4    4    0    0 -0.60329939899E+01  0.72481625192E+01  0.76345757830E+02  0.76926060467E+02  0.10566000000E+00 0. -1.
        -13    1    4    4    0    0 -0.20583588961E+01  0.41036945077E+01  0.37577414452E+02  0.37856972817E+02  0.10566000000E+00 0.  1.
        -14    1    4    4    0    0 -0.13828218047E+01  0.25491547502E+01  0.20856256302E+02  0.21056918412E+02  0.00000000000E+00 0.  1.
<mgrwt>
<rscale>  0 0.79458699E+02</rscale>
<asrwt>0</asrwt>
<pdfrwt beam="1">  1        2 0.21845126E-01 0.79458699E+02</pdfrwt>
<pdfrwt beam="2">  1       -1 0.17101792E-02 0.79458699E+02</pdfrwt>
<totfact> 0.20039996E+05</totfact>
</mgrwt>
</event>
<event>
 8    1  0.1627221E-013  0.8211661E+02  0.7818608E-02  0.1323150E+00
          2   -1    0    0  501    0  0.00000000000E+00  0.00000000000E+00  0.99313978278E+02  0.99313978311E+02  0.25500000000E-02 0. -1.
         -1   -1    0    0    0  501 -0.00000000000E+00 -0.00000000000E+00 -0.16974289132E+02  0.16974289880E+02  0.50400000000E-02 0.  1.
         24    2    1    2    0    0  0.00000000000E+00 -0.17763568394E-14  0.82339689146E+02  0.11628826819E+03  0.82116605569E+02 0.  0.
         66    2    3    3    0    0  0.22030880414E+02 -0.10693317739E+02  0.87820833596E+02  0.91193231937E+02  0.20000003946E+01 0.  0.
        -13    1    3    3    0    0 -0.22030880414E+02  0.10693317739E+02 -0.54811444492E+01  0.25095036254E+02  0.10566000000E+00 0.  1.
         13    1    4    4    0    0  0.56802222353E+01 -0.28595016744E+01  0.20824519587E+02  0.21774146471E+02  0.10566000000E+00 0. -1.
        -13    1    4    4    0    0  0.38364151128E+01 -0.19600880275E+01  0.18117471063E+02  0.18622941436E+02  0.10566000000E+00 0.  1.
        -14    1    4    4    0    0  0.12514243066E+02 -0.58737280367E+01  0.48878842946E+02  0.50796144030E+02  0.00000000000E+00 0.  1.
<mgrwt>
<rscale>  0 0.82116606E+02</rscale>
<asrwt>0</asrwt>
<pdfrwt beam="1">  1        2 0.15279074E-01 0.82116606E+02</pdfrwt>
<pdfrwt beam="2">  1       -1 0.26114292E-02 0.82116606E+02</pdfrwt>
<totfact> 0.16494450E+05</totfact>
</mgrwt>
</event>
<event>
 8    1  0.1627221E-013  0.8001865E+02  0.7818608E-02  0.1328999E+00
         -1   -1    0    0    0  501 -0.00000000000E+00  0.00000000000E+00  0.67641282899E+01  0.67641301676E+01  0.50400000000E-02 0.  1.
          2   -1    0    0  501    0  0.00000000000E+00 -0.00000000000E+00 -0.23665217799E+03  0.23665217800E+03  0.25500000000E-02 0. -1.
         24    2    1    2    0    0 -0.17763568394E-14  0.00000000000E+00 -0.22988804970E+03  0.24341630817E+03  0.80018645882E+02 0.  0.
         66    2    3    3    0    0  0.14104257652E+02  0.86302604423E+01 -0.22575968126E+03  0.22637324303E+03  0.20000000072E+01 0.  0.
        -13    1    3    3    0    0 -0.14104257652E+02 -0.86302604423E+01 -0.41283684391E+01  0.17043065136E+02  0.10566000000E+00 0.  1.
         13    1    4    4    0    0  0.36020349008E+01  0.13933211797E+01 -0.54047663995E+02  0.54185580616E+02  0.10566000000E+00 0. -1.
        -13    1    4    4    0    0  0.29336416346E+01  0.22547602830E+01 -0.44888099332E+02  0.45040457622E+02  0.10566000000E+00 0.  1.
        -14    1    4    4    0    0  0.75685811169E+01  0.49821789796E+01 -0.12682391793E+03  0.12714720479E+03  0.00000000000E+00 0.  1.
<mgrwt>
<rscale>  0 0.80018646E+02</rscale>
<asrwt>0</asrwt>
<pdfrwt beam="1">  1        2 0.36408021E-01 0.80018646E+02</pdfrwt>
<pdfrwt beam="2">  1       -1 0.10406355E-02 0.80018646E+02</pdfrwt>
<totfact> 0.23390702E+05</totfact>
</mgrwt>
</event>
<event>
 8    1  0.1627221E-013  0.8012644E+02  0.7818608E-02  0.1328693E+00
         -1   -1    0    0    0  501 -0.00000000000E+00  0.00000000000E+00  0.50285167597E+01  0.50285192855E+01  0.50400000000E-02 0.  1.
          2   -1    0    0  501    0  0.00000000000E+00 -0.00000000000E+00 -0.31919180393E+03  0.31919180394E+03  0.25500000000E-02 0. -1.
         24    2    1    2    0    0  0.00000000000E+00  0.00000000000E+00 -0.31416328717E+03  0.32422032323E+03  0.80126443743E+02 0.  0.
         66    2    3    3    0    0 -0.94116564011E+01  0.11149364002E+02 -0.30804760612E+03  0.30839944106E+03  0.20000038223E+01 0.  0.
        -13    1    3    3    0    0  0.94116564011E+01 -0.11149364002E+02 -0.61156810539E+01  0.15820882170E+02  0.10566000000E+00 0.  1.
         13    1    4    4    0    0 -0.54201404666E+01  0.63624526478E+01 -0.19384235522E+03  0.19402249500E+03  0.10566000000E+00 0.  1.
        -13    1    4    4    0    0 -0.26548330766E+01  0.31532076118E+01 -0.70020216664E+02  0.70141519535E+02  0.10566000000E+00 0. -1.
         14    1    4    4    0    0 -0.13366828580E+01  0.16337037425E+01 -0.44185034237E+02  0.44235426521E+02  0.00000000000E+00 0. -1.
<mgrwt>
<rscale>  0 0.80126444E+02</rscale>
<asrwt>0</asrwt>
<pdfrwt beam="1">  1        2 0.49106415E-01 0.80126444E+02</pdfrwt>
<pdfrwt beam="2">  1       -1 0.77361841E-03 0.80126444E+02</pdfrwt>
<totfact> 0.25964792E+05</totfact>
</mgrwt>
</event>
<event>
 8    1  0.1627221E-013  0.7787877E+02  0.7818608E-02  0.1335181E+00
          2   -1    0    0  501    0  0.00000000000E+00  0.00000000000E+00  0.66169600311E+03  0.66169600311E+03  0.25500000000E-02 0. -1.
         -1   -1    0    0    0  501 -0.00000000000E+00 -0.00000000000E+00 -0.22914960341E+01  0.22915015766E+01  0.50400000000E-02 0.  1.
         24    2    1    2    0    0  0.00000000000E+00  0.55511151231E-16  0.65940450707E+03  0.66398750469E+03  0.77878767546E+02 0.  0.
         66    2    3    3    0    0 -0.35555386933E+02  0.37496971779E+00  0.46471063709E+03  0.46607328004E+03  0.20000019232E+01 0.  0.
        -13    1    3    3    0    0  0.35555386933E+02 -0.37496971779E+00  0.19469386999E+03  0.19791422465E+03  0.10566000000E+00 0.  1.
         13    1    4    4    0    0 -0.10556503433E+02 -0.65639094248E+00  0.13240101439E+03  0.13282285342E+03  0.10566000000E+00 0. -1.
        -13    1    4    4    0    0 -0.18844739494E+01  0.71790287840E-01  0.25336146857E+02  0.25406453855E+02  0.10566000000E+00 0. -1.
         14    1    4    4    0    0 -0.23114409550E+02  0.95957037242E+00  0.30697347584E+03  0.30784397277E+03  0.00000000000E+00 0. -1.
<mgrwt>
<rscale>  0 0.77878768E+02</rscale>
<asrwt>0</asrwt>
<pdfrwt beam="1">  1        2 0.10179931E+00 0.77878768E+02</pdfrwt>
<pdfrwt beam="2">  1       -1 0.35253853E-03 0.77878768E+02</pdfrwt>
<totfact> 0.35390645E+05</totfact>
</mgrwt>
</event>
<event>
 8    1  0.1627221E-013  0.7932202E+02  0.7818608E-02  0.1330987E+00
          2   -1    0    0  501    0  0.00000000000E+00  0.00000000000E+00  0.64427476762E+03  0.64427476763E+03  0.25500000000E-02 0. -1.
         -1   -1    0    0    0  501 -0.00000000000E+00 -0.00000000000E+00 -0.24414957674E+01  0.24415009694E+01  0.50400000000E-02 0.  1.
         24    2    1    2    0    0  0.00000000000E+00 -0.35527136788E-14  0.64183327186E+03  0.64671626860E+03  0.79322022211E+02 0.  0.
         66    2    3    3    0    0 -0.66707407865E+01 -0.18373169791E+02  0.60224289429E+03  0.60256333765E+03  0.20000038103E+01 0.  0.
        -13    1    3    3    0    0  0.66707407865E+01  0.18373169791E+02  0.39590377570E+02  0.44152930945E+02  0.10566000000E+00 0.  1.
         13    1    4    4    0    0 -0.61242046333E+00 -0.15706785140E+01  0.52896738187E+02  0.52923701351E+02  0.10566000000E+00 0. -1.
        -13    1    4    4    0    0 -0.56687664056E+01 -0.14107620788E+02  0.47700944797E+03  0.47725169931E+03  0.10566000000E+00 0.  1.
        -14    1    4    4    0    0 -0.38955391749E+00 -0.26948704892E+01  0.72336708124E+02  0.72387936989E+02  0.00000000000E+00 0.  1.
<mgrwt>
<rscale>  0 0.79322022E+02</rscale>
<asrwt>0</asrwt>
<pdfrwt beam="1">  1        2 0.99119065E-01 0.79322022E+02</pdfrwt>
<pdfrwt beam="2">  1       -1 0.37561563E-03 0.79322022E+02</pdfrwt>
<totfact> 0.33516501E+05</totfact>
</mgrwt>
</event>
<event>
 8    1  0.1627221E-013  0.7830127E+02  0.7818608E-02  0.1333942E+00
          2   -1    0    0  501    0  0.00000000000E+00  0.00000000000E+00  0.41483909217E+03  0.41483909218E+03  0.25500000000E-02 0. -1.
         -1   -1    0    0    0  501 -0.00000000000E+00 -0.00000000000E+00 -0.36948578645E+01  0.36948613019E+01  0.50400000000E-02 0.  1.
         24    2    1    2    0    0  0.00000000000E+00  0.35527136788E-14  0.41114423431E+03  0.41853395348E+03  0.78301269548E+02 0.  0.
         66    2    3    3    0    0  0.28384483675E+02 -0.23459837054E+02  0.27636017308E+03  0.27880994984E+03  0.19999995320E+01 0.  0.
        -13    1    3    3    0    0 -0.28384483675E+02  0.23459837054E+02  0.13478406123E+03  0.13972400364E+03  0.10566000000E+00 0.  1.
         13    1    4    4    0    0  0.52798547783E+01 -0.47128205819E+01  0.57150332720E+02  0.57586971081E+02  0.10566000000E+00 0. -1.
        -13    1    4    4    0    0  0.38452695118E+01 -0.25882586251E+01  0.33908779451E+02  0.34224284773E+02  0.10566000000E+00 0.  1.
         14    1    4    4    0    0  0.19259359385E+02 -0.16158757847E+02  0.18530106091E+03  0.18699869398E+03  0.00000000000E+00 0. -1.
<mgrwt>
<rscale>  0 0.78301270E+02</rscale>
<asrwt>0</asrwt>
<pdfrwt beam="1">  1        2 0.63821364E-01 0.78301270E+02</pdfrwt>
<pdfrwt beam="2">  1       -1 0.56844024E-03 0.78301270E+02</pdfrwt>
<totfact> 0.30261318E+05</totfact>
</mgrwt>
</event>
<event>
 8    1  0.1627221E-013  0.7982878E+02  0.7818608E-02  0.1329538E+00
          2   -1    0    0  501    0  0.00000000000E+00  0.00000000000E+00  0.54651570841E+01  0.54651576790E+01  0.25500000000E-02 0. -1.
         -1   -1    0    0    0  501 -0.00000000000E+00 -0.00000000000E+00 -0.29151189633E+03  0.29151189638E+03  0.50400000000E-02 0.  1.
         24    2    1    2    0    0  0.00000000000E+00  0.35527136788E-14 -0.28604673925E+03  0.29697705406E+03  0.79828776770E+02 0.  0.
         66    2    3    3    0    0  0.14003434459E+02  0.31547166505E+02 -0.21750091920E+03  0.22023162747E+03  0.19999988376E+01 0.  0.
        -13    1    3    3    0    0 -0.14003434459E+02 -0.31547166505E+02 -0.68545820050E+02  0.76745426584E+02  0.10566000000E+00 0.  1.
         13    1    4    4    0    0  0.88930592302E+01  0.20075235707E+02 -0.13939253608E+03  0.14111127478E+03  0.10566000000E+00 0. -1.
        -13    1    4    4    0    0  0.39448918907E+01  0.97803004172E+01 -0.66657578467E+02  0.67486742250E+02  0.10566000000E+00 0.  1.
        -14    1    4    4    0    0  0.11654833382E+01  0.16916303814E+01 -0.11450804651E+02  0.11633610442E+02  0.00000000000E+00 0.  1.
<mgrwt>
<rscale>  0 0.79828777E+02</rscale>
<asrwt>0</asrwt>
<pdfrwt beam="1">  1        2 0.84079368E-03 0.79828777E+02</pdfrwt>
<pdfrwt beam="2">  1       -1 0.44847972E-01 0.79828777E+02</pdfrwt>
<totfact> 0.87914359E+04</totfact>
</mgrwt>
</event>
<event>
 8    1  0.1627221E-013  0.7448853E+02  0.7818608E-02  0.1345462E+00
          2   -1    0    0  501    0  0.00000000000E+00  0.00000000000E+00  0.85137916799E+03  0.85137916800E+03  0.25500000000E-02 0. -1.
         -1   -1    0    0    0  501 -0.00000000000E+00 -0.00000000000E+00 -0.16292761417E+01  0.16292839371E+01  0.50400000000E-02 0.  1.
         24    2    1    2    0    0  0.00000000000E+00  0.71054273576E-14  0.84974989185E+03  0.85300845193E+03  0.74488525085E+02 0.  0.
         66    2    3    3    0    0 -0.10015313800E+02  0.28936628184E+02  0.66742726185E+03  0.66813231086E+03  0.20000006717E+01 0.  0.
        -13    1    3    3    0    0  0.10015313800E+02 -0.28936628184E+02  0.18232263001E+03  0.18487614107E+03  0.10566000000E+00 0.  1.
         13    1    4    4    0    0 -0.78370178136E+01  0.21062159158E+02  0.47991150719E+03  0.48043740414E+03  0.10566000000E+00 0. -1.
        -13    1    4    4    0    0 -0.59089815460E+00  0.14669477601E+01  0.32379500220E+02  0.32418271004E+02  0.10566000000E+00 0.  1.
         14    1    4    4    0    0 -0.15873978322E+01  0.64075212665E+01  0.15513625443E+03  0.15527663572E+03  0.00000000000E+00 0. -1.
<mgrwt>
<rscale>  0 0.74488525E+02</rscale>
<asrwt>0</asrwt>
<pdfrwt beam="1">  1        2 0.13098175E+00 0.74488525E+02</pdfrwt>
<pdfrwt beam="2">  1       -1 0.25065781E-03 0.74488525E+02</pdfrwt>
<totfact> 0.41743248E+05</totfact>
</mgrwt>
</event>
<event>
 8    1  0.1627221E-013  0.8255214E+02  0.7818608E-02  0.1321961E+00
          2   -1    0    0  501    0  0.00000000000E+00  0.00000000000E+00  0.28227047192E+02  0.28227047307E+02  0.25500000000E-02 0. -1.
         -1   -1    0    0    0  501 -0.00000000000E+00 -0.00000000000E+00 -0.60357503822E+02  0.60357504032E+02  0.50400000000E-02 0.  1.
         24    2    1    2    0    0  0.71054273576E-14  0.44408920985E-15 -0.32130456630E+02  0.88584551339E+02  0.82552144083E+02 0.  0.
         66    2    3    3    0    0 -0.41015626463E+02 -0.30749359416E+01 -0.19463283288E+02  0.45547296666E+02  0.19999980118E+01 0.  0.
        -13    1    3    3    0    0  0.41015626463E+02  0.30749359416E+01 -0.12667173342E+02  0.43037254673E+02  0.10566000000E+00 0.  1.
         13    1    4    4    0    0 -0.24957672127E+02 -0.15608578064E+01 -0.11403654472E+02  0.27484107671E+02  0.10566000000E+00 0. -1.
        -13    1    4    4    0    0 -0.71796675971E+01 -0.47895256349E+00 -0.30441221166E+01  0.78137613132E+01  0.10566000000E+00 0.  1.
         14    1    4    4    0    0 -0.88782867389E+01 -0.10351255717E+01 -0.50155066988E+01  0.10249427682E+02  0.00000000000E+00 0. -1.
<mgrwt>
<rscale>  0 0.82552144E+02</rscale>
<asrwt>0</asrwt>
<pdfrwt beam="1">  1        2 0.43426226E-02 0.82552144E+02</pdfrwt>
<pdfrwt beam="2">  1       -1 0.92857699E-02 0.82552144E+02</pdfrwt>
<totfact> 0.12167938E+05</totfact>
</mgrwt>
</event>
<event>
 8    1  0.1627221E-013  0.8270827E+02  0.7818608E-02  0.1321537E+00
          2   -1    0    0  501    0  0.00000000000E+00  0.00000000000E+00  0.40322210914E+02  0.40322210995E+02  0.25500000000E-02 0. -1.
         -1   -1    0    0    0  501 -0.00000000000E+00 -0.00000000000E+00 -0.42412463070E+02  0.42412463370E+02  0.50400000000E-02 0.  1.
         24    2    1    2    0    0 -0.17763568394E-14  0.00000000000E+00 -0.20902521565E+01  0.82734674364E+02  0.82708265537E+02 0.  0.
         66    2    3    3    0    0  0.14622965948E+02  0.33646472877E+02  0.17993024753E+02  0.40910453563E+02  0.20000002040E+01 0.  0.
        -13    1    3    3    0    0 -0.14622965948E+02 -0.33646472877E+02 -0.20083276910E+02  0.41824220801E+02  0.10566000000E+00 0.  1.
         13    1    4    4    0    0  0.34884640999E+01  0.88426506771E+01  0.39599739068E+01  0.10298272193E+02  0.10566000000E+00 0. -1.
        -13    1    4    4    0    0  0.11334991676E+00  0.35855895388E+00  0.22915520884E+00  0.45286738939E+00  0.10566000000E+00 0. -1.
         14    1    4    4    0    0  0.11021151931E+02  0.24445263246E+02  0.13803895638E+02  0.30159313981E+02  0.00000000000E+00 0. -1.
<mgrwt>
<rscale>  0 0.82708266E+02</rscale>
<asrwt>0</asrwt>
<pdfrwt beam="1">  1        2 0.62034171E-02 0.82708266E+02</pdfrwt>
<pdfrwt beam="2">  1       -1 0.65249944E-02 0.82708266E+02</pdfrwt>
<totfact> 0.13020534E+05</totfact>
</mgrwt>
</event>
<event>
 8    1  0.1627221E-013  0.7819513E+02  0.7818608E-02  0.1334253E+00
          2   -1    0    0  501    0  0.00000000000E+00  0.00000000000E+00  0.32870382710E+03  0.32870382711E+03  0.25500000000E-02 0. -1.
         -1   -1    0    0    0  501 -0.00000000000E+00 -0.00000000000E+00 -0.46504453976E+01  0.46504481287E+01  0.50400000000E-02 0.  1.
         24    2    1    2    0    0  0.00000000000E+00  0.00000000000E+00  0.32405338170E+03  0.33335427523E+03  0.78195131734E+02 0.  0.
         66    2    3    3    0    0 -0.12648585541E+02  0.20906912936E+02  0.29210677976E+03  0.29313385425E+03  0.20000001122E+01 0.  0.
        -13    1    3    3    0    0  0.12648585541E+02 -0.20906912936E+02  0.31946601933E+02  0.40220420980E+02  0.10566000000E+00 0.  1.
         13    1    4    4    0    0 -0.66708112810E+01  0.10857671429E+02  0.15078791687E+03  0.15132546313E+03  0.10566000000E+00 0. -1.
        -13    1    4    4    0    0 -0.21826250640E+01  0.43185208055E+01  0.51506337460E+02  0.51733233387E+02  0.10566000000E+00 0.  1.
         14    1    4    4    0    0 -0.37951491959E+01  0.57307207023E+01  0.89812525430E+02  0.90075157737E+02  0.00000000000E+00 0. -1.
<mgrwt>
<rscale>  0 0.78195132E+02</rscale>
<asrwt>0</asrwt>
<pdfrwt beam="1">  1        2 0.50569827E-01 0.78195132E+02</pdfrwt>
<pdfrwt beam="2">  1       -1 0.71545325E-03 0.78195132E+02</pdfrwt>
<totfact> 0.27970409E+05</totfact>
</mgrwt>
</event>
<event>
 8    1  0.1627221E-013  0.8175727E+02  0.7818608E-02  0.1324137E+00
         -1   -1    0    0    0  501 -0.00000000000E+00  0.00000000000E+00  0.32912171366E+02  0.32912171752E+02  0.50400000000E-02 0.  1.
          2   -1    0    0  501    0  0.00000000000E+00 -0.00000000000E+00 -0.50773400721E+02  0.50773400785E+02  0.25500000000E-02 0. -1.
         24    2    1    2    0    0  0.88817841970E-15 -0.71054273576E-14 -0.17861229355E+02  0.83685572537E+02  0.81757272073E+02 0.  0.
         66    2    3    3    0    0  0.47488711225E+01 -0.40417885854E+02 -0.12612401659E+02  0.42652431906E+02  0.19999995169E+01 0.  0.
        -13    1    3    3    0    0 -0.47488711225E+01  0.40417885854E+02 -0.52488276962E+01  0.41033140631E+02  0.10566000000E+00 0.  1.
         13    1    4    4    0    0  0.11431176300E+01 -0.10568680866E+02 -0.36050063114E+01  0.11225460690E+02  0.10566000000E+00 0. -1.
        -13    1    4    4    0    0  0.15340070829E+01 -0.13707729644E+02 -0.33171726255E+01  0.14186959786E+02  0.10566000000E+00 0.  1.
        -14    1    4    4    0    0  0.20717464096E+01 -0.16141475344E+02 -0.56902227223E+01  0.17240011430E+02  0.00000000000E+00 0.  1.
<mgrwt>
<rscale>  0 0.81757272E+02</rscale>
<asrwt>0</asrwt>
<pdfrwt beam="1">  1        2 0.78112924E-02 0.81757272E+02</pdfrwt>
<pdfrwt beam="2">  1       -1 0.50634110E-02 0.81757272E+02</pdfrwt>
<totfact> 0.14125971E+05</totfact>
</mgrwt>
</event>
<event>
 8    1  0.1627221E-013  0.8572670E+02  0.7818608E-02  0.1313543E+00
         -1   -1    0    0    0  501 -0.00000000000E+00  0.00000000000E+00  0.12243561259E+01  0.12243664993E+01  0.50400000000E-02 0.  1.
          2   -1    0    0  501    0  0.00000000000E+00 -0.00000000000E+00 -0.15005921079E+04  0.15005921079E+04  0.25500000000E-02 0. -1.
         24    2    1    2    0    0 -0.17763568394E-14  0.17763568394E-14 -0.14993677518E+04  0.15018164744E+04  0.85726703679E+02 0.  0.
         66    2    3    3    0    0 -0.10502567790E+02  0.15044456203E+02 -0.14282736789E+04  0.14283929226E+04  0.20000000506E+01 0.  0.
        -13    1    3    3    0    0  0.10502567790E+02 -0.15044456203E+02 -0.71094072952E+02  0.73423551846E+02  0.10566000000E+00 0.  1.
         13    1    4    4    0    0 -0.71842893718E+01  0.11079342163E+02 -0.10438900492E+04  0.10439735685E+04  0.10566000000E+00 0. -1.
        -13    1    4    4    0    0 -0.31595405372E+01  0.38503958864E+01 -0.37770264709E+03  0.37773550141E+03  0.10566000000E+00 0.  1.
        -14    1    4    4    0    0 -0.15873788116E+00  0.11471815383E+00 -0.66809826212E+01  0.66838526879E+01  0.00000000000E+00 0.  1.
<mgrwt>
<rscale>  0 0.85726704E+02</rscale>
<asrwt>0</asrwt>
<pdfrwt beam="1">  1        2 0.23085885E+00 0.85726704E+02</pdfrwt>
<pdfrwt beam="2">  1       -1 0.18836448E-03 0.85726704E+02</pdfrwt>
<totfact> 0.27760001E+05</totfact>
</mgrwt>
</event>
<event>
 8    1  0.1627221E-013  0.8391582E+02  0.7818608E-02  0.1318292E+00
         -1   -1    0    0    0  501 -0.00000000000E+00  0.00000000000E+00  0.14102842592E+02  0.14102843493E+02  0.50400000000E-02 0.  1.
          2   -1    0    0  501    0  0.00000000000E+00 -0.00000000000E+00 -0.12483058943E+03  0.12483058945E+03  0.25500000000E-02 0. -1.
         24    2    1    2    0    0  0.00000000000E+00  0.00000000000E+00 -0.11072774684E+03  0.13893343295E+03  0.83915820147E+02 0.  0.
         66    2    3    3    0    0 -0.83156392762E+01  0.22521369674E+02  0.15280429550E+01  0.24139114907E+02  0.20000011623E+01 0.  0.
        -13    1    3    3    0    0  0.83156392762E+01 -0.22521369674E+02 -0.11225578979E+03  0.11479431804E+03  0.10566000000E+00 0.  1.
         13    1    4    4    0    0 -0.34758146909E+01  0.96065802927E+01  0.87420328053E+00  0.10253929398E+02  0.10566000000E+00 0. -1.
        -13    1    4    4    0    0 -0.26088624583E+01  0.52209080781E+01  0.65811922379E+00  0.58743790680E+01  0.10566000000E+00 0.  1.
        -14    1    4    4    0    0 -0.22309621270E+01  0.76938813034E+01 -0.42795493129E-02  0.80108064411E+01  0.00000000000E+00 0.  1.
<mgrwt>
<rscale>  0 0.83915820E+02</rscale>
<asrwt>0</asrwt>
<pdfrwt beam="1">  1        2 0.19204705E-01 0.83915820E+02</pdfrwt>
<pdfrwt beam="2">  1       -1 0.21696683E-02 0.83915820E+02</pdfrwt>
<totfact> 0.16643816E+05</totfact>
</mgrwt>
</event>
<event>
 8    1  0.1627221E-013  0.7949629E+02  0.7818608E-02  0.1330487E+00
          2   -1    0    0  501    0  0.00000000000E+00  0.00000000000E+00  0.24794586297E+03  0.24794586298E+03  0.25500000000E-02 0. -1.
         -1   -1    0    0    0  501 -0.00000000000E+00 -0.00000000000E+00 -0.63720154073E+01  0.63720174005E+01  0.50400000000E-02 0.  1.
         24    2    1    2    0    0 -0.71054273576E-14  0.00000000000E+00  0.24157384756E+03  0.25431788038E+03  0.79496292093E+02 0.  0.
         66    2    3    3    0    0  0.36045298047E+02 -0.16164969731E+02  0.13418486224E+03  0.13989334154E+03  0.19999985463E+01 0.  0.
        -13    1    3    3    0    0 -0.36045298047E+02  0.16164969731E+02  0.10738898532E+03  0.11442453884E+03  0.10566000000E+00 0.  1.
         13    1    4    4    0    0  0.37926488153E+01 -0.16529721230E+01  0.14734905674E+02  0.15305068152E+02  0.10566000000E+00 0. -1.
        -13    1    4    4    0    0  0.24898699885E+01 -0.67349566342E+00  0.93704006820E+01  0.97194970006E+01  0.10566000000E+00 0.  1.
        -14    1    4    4    0    0  0.29762779243E+02 -0.13838501945E+02  0.11007955588E+03  0.11486877638E+03  0.00000000000E+00 0.  1.
<mgrwt>
<rscale>  0 0.79496292E+02</rscale>
<asrwt>0</asrwt>
<pdfrwt beam="1">  1        2 0.38145510E-01 0.79496292E+02</pdfrwt>
<pdfrwt beam="2">  1       -1 0.98031042E-03 0.79496292E+02</pdfrwt>
<totfact> 0.24196354E+05</totfact>
</mgrwt>
</event>
<event>
 8    1  0.1627221E-013  0.8242233E+02  0.7818608E-02  0.1322314E+00
          2   -1    0    0  501    0  0.00000000000E+00  0.00000000000E+00  0.20718341810E+04  0.20718341810E+04  0.25500000000E-02 0. -1.
         -1   -1    0    0    0  501 -0.00000000000E+00 -0.00000000000E+00 -0.81972970737E+00  0.81974520111E+00  0.50400000000E-02 0.  1.
         24    2    1    2    0    0 -0.88817841970E-15  0.00000000000E+00  0.20710144513E+04  0.20726539262E+04  0.82422329137E+02 0.  0.
         66    2    3    3    0    0  0.40840820331E+01 -0.10611077953E+02  0.20315837937E+04  0.20316165941E+04  0.20000027238E+01 0.  0.
        -13    1    3    3    0    0 -0.40840820331E+01  0.10611077953E+02  0.39430657534E+02  0.41037332016E+02  0.10566000000E+00 0.  1.
         13    1    4    4    0    0  0.44711526516E+00 -0.20763888210E+01  0.38034399877E+03  0.38034994396E+03  0.10566000000E+00 0. -1.
        -13    1    4    4    0    0  0.79789697659E+00 -0.13111115910E+01  0.38449664295E+03  0.38449972075E+03  0.10566000000E+00 0. -1.
         14    1    4    4    0    0  0.28390697914E+01 -0.72235775414E+01  0.12667431520E+04  0.12667669294E+04  0.00000000000E+00 0. -1.
<mgrwt>
<rscale>  0 0.82422329E+02</rscale>
<asrwt>0</asrwt>
<pdfrwt beam="1">  1        2 0.31874818E+00 0.82422329E+02</pdfrwt>
<pdfrwt beam="2">  1       -1 0.12611169E-03 0.82422329E+02</pdfrwt>
<totfact> 0.24811865E+05</totfact>
</mgrwt>
</event>
<event>
 8    1  0.1627221E-013  0.8094368E+02  0.7818608E-02  0.1326395E+00
          2   -1    0    0  501    0  0.00000000000E+00  0.00000000000E+00  0.92524805270E+02  0.92524805305E+02  0.25500000000E-02 0. -1.
         -1   -1    0    0    0  501 -0.00000000000E+00 -0.00000000000E+00 -0.17703035120E+02  0.17703035837E+02  0.50400000000E-02 0.  1.
         24    2    1    2    0    0 -0.35527136788E-14  0.00000000000E+00  0.74821770150E+02  0.11022784114E+03  0.80943682117E+02 0.  0.
         66    2    3    3    0    0  0.25988329657E+02  0.11128699376E+02  0.76824876799E+02  0.81885914101E+02  0.20000012015E+01 0.  0.
        -13    1    3    3    0    0 -0.25988329657E+02 -0.11128699376E+02 -0.20031066490E+01  0.28341927042E+02  0.10566000000E+00 0.  1.
         13    1    4    4    0    0  0.11473774376E+02  0.49389424613E+01  0.33793319803E+02  0.36028326056E+02  0.10566000000E+00 0. -1.
        -13    1    4    4    0    0  0.81676404450E+01  0.29968714843E+01  0.25372849545E+02  0.26823203523E+02  0.10566000000E+00 0.  1.
        -14    1    4    4    0    0  0.63469148362E+01  0.31928854307E+01  0.17658707451E+02  0.19034384522E+02  0.00000000000E+00 0.  1.
<mgrwt>
<rscale>  0 0.80943682E+02</rscale>
<asrwt>0</asrwt>
<pdfrwt beam="1">  1        2 0.14234586E-01 0.80943682E+02</pdfrwt>
<pdfrwt beam="2">  1       -1 0.27235439E-02 0.80943682E+02</pdfrwt>
<totfact> 0.16811974E+05</totfact>
</mgrwt>
</event>
<event>
 8    1  0.1627221E-013  0.7981635E+02  0.7818608E-02  0.1329573E+00
         -1   -1    0    0    0  501 -0.00000000000E+00  0.00000000000E+00  0.95889204425E+01  0.95889217670E+01  0.50400000000E-02 0.  1.
          2   -1    0    0  501    0  0.00000000000E+00 -0.00000000000E+00 -0.16609403192E+03  0.16609403194E+03  0.25500000000E-02 0. -1.
         24    2    1    2    0    0  0.00000000000E+00 -0.35527136788E-14 -0.15650511148E+03  0.17568295371E+03  0.79816353616E+02 0.  0.
         66    2    3    3    0    0 -0.68319420727E+01  0.22192578355E+02 -0.14967497474E+03  0.15147865867E+03  0.20000001327E+01 0.  0.
        -13    1    3    3    0    0  0.68319420727E+01 -0.22192578355E+02 -0.68301367343E+01  0.24204295040E+02  0.10566000000E+00 0.  1.
         13    1    4    4    0    0 -0.20565001373E+01  0.55382867318E+01 -0.41189662057E+02  0.41611311408E+02  0.10566000000E+00 0. -1.
        -13    1    4    4    0    0 -0.19273672798E+01  0.88361530156E+01 -0.55026217762E+02  0.55764577914E+02  0.10566000000E+00 0.  1.
        -14    1    4    4    0    0 -0.28480746556E+01  0.78181386079E+01 -0.53459094926E+02  0.54102769345E+02  0.00000000000E+00 0.  1.
<mgrwt>
<rscale>  0 0.79816354E+02</rscale>
<asrwt>0</asrwt>
<pdfrwt beam="1">  1        2 0.25552926E-01 0.79816354E+02</pdfrwt>
<pdfrwt beam="2">  1       -1 0.14752188E-02 0.79816354E+02</pdfrwt>
<totfact> 0.20835041E+05</totfact>
</mgrwt>
</event>
<event>
 8    1  0.1627221E-013  0.8132917E+02  0.7818608E-02  0.1325321E+00
          2   -1    0    0  501    0  0.00000000000E+00  0.00000000000E+00  0.89036429206E+01  0.89036432858E+01  0.25500000000E-02 0. -1.
         -1   -1    0    0    0  501 -0.00000000000E+00 -0.00000000000E+00 -0.18572267677E+03  0.18572267684E+03  0.50400000000E-02 0.  1.
         24    2    1    2    0    0  0.00000000000E+00  0.00000000000E+00 -0.17681903385E+03  0.19462632012E+03  0.81329169144E+02 0.  0.
         66    2    3    3    0    0 -0.73830323951E+00 -0.40624470382E+02 -0.86445295383E+02  0.95538901882E+02  0.19999983604E+01 0.  0.
        -13    1    3    3    0    0  0.73830323951E+00  0.40624470382E+02 -0.90373738465E+02  0.99087418241E+02  0.10566000000E+00 0.  1.
         13    1    4    4    0    0 -0.80137573929E+00 -0.71066976691E+01 -0.15521672371E+02  0.17090372496E+02  0.10566000000E+00 0. -1.
        -13    1    4    4    0    0  0.49493139570E-01 -0.14915631172E+01 -0.29242325796E+01  0.32847390031E+01  0.10566000000E+00 0. -1.
        -14    1    4    4    0    0  0.13579360213E-01 -0.32026209596E+02 -0.67999390433E+02  0.75163790383E+02  0.00000000000E+00 0.  1.
<mgrwt>
<rscale>  0 0.81329169E+02</rscale>
<asrwt>0</asrwt>
<pdfrwt beam="1">  1        2 0.13697914E-02 0.81329169E+02</pdfrwt>
<pdfrwt beam="2">  1       -1 0.28572717E-01 0.81329169E+02</pdfrwt>
<totfact> 0.97632335E+04</totfact>
</mgrwt>
</event>
<event>
 8    1  0.1627221E-013  0.7882028E+02  0.7818608E-02  0.1332433E+00
          2   -1    0    0  501    0  0.00000000000E+00  0.00000000000E+00  0.54107713252E+03  0.54107713253E+03  0.25500000000E-02 0. -1.
         -1   -1    0    0    0  501 -0.00000000000E+00 -0.00000000000E+00 -0.28704922913E+01  0.28704967159E+01  0.50400000000E-02 0.  1.
         24    2    1    2    0    0  0.35527136788E-14  0.00000000000E+00  0.53820664023E+03  0.54394762925E+03  0.78820275130E+02 0.  0.
         66    2    3    3    0    0  0.16836350219E+02 -0.31587612050E+02  0.38265491296E+03  0.38433061591E+03  0.19999980156E+01 0.  0.
        -13    1    3    3    0    0 -0.16836350219E+02  0.31587612050E+02  0.15555172727E+03  0.15961701333E+03  0.10566000000E+00 0.  1.
         13    1    4    4    0    0  0.33421982194E+01 -0.66049639270E+01  0.77406845930E+02  0.77760059145E+02  0.10566000000E+00 0. -1.
        -13    1    4    4    0    0  0.11911218556E+02 -0.20749070885E+02  0.25708960360E+03  0.25820045801E+03  0.10566000000E+00 0.  1.
        -14    1    4    4    0    0  0.15829334431E+01 -0.42335772383E+01  0.48158463424E+02  0.48370098759E+02  0.00000000000E+00 0.  1.
<mgrwt>
<rscale>  0 0.78820275E+02</rscale>
<asrwt>0</asrwt>
<pdfrwt beam="1">  1        2 0.83242707E-01 0.78820275E+02</pdfrwt>
<pdfrwt beam="2">  1       -1 0.44161417E-03 0.78820275E+02</pdfrwt>
<totfact> 0.32438674E+05</totfact>
</mgrwt>
</event>
<event>
 8    1  0.1627221E-013  0.7732499E+02  0.7818608E-02  0.1336819E+00
          2   -1    0    0  501    0  0.00000000000E+00  0.00000000000E+00  0.15466811589E+03  0.15466811591E+03  0.25500000000E-02 0. -1.
         -1   -1    0    0    0  501 -0.00000000000E+00 -0.00000000000E+00 -0.96644899681E+01  0.96644912822E+01  0.50400000000E-02 0.  1.
         24    2    1    2    0    0 -0.35527136788E-14  0.35527136788E-14  0.14500362592E+03  0.16433260720E+03  0.77324991151E+02 0.  0.
         66    2    3    3    0    0  0.24599108734E+02 -0.28401061900E+02  0.91682729379E+02  0.99103276064E+02  0.19999981395E+01 0.  0.
        -13    1    3    3    0    0 -0.24599108734E+02  0.28401061900E+02  0.53320896545E+02  0.65229331132E+02  0.10566000000E+00 0.  1.
         13    1    4    4    0    0  0.74302624120E+01 -0.90403428761E+01  0.27938670755E+02  0.30290544505E+02  0.10566000000E+00 0. -1.
        -13    1    4    4    0    0  0.16794547195E+02 -0.18524186646E+02  0.61462540316E+02  0.66354030266E+02  0.10566000000E+00 0.  1.
        -14    1    4    4    0    0  0.37429912727E+00 -0.83653237779E+00  0.22815183084E+01  0.24587012929E+01  0.00000000000E+00 0.  1.
<mgrwt>
<rscale>  0 0.77324991E+02</rscale>
<asrwt>0</asrwt>
<pdfrwt beam="1">  1        2 0.23795094E-01 0.77324991E+02</pdfrwt>
<pdfrwt beam="2">  1       -1 0.14868447E-02 0.77324991E+02</pdfrwt>
<totfact> 0.22135263E+05</totfact>
</mgrwt>
</event>
<event>
 8    1  0.1627221E-013  0.8077326E+02  0.7818608E-02  0.1326871E+00
          2   -1    0    0  501    0  0.00000000000E+00  0.00000000000E+00  0.30064628102E+03  0.30064628103E+03  0.25500000000E-02 0. -1.
         -1   -1    0    0    0  501 -0.00000000000E+00 -0.00000000000E+00 -0.54252448983E+01  0.54252472393E+01  0.50400000000E-02 0.  1.
         24    2    1    2    0    0  0.00000000000E+00  0.35527136788E-14  0.29522103612E+03  0.30607152827E+03  0.80773264443E+02 0.  0.
         66    2    3    3    0    0  0.32777497756E+02 -0.22184904005E+02  0.17766732419E+03  0.18203354749E+03  0.19999998354E+01 0.  0.
        -13    1    3    3    0    0 -0.32777497756E+02  0.22184904005E+02  0.11755371192E+03  0.12403798078E+03  0.10566000000E+00 0.  1.
         13    1    4    4    0    0  0.36273811310E+01 -0.22606182519E+01  0.18099548540E+02  0.18597664105E+02  0.10566000000E+00 0. -1.
        -13    1    4    4    0    0  0.68453596362E+01 -0.51412103581E+01  0.36032452011E+02  0.37035655177E+02  0.10566000000E+00 0.  1.
         14    1    4    4    0    0  0.22304756989E+02 -0.14783075394E+02  0.12353532364E+03  0.12640022820E+03  0.00000000000E+00 0. -1.
<mgrwt>
<rscale>  0 0.80773264E+02</rscale>
<asrwt>0</asrwt>
<pdfrwt beam="1">  1        2 0.46253274E-01 0.80773264E+02</pdfrwt>
<pdfrwt beam="2">  1       -1 0.83465324E-03 0.80773264E+02</pdfrwt>
<totfact> 0.24878651E+05</totfact>
</mgrwt>
</event>
<event>
 8    1  0.1627221E-013  0.8013849E+02  0.7818608E-02  0.1328659E+00
         -1   -1    0    0    0  501 -0.00000000000E+00  0.00000000000E+00  0.70942589229E+02  0.70942589408E+02  0.50400000000E-02 0.  1.
          2   -1    0    0  501    0  0.00000000000E+00 -0.00000000000E+00 -0.22631602656E+02  0.22631602800E+02  0.25500000000E-02 0. -1.
         24    2    1    2    0    0  0.00000000000E+00  0.35527136788E-14  0.48310986573E+02  0.93574192207E+02  0.80138492771E+02 0.  0.
         66    2    3    3    0    0 -0.44573730323E+01  0.24880961320E+02 -0.12094747463E+02  0.28092940852E+02  0.19999997431E+01 0.  0.
        -13    1    3    3    0    0  0.44573730323E+01 -0.24880961320E+02  0.60405734036E+02  0.65481251355E+02  0.10566000000E+00 0.  1.
         13    1    4    4    0    0 -0.15512575375E+01  0.11297497540E+02 -0.61549539709E+01  0.12958953392E+02  0.10566000000E+00 0. -1.
        -13    1    4    4    0    0 -0.70154572936E+00  0.32683060811E+01 -0.10319912808E+01  0.35000230127E+01  0.10566000000E+00 0.  1.
        -14    1    4    4    0    0 -0.22045697655E+01  0.10315157699E+02 -0.49078022115E+01  0.11633964447E+02  0.00000000000E+00 0.  1.
<mgrwt>
<rscale>  0 0.80138493E+02</rscale>
<asrwt>0</asrwt>
<pdfrwt beam="1">  1        2 0.34817850E-02 0.80138493E+02</pdfrwt>
<pdfrwt beam="2">  1       -1 0.10914245E-01 0.80138493E+02</pdfrwt>
<totfact> 0.12664552E+05</totfact>
</mgrwt>
</event>
<event>
 8    1  0.1627221E-013  0.7491417E+02  0.7818608E-02  0.1344137E+00
          2   -1    0    0  501    0  0.00000000000E+00  0.00000000000E+00  0.42027877539E+02  0.42027877616E+02  0.25500000000E-02 0. -1.
         -1   -1    0    0    0  501 -0.00000000000E+00 -0.00000000000E+00 -0.33383397024E+02  0.33383397405E+02  0.50400000000E-02 0.  1.
         24    2    1    2    0    0  0.00000000000E+00  0.00000000000E+00  0.86444805149E+01  0.75411275021E+02  0.74914173271E+02 0.  0.
         66    2    3    3    0    0 -0.16691618206E+02 -0.26149731276E+02  0.25407298285E+02  0.40149088648E+02  0.19999872379E+01 0.  0.
        -13    1    3    3    0    0  0.16691618206E+02  0.26149731276E+02 -0.16762817770E+02  0.35262186373E+02  0.10566000000E+00 0.  1.
         13    1    4    4    0    0 -0.15545146091E+01 -0.17850041327E+01  0.19882263071E+01  0.30930508091E+01  0.10566000000E+00 0. -1.
        -13    1    4    4    0    0 -0.24210864620E+01 -0.33616478855E+01  0.28966033885E+01  0.50560667904E+01  0.10566000000E+00 0.  1.
         14    1    4    4    0    0 -0.12716017135E+02 -0.21003079258E+02  0.20522468590E+02  0.31999971049E+02  0.00000000000E+00 0. -1.
<mgrwt>
<rscale>  0 0.74914173E+02</rscale>
<asrwt>0</asrwt>
<pdfrwt beam="1">  1        2 0.64658273E-02 0.74914173E+02</pdfrwt>
<pdfrwt beam="2">  1       -1 0.51359073E-02 0.74914173E+02</pdfrwt>
<totfact> 0.17246274E+05</totfact>
</mgrwt>
</event>
<event>
 8    1  0.1627221E-013  0.8128814E+02  0.7818608E-02  0.1325435E+00
          2   -1    0    0  501    0  0.00000000000E+00  0.00000000000E+00  0.52321147392E+03  0.52321147393E+03  0.25500000000E-02 0. -1.
         -1   -1    0    0    0  501 -0.00000000000E+00 -0.00000000000E+00 -0.31573070923E+01  0.31573111150E+01  0.50400000000E-02 0.  1.
         24    2    1    2    0    0  0.35527136788E-14 -0.35527136788E-14  0.52005416683E+03  0.52636878504E+03  0.81288138316E+02 0.  0.
         66    2    3    3    0    0  0.20671052869E+02 -0.26777651243E+02  0.40578581299E+03  0.40719830679E+03  0.19999998419E+01 0.  0.
        -13    1    3    3    0    0 -0.20671052869E+02  0.26777651243E+02  0.11426835384E+03  0.11917047825E+03  0.10566000000E+00 0.  1.
         13    1    4    4    0    0  0.29672196810E+01 -0.44075798303E+01  0.59718276930E+02  0.59954273544E+02  0.10566000000E+00 0. -1.
        -13    1    4    4    0    0  0.25704375276E+01 -0.28085323048E+01  0.42002593082E+02  0.42174921368E+02  0.10566000000E+00 0.  1.
         14    1    4    4    0    0  0.15133395661E+02 -0.19561539108E+02  0.30406494297E+03  0.30506911188E+03  0.00000000000E+00 0. -1.
<mgrwt>
<rscale>  0 0.81288138E+02</rscale>
<asrwt>0</asrwt>
<pdfrwt beam="1">  1        2 0.80494171E-01 0.81288138E+02</pdfrwt>
<pdfrwt beam="2">  1       -1 0.48573927E-03 0.81288138E+02</pdfrwt>
<totfact> 0.29628886E+05</totfact>
</mgrwt>
</event>
<event>
 8    1  0.1627221E-013  0.8003345E+02  0.7818608E-02  0.1328957E+00
          2   -1    0    0  501    0  0.00000000000E+00  0.00000000000E+00  0.11916960213E+04  0.11916960213E+04  0.25500000000E-02 0. -1.
         -1   -1    0    0    0  501 -0.00000000000E+00 -0.00000000000E+00 -0.13437425001E+01  0.13437519519E+01  0.50400000000E-02 0.  1.
         24    2    1    2    0    0  0.17763568394E-14 -0.88817841970E-15  0.11903522788E+04  0.11930397732E+04  0.80033448777E+02 0.  0.
         66    2    3    3    0    0 -0.90477879702E+01  0.43239814490E+01  0.11726472940E+04  0.11726918757E+04  0.20000021000E+01 0.  0.
        -13    1    3    3    0    0  0.90477879702E+01 -0.43239814490E+01  0.17704984816E+02  0.20347897535E+02  0.10566000000E+00 0.  1.
         13    1    4    4    0    0 -0.56637593678E+01  0.21202429032E+01  0.66165621726E+03  0.66168386303E+03  0.10566000000E+00 0.  1.
        -13    1    4    4    0    0 -0.16590504568E+01  0.14594515772E+01  0.32198946197E+03  0.32199706090E+03  0.10566000000E+00 0. -1.
        -14    1    4    4    0    0 -0.17249781456E+01  0.74428696852E+00  0.18900161473E+03  0.18901095176E+03  0.00000000000E+00 0.  1.
<mgrwt>
<rscale>  0 0.80033449E+02</rscale>
<asrwt>0</asrwt>
<pdfrwt beam="1">  1        2 0.18333775E+00 0.80033449E+02</pdfrwt>
<pdfrwt beam="2">  1       -1 0.20673045E-03 0.80033449E+02</pdfrwt>
<totfact> 0.35026058E+05</totfact>
</mgrwt>
</event>
<event>
 8    1  0.1627221E-013  0.8150265E+02  0.7818608E-02  0.1324840E+00
          2   -1    0    0  501    0  0.00000000000E+00  0.00000000000E+00  0.19419171061E+02  0.19419171229E+02  0.25500000000E-02 0. -1.
         -1   -1    0    0    0  501 -0.00000000000E+00 -0.00000000000E+00 -0.85517053207E+02  0.85517053356E+02  0.50400000000E-02 0.  1.
         24    2    1    2    0    0  0.00000000000E+00  0.76327832943E-16 -0.66097882146E+02  0.10493622458E+03  0.81502645392E+02 0.  0.
         66    2    3    3    0    0  0.39168576422E+02 -0.31873115903E-01 -0.18703456823E+02  0.43451095402E+02  0.19999999391E+01 0.  0.
        -13    1    3    3    0    0 -0.39168576422E+02  0.31873115903E-01 -0.47394425323E+02  0.61485129182E+02  0.10566000000E+00 0.  1.
         13    1    4    4    0    0  0.19806902952E+02  0.29001692334E+00 -0.99218587202E+01  0.22155179053E+02  0.10566000000E+00 0.  1.
        -13    1    4    4    0    0  0.18672112740E+02 -0.52004574179E+00 -0.85358352434E+01  0.20537523928E+02  0.10566000000E+00 0. -1.
         14    1    4    4    0    0  0.68956072980E+00  0.19815570255E+00 -0.24576285895E+00  0.75839242175E+00  0.00000000000E+00 0. -1.
<mgrwt>
<rscale>  0 0.81502645E+02</rscale>
<asrwt>0</asrwt>
<pdfrwt beam="1">  1        2 0.29875648E-02 0.81502645E+02</pdfrwt>
<pdfrwt beam="2">  1       -1 0.13156470E-01 0.81502645E+02</pdfrwt>
<totfact> 0.11696831E+05</totfact>
</mgrwt>
</event>
<event>
 8    1  0.1627221E-013  0.7897445E+02  0.7818608E-02  0.1331987E+00
          2   -1    0    0  501    0  0.00000000000E+00  0.00000000000E+00  0.17635102162E+02  0.17635102346E+02  0.25500000000E-02 0. -1.
         -1   -1    0    0    0  501 -0.00000000000E+00 -0.00000000000E+00 -0.88416886758E+02  0.88416886902E+02  0.50400000000E-02 0.  1.
         24    2    1    2    0    0  0.00000000000E+00  0.00000000000E+00 -0.70781784596E+02  0.10605198925E+03  0.78974447720E+02 0.  0.
         66    2    3    3    0    0  0.17435508569E+02  0.32576913934E+02 -0.16807042310E+02  0.40641468309E+02  0.19999986479E+01 0.  0.
        -13    1    3    3    0    0 -0.17435508569E+02 -0.32576913934E+02 -0.53974742287E+02  0.65410520939E+02  0.10566000000E+00 0.  1.
         13    1    4    4    0    0  0.88738382801E+01  0.15493569270E+02 -0.80997067871E+01  0.19606430288E+02  0.10566000000E+00 0. -1.
        -13    1    4    4    0    0  0.10643083456E+01  0.27571421880E+01 -0.99249303948E+00  0.31194217042E+01  0.10566000000E+00 0.  1.
         14    1    4    4    0    0  0.74973619430E+01  0.14326202476E+02 -0.77148424833E+01  0.17915616317E+02  0.00000000000E+00 0. -1.
<mgrwt>
<rscale>  0 0.78974448E+02</rscale>
<asrwt>0</asrwt>
<pdfrwt beam="1">  1        2 0.27130927E-02 0.78974448E+02</pdfrwt>
<pdfrwt beam="2">  1       -1 0.13602598E-01 0.78974448E+02</pdfrwt>
<totfact> 0.12559617E+05</totfact>
</mgrwt>
</event>
<event>
 8    1  0.1627221E-013  0.7812727E+02  0.7818608E-02  0.1334452E+00
         -1   -1    0    0    0  501 -0.00000000000E+00  0.00000000000E+00  0.11969802480E+02  0.11969803541E+02  0.50400000000E-02 0.  1.
          2   -1    0    0  501    0  0.00000000000E+00 -0.00000000000E+00 -0.12748477346E+03  0.12748477348E+03  0.25500000000E-02 0. -1.
         24    2    1    2    0    0  0.00000000000E+00  0.00000000000E+00 -0.11551497098E+03  0.13945457702E+03  0.78127271377E+02 0.  0.
         66    2    3    3    0    0 -0.26030896630E+01 -0.29982504692E+02 -0.10217727109E+03  0.10653600983E+03  0.20000003125E+01 0.  0.
        -13    1    3    3    0    0  0.26030896630E+01  0.29982504692E+02 -0.13337699891E+02  0.32918567189E+02  0.10566000000E+00 0.  1.
         13    1    4    4    0    0 -0.21623705946E+01 -0.21270675817E+02 -0.74086351693E+02  0.77109767004E+02  0.10566000000E+00 0. -1.
        -13    1    4    4    0    0 -0.39861523226E+00 -0.87026976793E+01 -0.27833136296E+02  0.29164884384E+02  0.10566000000E+00 0.  1.
         14    1    4    4    0    0 -0.42103836151E-01 -0.91311955364E-02 -0.25778309673E+00  0.26135844488E+00  0.00000000000E+00 0. -1.
<mgrwt>
<rscale>  0 0.78127271E+02</rscale>
<asrwt>0</asrwt>
<pdfrwt beam="1">  1        2 0.19613041E-01 0.78127271E+02</pdfrwt>
<pdfrwt beam="2">  1       -1 0.18415083E-02 0.78127271E+02</pdfrwt>
<totfact> 0.20269428E+05</totfact>
</mgrwt>
</event>
<event>
 8    1  0.1627221E-013  0.8015629E+02  0.7818608E-02  0.1328608E+00
         -1   -1    0    0    0  501 -0.00000000000E+00  0.00000000000E+00  0.53159558354E+01  0.53159582246E+01  0.50400000000E-02 0.  1.
          2   -1    0    0  501    0  0.00000000000E+00 -0.00000000000E+00 -0.30215778191E+03  0.30215778192E+03  0.25500000000E-02 0. -1.
         24    2    1    2    0    0  0.17763568394E-14  0.00000000000E+00 -0.29684182607E+03  0.30747374014E+03  0.80156292153E+02 0.  0.
         66    2    3    3    0    0 -0.13463698621E+02  0.24464218733E+02 -0.25865720626E+03  0.26016786807E+03  0.20000111284E+01 0.  0.
        -13    1    3    3    0    0  0.13463698621E+02 -0.24464218733E+02 -0.38184619810E+02  0.47305872076E+02  0.10566000000E+00 0.  1.
         13    1    4    4    0    0 -0.54270201101E+01  0.81758719105E+01 -0.93057649986E+02  0.93573686546E+02  0.10566000000E+00 0. -1.
        -13    1    4    4    0    0 -0.66808761661E+00  0.16146506898E+01 -0.17330912426E+02  0.17419102373E+02  0.10566000000E+00 0.  1.
         14    1    4    4    0    0 -0.73685908940E+01  0.14673696133E+02 -0.14826864385E+03  0.14917507915E+03  0.00000000000E+00 0. -1.
<mgrwt>
<rscale>  0 0.80156292E+02</rscale>
<asrwt>0</asrwt>
<pdfrwt beam="1">  1        2 0.46485799E-01 0.80156292E+02</pdfrwt>
<pdfrwt beam="2">  1       -1 0.81783979E-03 0.80156292E+02</pdfrwt>
<totfact> 0.25430254E+05</totfact>
</mgrwt>
</event>
<event>
 8    1  0.1627221E-013  0.7926773E+02  0.7818608E-02  0.1331142E+00
          2   -1    0    0  501    0  0.00000000000E+00  0.00000000000E+00  0.84922350505E+03  0.84922350505E+03  0.25500000000E-02 0. -1.
         -1   -1    0    0    0  501 -0.00000000000E+00 -0.00000000000E+00 -0.18497374375E+01  0.18497443038E+01  0.50400000000E-02 0.  1.
         24    2    1    2    0    0  0.00000000000E+00  0.00000000000E+00  0.84737376761E+03  0.85107324936E+03  0.79267734510E+02 0.  0.
         66    2    3    3    0    0  0.32336036619E+02  0.86177357122E+01  0.65145058249E+03  0.65231261376E+03  0.20000007017E+01 0.  0.
        -13    1    3    3    0    0 -0.32336036619E+02 -0.86177357122E+01  0.19592318512E+03  0.19876063560E+03  0.10566000000E+00 0.  1.
         13    1    4    4    0    0  0.22032326959E+02  0.58567265619E+01  0.43218271687E+03  0.43278359096E+03  0.10566000000E+00 0. -1.
        -13    1    4    4    0    0  0.52344159532E+01  0.99329148221E+00  0.11329733549E+03  0.11342258651E+03  0.10566000000E+00 0.  1.
        -14    1    4    4    0    0  0.50692937067E+01  0.17677176682E+01  0.10597053013E+03  0.10610643629E+03  0.00000000000E+00 0.  1.
<mgrwt>
<rscale>  0 0.79267735E+02</rscale>
<asrwt>0</asrwt>
<pdfrwt beam="1">  1        2 0.13065016E+00 0.79267735E+02</pdfrwt>
<pdfrwt beam="2">  1       -1 0.28457467E-03 0.79267735E+02</pdfrwt>
<totfact> 0.35528837E+05</totfact>
</mgrwt>
</event>
<event>
 8    1  0.1627221E-013  0.7884083E+02  0.7818608E-02  0.1332374E+00
         -1   -1    0    0    0  501 -0.00000000000E+00  0.00000000000E+00  0.39047776903E+01  0.39047809429E+01  0.50400000000E-02 0.  1.
          2   -1    0    0  501    0  0.00000000000E+00 -0.00000000000E+00 -0.39796587805E+03  0.39796587806E+03  0.25500000000E-02 0. -1.
         24    2    1    2    0    0  0.00000000000E+00  0.35527136788E-14 -0.39406110036E+03  0.40187065901E+03  0.78840825397E+02 0.  0.
         66    2    3    3    0    0  0.20532995596E+02 -0.26905464001E+02 -0.29992121415E+03  0.30183148047E+03  0.20000013100E+01 0.  0.
        -13    1    3    3    0    0 -0.20532995596E+02  0.26905464001E+02 -0.94139886216E+02  0.10003917854E+03  0.10566000000E+00 0.  1.
         13    1    4    4    0    0  0.80798689922E+01 -0.10359898480E+02 -0.11506793493E+03  0.11581559736E+03  0.10566000000E+00 0. -1.
        -13    1    4    4    0    0  0.10650363018E+02 -0.13414989332E+02 -0.15585737402E+03  0.15679580470E+03  0.10566000000E+00 0.  1.
        -14    1    4    4    0    0  0.18027635863E+01 -0.31305761888E+01 -0.28995905202E+02  0.29220078410E+02  0.00000000000E+00 0.  1.
<mgrwt>
<rscale>  0 0.78840825E+02</rscale>
<asrwt>0</asrwt>
<pdfrwt beam="1">  1        2 0.61225488E-01 0.78840825E+02</pdfrwt>
<pdfrwt beam="2">  1       -1 0.60073560E-03 0.78840825E+02</pdfrwt>
<totfact> 0.29298599E+05</totfact>
</mgrwt>
</event>
<event>
 8    1  0.1627221E-013  0.8251175E+02  0.7818608E-02  0.1322071E+00
         -1   -1    0    0    0  501 -0.00000000000E+00  0.00000000000E+00  0.21344797511E+01  0.21344857014E+01  0.50400000000E-02 0.  1.
          2   -1    0    0  501    0  0.00000000000E+00 -0.00000000000E+00 -0.79740498698E+03  0.79740498698E+03  0.25500000000E-02 0. -1.
         24    2    1    2    0    0  0.00000000000E+00  0.00000000000E+00 -0.79527050723E+03  0.79953947269E+03  0.82511748945E+02 0.  0.
         66    2    3    3    0    0  0.35977175909E+02  0.14226842821E+01 -0.59255322855E+03  0.59364948396E+03  0.19999819950E+01 0.  0.
        -13    1    3    3    0    0 -0.35977175909E+02 -0.14226842821E+01 -0.20271727868E+03  0.20588998872E+03  0.10566000000E+00 0.  1.
         13    1    4    4    0    0  0.22793435426E+02  0.51371232780E+00 -0.37232917604E+03  0.37302658229E+03  0.10566000000E+00 0. -1.
        -13    1    4    4    0    0  0.12289602518E+02  0.10465755845E+01 -0.20801741107E+03  0.20838278269E+03  0.10566000000E+00 0.  1.
         14    1    4    4    0    0  0.89413796520E+00 -0.13760363028E+00 -0.12206641442E+02  0.12240118984E+02  0.00000000000E+00 0. -1.
<mgrwt>
<rscale>  0 0.82511749E+02</rscale>
<asrwt>0</asrwt>
<pdfrwt beam="1">  1        2 0.12267745E+00 0.82511749E+02</pdfrwt>
<pdfrwt beam="2">  1       -1 0.32838259E-03 0.82511749E+02</pdfrwt>
<totfact> 0.31691925E+05</totfact>
</mgrwt>
</event>
<event>
 8    1  0.1627221E-013  0.8078703E+02  0.7818608E-02  0.1326833E+00
         -1   -1    0    0    0  501 -0.00000000000E+00  0.00000000000E+00  0.16547525715E+03  0.16547525723E+03  0.50400000000E-02 0.  1.
          2   -1    0    0  501    0  0.00000000000E+00 -0.00000000000E+00 -0.98603021150E+01  0.98603024447E+01  0.25500000000E-02 0. -1.
         24    2    1    2    0    0 -0.71054273576E-14  0.00000000000E+00  0.15561495504E+03  0.17533555967E+03  0.80787030239E+02 0.  0.
         66    2    3    3    0    0 -0.30229669041E+02  0.11738504754E+01  0.19844713241E+02  0.36235665580E+02  0.20000003018E+01 0.  0.
        -13    1    3    3    0    0  0.30229669041E+02 -0.11738504754E+01  0.13577024180E+03  0.13909989409E+03  0.10566000000E+00 0.  1.
         13    1    4    4    0    0 -0.11747028805E+01  0.17153547805E+00  0.56179772330E+00  0.13176236167E+01  0.10566000000E+00 0. -1.
        -13    1    4    4    0    0 -0.33364494077E+01  0.58311672811E+00  0.22032788929E+01  0.40419700252E+01  0.10566000000E+00 0.  1.
         14    1    4    4    0    0 -0.25718516752E+02  0.41919826920E+00  0.17079636624E+02  0.30876071938E+02  0.00000000000E+00 0. -1.
<mgrwt>
<rscale>  0 0.80787030E+02</rscale>
<asrwt>0</asrwt>
<pdfrwt beam="1">  1        2 0.15169696E-02 0.80787030E+02</pdfrwt>
<pdfrwt beam="2">  1       -1 0.25457732E-01 0.80787030E+02</pdfrwt>
<totfact> 0.10255871E+05</totfact>
</mgrwt>
</event>
<event>
 8    1  0.1627221E-013  0.7996031E+02  0.7818608E-02  0.1329164E+00
         -1   -1    0    0    0  501 -0.00000000000E+00  0.00000000000E+00  0.66288094437E+01  0.66288113597E+01  0.50400000000E-02 0.  1.
          2   -1    0    0  501    0  0.00000000000E+00 -0.00000000000E+00 -0.24113117243E+03  0.24113117244E+03  0.25500000000E-02 0. -1.
         24    2    1    2    0    0  0.00000000000E+00  0.00000000000E+00 -0.23450236299E+03  0.24775998380E+03  0.79960310955E+02 0.  0.
         66    2    3    3    0    0 -0.11479886483E+02 -0.24555192769E+02 -0.20827906547E+03  0.21004502944E+03  0.19999990486E+01 0.  0.
        -13    1    3    3    0    0  0.11479886483E+02  0.24555192769E+02 -0.26223297520E+02  0.37714954361E+02  0.10566000000E+00 0.  1.
         13    1    4    4    0    0 -0.34419344088E+01 -0.84766562172E+01 -0.68432131577E+02  0.69041063211E+02  0.10566000000E+00 0.  1.
        -13    1    4    4    0    0 -0.10081949324E+01 -0.20993070674E+01 -0.14944346095E+02  0.15125084840E+02  0.10566000000E+00 0. -1.
         14    1    4    4    0    0 -0.70297571416E+01 -0.13979229485E+02 -0.12490258779E+03  0.12587888139E+03  0.00000000000E+00 0. -1.
<mgrwt>
<rscale>  0 0.79960311E+02</rscale>
<asrwt>0</asrwt>
<pdfrwt beam="1">  1        2 0.37097097E-01 0.79960311E+02</pdfrwt>
<pdfrwt beam="2">  1       -1 0.10198172E-02 0.79960311E+02</pdfrwt>
<totfact> 0.23592837E+05</totfact>
</mgrwt>
</event>
<event>
 8    1  0.1627221E-013  0.7783132E+02  0.7818608E-02  0.1335321E+00
          2   -1    0    0  501    0  0.00000000000E+00  0.00000000000E+00  0.35689817841E+03  0.35689817842E+03  0.25500000000E-02 0. -1.
         -1   -1    0    0    0  501 -0.00000000000E+00 -0.00000000000E+00 -0.42433060629E+01  0.42433090560E+01  0.50400000000E-02 0.  1.
         24    2    1    2    0    0 -0.35527136788E-14 -0.35527136788E-14  0.35265487235E+03  0.36114148748E+03  0.77831323936E+02 0.  0.
         66    2    3    3    0    0 -0.16581055661E+02 -0.16297129598E+02  0.32109834566E+03  0.32194514351E+03  0.20000004885E+01 0.  0.
        -13    1    3    3    0    0  0.16581055661E+02  0.16297129598E+02  0.31556526690E+02  0.39196343971E+02  0.10566000000E+00 0.  1.
         13    1    4    4    0    0 -0.48749846298E+00 -0.45921705709E+00  0.11166913420E+02  0.11187477572E+02  0.10566000000E+00 0. -1.
        -13    1    4    4    0    0 -0.38236734336E+01 -0.39022381813E+01  0.65442705055E+02  0.65670440461E+02  0.10566000000E+00 0.  1.
        -14    1    4    4    0    0 -0.12269883764E+02 -0.11935674360E+02  0.24448872719E+03  0.24508722548E+03  0.00000000000E+00 0.  1.
<mgrwt>
<rscale>  0 0.77831324E+02</rscale>
<asrwt>0</asrwt>
<pdfrwt beam="1">  1        2 0.54907398E-01 0.77831324E+02</pdfrwt>
<pdfrwt beam="2">  1       -1 0.65281672E-03 0.77831324E+02</pdfrwt>
<totfact> 0.29157697E+05</totfact>
</mgrwt>
</event>
<event>
 8    1  0.1627221E-013  0.8022120E+02  0.7818608E-02  0.1328425E+00
         -1   -1    0    0    0  501 -0.00000000000E+00  0.00000000000E+00  0.23779844784E+01  0.23779898194E+01  0.50400000000E-02 0.  1.
          2   -1    0    0  501    0  0.00000000000E+00 -0.00000000000E+00 -0.67656387852E+03  0.67656387852E+03  0.25500000000E-02 0. -1.
         24    2    1    2    0    0  0.17763568394E-14  0.35527136788E-14 -0.67418589404E+03  0.67894186834E+03  0.80221199604E+02 0.  0.
         66    2    3    3    0    0  0.83817324113E+01  0.27548752132E+02 -0.57331741085E+03  0.57404358786E+03  0.20000004516E+01 0.  0.
        -13    1    3    3    0    0 -0.83817324113E+01 -0.27548752132E+02 -0.10086848319E+03  0.10489828048E+03  0.10566000000E+00 0.  1.
         13    1    4    4    0    0  0.24604847876E+01  0.10128188428E+02 -0.21751347566E+03  0.21776307641E+03  0.10566000000E+00 0.  1.
        -13    1    4    4    0    0  0.53874613951E+01  0.16231770246E+02 -0.33414924452E+03  0.33458664631E+03  0.10566000000E+00 0. -1.
        -14    1    4    4    0    0  0.53378622869E+00  0.11887934582E+01 -0.21654690662E+02  0.21693865153E+02  0.00000000000E+00 0.  1.
<mgrwt>
<rscale>  0 0.80221200E+02</rscale>
<asrwt>0</asrwt>
<pdfrwt beam="1">  1        2 0.10408660E+00 0.80221200E+02</pdfrwt>
<pdfrwt beam="2">  1       -1 0.36584472E-03 0.80221200E+02</pdfrwt>
<totfact> 0.32947646E+05</totfact>
</mgrwt>
</event>
<event>
 8    1  0.1627221E-013  0.7975624E+02  0.7818608E-02  0.1329745E+00
          2   -1    0    0  501    0  0.00000000000E+00  0.00000000000E+00  0.35097235468E+03  0.35097235469E+03  0.25500000000E-02 0. -1.
         -1   -1    0    0    0  501 -0.00000000000E+00 -0.00000000000E+00 -0.45310237860E+01  0.45310265891E+01  0.50400000000E-02 0.  1.
         24    2    1    2    0    0  0.00000000000E+00  0.00000000000E+00  0.34644133089E+03  0.35550338128E+03  0.79756243322E+02 0.  0.
         66    2    3    3    0    0  0.39023861179E+02 -0.67531172870E+01  0.19315998892E+03  0.19718835578E+03  0.20000011573E+01 0.  0.
        -13    1    3    3    0    0 -0.39023861179E+02  0.67531172870E+01  0.15328134198E+03  0.15831502549E+03  0.10566000000E+00 0.  1.
         13    1    4    4    0    0  0.57886779136E+01 -0.10664823143E+01  0.27615114153E+02  0.28235648925E+02  0.10566000000E+00 0. -1.
        -13    1    4    4    0    0  0.25960637153E+01 -0.11623063199E+00  0.11276201913E+02  0.11572249133E+02  0.10566000000E+00 0.  1.
         14    1    4    4    0    0  0.30639119551E+02 -0.55704043407E+01  0.15426867285E+03  0.15738045773E+03  0.00000000000E+00 0. -1.
<mgrwt>
<rscale>  0 0.79756243E+02</rscale>
<asrwt>0</asrwt>
<pdfrwt beam="1">  1        2 0.53995757E-01 0.79756243E+02</pdfrwt>
<pdfrwt beam="2">  1       -1 0.69708067E-03 0.79756243E+02</pdfrwt>
<totfact> 0.27192508E+05</totfact>
</mgrwt>
</event>
<event>
 8    1  0.1627221E-013  0.8185724E+02  0.7818608E-02  0.1323862E+00
         -1   -1    0    0    0  501 -0.00000000000E+00  0.00000000000E+00  0.74836865586E+01  0.74836882557E+01  0.50400000000E-02 0.  1.
          2   -1    0    0  501    0  0.00000000000E+00 -0.00000000000E+00 -0.22384045673E+03  0.22384045675E+03  0.25500000000E-02 0. -1.
         24    2    1    2    0    0  0.00000000000E+00 -0.17763568394E-14 -0.21635677017E+03  0.23132414500E+03  0.81857241959E+02 0.  0.
         66    2    3    3    0    0  0.22197415458E+02 -0.93405525828E+01 -0.20167762877E+03  0.20312025286E+03  0.19999999940E+01 0.  0.
        -13    1    3    3    0    0 -0.22197415458E+02  0.93405525828E+01 -0.14679141402E+02  0.28203892141E+02  0.10566000000E+00 0.  1.
         13    1    4    4    0    0  0.10675187129E+02 -0.41983348172E+01 -0.90882794416E+02  0.91603925246E+02  0.10566000000E+00 0. -1.
        -13    1    4    4    0    0  0.26097896789E+00  0.76908912306E-02 -0.25451518094E+01  0.25606895439E+01  0.10566000000E+00 0.  1.
        -14    1    4    4    0    0  0.11261249361E+02 -0.51499086569E+01 -0.10824968255E+03  0.10895563807E+03  0.00000000000E+00 0.  1.
<mgrwt>
<rscale>  0 0.81857242E+02</rscale>
<asrwt>0</asrwt>
<pdfrwt beam="1">  1        2 0.34436988E-01 0.81857242E+02</pdfrwt>
<pdfrwt beam="2">  1       -1 0.11513367E-02 0.81857242E+02</pdfrwt>
<totfact> 0.21599678E+05</totfact>
</mgrwt>
</event>
<event>
 8    1  0.1627221E-013  0.8255170E+02  0.7818608E-02  0.1321962E+00
          2   -1    0    0  501    0  0.00000000000E+00  0.00000000000E+00  0.15585752144E+03  0.15585752146E+03  0.25500000000E-02 0. -1.
         -1   -1    0    0    0  501 -0.00000000000E+00 -0.00000000000E+00 -0.10931108971E+02  0.10931110133E+02  0.50400000000E-02 0.  1.
         24    2    1    2    0    0 -0.44408920985E-15 -0.35527136788E-14  0.14492641247E+03  0.16678863159E+03  0.82551696517E+02 0.  0.
         66    2    3    3    0    0  0.23524232016E+01  0.22111403850E+02  0.14270571783E+03  0.14444157980E+03  0.19999994061E+01 0.  0.
        -13    1    3    3    0    0 -0.23524232016E+01 -0.22111403850E+02  0.22206946340E+01  0.22347051793E+02  0.10566000000E+00 0.  1.
         13    1    4    4    0    0  0.16122410191E+00  0.35003338608E+01  0.20810220398E+02  0.21103430228E+02  0.10566000000E+00 0. -1.
        -13    1    4    4    0    0  0.80111328693E+00  0.22866578311E+01  0.15418597478E+02  0.15608167693E+02  0.10566000000E+00 0.  1.
         14    1    4    4    0    0  0.13900858127E+01  0.16324412158E+02  0.10647689996E+03  0.10772998188E+03  0.00000000000E+00 0. -1.
<mgrwt>
<rscale>  0 0.82551697E+02</rscale>
<asrwt>0</asrwt>
<pdfrwt beam="1">  1        2 0.23978081E-01 0.82551697E+02</pdfrwt>
<pdfrwt beam="2">  1       -1 0.16817091E-02 0.82551697E+02</pdfrwt>
<totfact> 0.18657597E+05</totfact>
</mgrwt>
</event>
<event>
 8    1  0.1627221E-013  0.7870475E+02  0.7818608E-02  0.1332768E+00
          2   -1    0    0  501    0  0.00000000000E+00  0.00000000000E+00  0.12263728535E+03  0.12263728538E+03  0.25500000000E-02 0. -1.
         -1   -1    0    0    0  501 -0.00000000000E+00 -0.00000000000E+00 -0.12627555905E+02  0.12627556911E+02  0.50400000000E-02 0.  1.
         24    2    1    2    0    0 -0.35527136788E-14 -0.88817841970E-15  0.11000972945E+03  0.13526484229E+03  0.78704745641E+02 0.  0.
         66    2    3    3    0    0  0.19075142147E+02 -0.73546844934E+01  0.11277858732E+03  0.11463403596E+03  0.20000029136E+01 0.  0.
        -13    1    3    3    0    0 -0.19075142147E+02  0.73546844934E+01 -0.27688578671E+01  0.20630806330E+02  0.10566000000E+00 0.  1.
         13    1    4    4    0    0  0.54816550816E+01 -0.30018600280E+01  0.35684333276E+02  0.36227648439E+02  0.10566000000E+00 0. -1.
        -13    1    4    4    0    0  0.87265914573E+01 -0.30417108084E+01  0.49313492908E+02  0.50172075400E+02  0.10566000000E+00 0.  1.
         14    1    4    4    0    0  0.48668956079E+01 -0.13111136570E+01  0.27780761131E+02  0.28234312121E+02  0.00000000000E+00 0. -1.
<mgrwt>
<rscale>  0 0.78704746E+02</rscale>
<asrwt>0</asrwt>
<pdfrwt beam="1">  1        2 0.18867274E-01 0.78704746E+02</pdfrwt>
<pdfrwt beam="2">  1       -1 0.19427011E-02 0.78704746E+02</pdfrwt>
<totfact> 0.19644552E+05</totfact>
</mgrwt>
</event>
<event>
 8    1  0.1627221E-013  0.7927524E+02  0.7818608E-02  0.1331121E+00
         -1   -1    0    0    0  501 -0.00000000000E+00  0.00000000000E+00  0.22035197545E+01  0.22035255183E+01  0.50400000000E-02 0.  1.
          2   -1    0    0  501    0  0.00000000000E+00 -0.00000000000E+00 -0.71301324985E+03  0.71301324985E+03  0.25500000000E-02 0. -1.
         24    2    1    2    0    0  0.00000000000E+00  0.00000000000E+00 -0.71080973009E+03  0.71521677537E+03  0.79275238103E+02 0.  0.
         66    2    3    3    0    0 -0.11389165855E+02 -0.84258514825E+01 -0.68937261157E+03  0.68952106976E+03  0.19999977353E+01 0.  0.
        -13    1    3    3    0    0  0.11389165855E+02  0.84258514825E+01 -0.21437118520E+02  0.25695705606E+02  0.10566000000E+00 0.  1.
         13    1    4    4    0    0 -0.13737740956E+01 -0.15784681366E+01 -0.93243603872E+02  0.93267141288E+02  0.10566000000E+00 0.  1.
        -13    1    4    4    0    0 -0.61236876887E+01 -0.42230613659E+01 -0.33335902953E+03  0.33344203024E+03  0.10566000000E+00 0. -1.
        -14    1    4    4    0    0 -0.38917040708E+01 -0.26243219800E+01 -0.26276997817E+03  0.26281189823E+03  0.00000000000E+00 0.  1.
<mgrwt>
<rscale>  0 0.79275238E+02</rscale>
<asrwt>0</asrwt>
<pdfrwt beam="1">  1        2 0.10969416E+00 0.79275238E+02</pdfrwt>
<pdfrwt beam="2">  1       -1 0.33900405E-03 0.79275238E+02</pdfrwt>
<totfact> 0.34394556E+05</totfact>
</mgrwt>
</event>
<event>
 8    1  0.1627221E-013  0.7870850E+02  0.7818608E-02  0.1332757E+00
         -1   -1    0    0    0  501 -0.00000000000E+00  0.00000000000E+00  0.35557654003E+02  0.35557654361E+02  0.50400000000E-02 0.  1.
          2   -1    0    0  501    0  0.00000000000E+00 -0.00000000000E+00 -0.43556224786E+02  0.43556224860E+02  0.25500000000E-02 0. -1.
         24    2    1    2    0    0 -0.35527136788E-14 -0.55511151231E-16 -0.79985707821E+01  0.79113879221E+02  0.78708504946E+02 0.  0.
         66    2    3    3    0    0  0.29312680167E+02 -0.97905323012E-01 -0.30357305014E+02  0.42246997545E+02  0.20000074715E+01 0.  0.
        -13    1    3    3    0    0 -0.29312680167E+02  0.97905323012E-01  0.22358734232E+02  0.36866881676E+02  0.10566000000E+00 0.  1.
         13    1    4    4    0    0  0.13262065213E+01  0.24556011419E+00 -0.12118937018E+01  0.18163077622E+01  0.10566000000E+00 0. -1.
        -13    1    4    4    0    0  0.64475670337E+01  0.15150314781E+00 -0.74686720756E+01  0.98684497499E+01  0.10566000000E+00 0.  1.
         14    1    4    4    0    0  0.21538906612E+02 -0.49496858501E+00 -0.21676739236E+02  0.30562240033E+02  0.00000000000E+00 0. -1.
<mgrwt>
<rscale>  0 0.78708505E+02</rscale>
<asrwt>0</asrwt>
<pdfrwt beam="1">  1        2 0.67009577E-02 0.78708505E+02</pdfrwt>
<pdfrwt beam="2">  1       -1 0.54704084E-02 0.78708505E+02</pdfrwt>
<totfact> 0.15173737E+05</totfact>
</mgrwt>
</event>
<event>
 8    1  0.1627221E-013  0.8065384E+02  0.7818608E-02  0.1327206E+00
         -1   -1    0    0    0  501 -0.00000000000E+00  0.00000000000E+00  0.15306112842E+03  0.15306112850E+03  0.50400000000E-02 0.  1.
          2   -1    0    0  501    0  0.00000000000E+00 -0.00000000000E+00 -0.10624908403E+02  0.10624908709E+02  0.25500000000E-02 0. -1.
         24    2    1    2    0    0  0.00000000000E+00  0.00000000000E+00  0.14243622002E+03  0.16368603721E+03  0.80653840612E+02 0.  0.
         66    2    3    3    0    0 -0.20316926722E+01  0.39429993021E+02  0.87674735161E+02  0.96175419436E+02  0.19999983814E+01 0.  0.
        -13    1    3    3    0    0  0.20316926722E+01 -0.39429993021E+02  0.54761484856E+02  0.67510617775E+02  0.10566000000E+00 0.  1.
         13    1    4    4    0    0 -0.16726535241E+01  0.35836184534E+02  0.80190463487E+02  0.87849595845E+02  0.10566000000E+00 0. -1.
        -13    1    4    4    0    0  0.10156270067E+00  0.12597562769E+01  0.26522526250E+01  0.29398824606E+01  0.10566000000E+00 0.  1.
         14    1    4    4    0    0 -0.46060184870E+00  0.23340522106E+01  0.48320190485E+01  0.53859411313E+01  0.00000000000E+00 0. -1.
<mgrwt>
<rscale>  0 0.80653841E+02</rscale>
<asrwt>0</asrwt>
<pdfrwt beam="1">  1        2 0.16346014E-02 0.80653841E+02</pdfrwt>
<pdfrwt beam="2">  1       -1 0.23547865E-01 0.80653841E+02</pdfrwt>
<totfact> 0.10512888E+05</totfact>
</mgrwt>
</event>
<event>
 8    1  0.1627221E-013  0.8183002E+02  0.7818608E-02  0.1323937E+00
         -1   -1    0    0    0  501 -0.00000000000E+00  0.00000000000E+00  0.16772036202E+03  0.16772036210E+03  0.50400000000E-02 0.  1.
          2   -1    0    0  501    0  0.00000000000E+00 -0.00000000000E+00 -0.99811260755E+01  0.99811264012E+01  0.25500000000E-02 0. -1.
         24    2    1    2    0    0  0.00000000000E+00 -0.55511151231E-16  0.15773923595E+03  0.17770148850E+03  0.81830021739E+02 0.  0.
         66    2    3    3    0    0  0.40795326345E+02  0.65586771144E-01  0.72863279255E+02  0.83530356290E+02  0.20000012205E+01 0.  0.
        -13    1    3    3    0    0 -0.40795326345E+02 -0.65586771144E-01  0.84875956692E+02  0.94171132210E+02  0.10566000000E+00 0.  1.
         13    1    4    4    0    0  0.22565729203E+02  0.46142080041E+00  0.41108913031E+02  0.46897536590E+02  0.10566000000E+00 0. -1.
        -13    1    4    4    0    0  0.35615299643E+01 -0.37434736959E+00  0.56674047503E+01  0.67048692962E+01  0.10566000000E+00 0.  1.
        -14    1    4    4    0    0  0.14668067178E+02 -0.21486659672E-01  0.26086961474E+02  0.29927950404E+02  0.00000000000E+00 0.  1.
<mgrwt>
<rscale>  0 0.81830022E+02</rscale>
<asrwt>0</asrwt>
<pdfrwt beam="1">  1        2 0.15355579E-02 0.81830022E+02</pdfrwt>
<pdfrwt beam="2">  1       -1 0.25803133E-01 0.81830022E+02</pdfrwt>
<totfact> 0.98914356E+04</totfact>
</mgrwt>
</event>
<event>
 8    1  0.1627221E-013  0.7808621E+02  0.7818608E-02  0.1334572E+00
         -1   -1    0    0    0  501 -0.00000000000E+00  0.00000000000E+00  0.27314023772E+02  0.27314024237E+02  0.50400000000E-02 0.  1.
          2   -1    0    0  501    0  0.00000000000E+00 -0.00000000000E+00 -0.55808840849E+02  0.55808840907E+02  0.25500000000E-02 0. -1.
         24    2    1    2    0    0  0.00000000000E+00  0.00000000000E+00 -0.28494817077E+02  0.83122865145E+02  0.78086209471E+02 0.  0.
         66    2    3    3    0    0 -0.20745737595E+02  0.23995114519E+01 -0.49340334920E+02  0.53615407413E+02  0.19999946304E+01 0.  0.
        -13    1    3    3    0    0  0.20745737595E+02 -0.23995114519E+01  0.20845517843E+02  0.29507457731E+02  0.10566000000E+00 0.  1.
         13    1    4    4    0    0 -0.50175955537E+01  0.12233796374E+01 -0.11979575007E+02  0.13045853911E+02  0.10566000000E+00 0. -1.
        -13    1    4    4    0    0 -0.11474697668E+02  0.11786812801E+01 -0.28268435066E+02  0.30531517507E+02  0.10566000000E+00 0.  1.
        -14    1    4    4    0    0 -0.42534443733E+01 -0.25494656476E-02 -0.90923248464E+01  0.10038035996E+02  0.00000000000E+00 0.  1.
<mgrwt>
<rscale>  0 0.78086209E+02</rscale>
<asrwt>0</asrwt>
<pdfrwt beam="1">  1        2 0.85859755E-02 0.78086209E+02</pdfrwt>
<pdfrwt beam="2">  1       -1 0.42021576E-02 0.78086209E+02</pdfrwt>
<totfact> 0.16354863E+05</totfact>
</mgrwt>
</event>
<event>
 8    1  0.1627221E-013  0.7876084E+02  0.7818608E-02  0.1332605E+00
         -1   -1    0    0    0  501 -0.00000000000E+00  0.00000000000E+00  0.15224808830E+03  0.15224808838E+03  0.50400000000E-02 0.  1.
          2   -1    0    0  501    0  0.00000000000E+00 -0.00000000000E+00 -0.10186120783E+02  0.10186121102E+02  0.25500000000E-02 0. -1.
         24    2    1    2    0    0  0.00000000000E+00  0.00000000000E+00  0.14206196752E+03  0.16243420949E+03  0.78760839231E+02 0.  0.
         66    2    3    3    0    0  0.63922683141E+01  0.25635643369E+02  0.10921617996E+02  0.28658839026E+02  0.20000023787E+01 0.  0.
        -13    1    3    3    0    0 -0.63922683141E+01 -0.25635643369E+02  0.13114034952E+03  0.13377537046E+03  0.10566000000E+00 0.  1.
         13    1    4    4    0    0  0.42010598934E+01  0.17662202391E+02  0.77736936037E+01  0.19749525913E+02  0.10566000000E+00 0. -1.
        -13    1    4    4    0    0  0.11518605819E+01  0.53878719170E+01  0.16878550568E+01  0.57633293609E+01  0.10566000000E+00 0.  1.
         14    1    4    4    0    0  0.10393478388E+01  0.25855690609E+01  0.14600693358E+01  0.31459837514E+01  0.00000000000E+00 0. -1.
<mgrwt>
<rscale>  0 0.78760839E+02</rscale>
<asrwt>0</asrwt>
<pdfrwt beam="1">  1        2 0.15670957E-02 0.78760839E+02</pdfrwt>
<pdfrwt beam="2">  1       -1 0.23422780E-01 0.78760839E+02</pdfrwt>
<totfact> 0.11178852E+05</totfact>
</mgrwt>
</event>
<event>
 8    1  0.1627221E-013  0.8035296E+02  0.7818608E-02  0.1328053E+00
          2   -1    0    0  501    0  0.00000000000E+00  0.00000000000E+00  0.22634360444E+03  0.22634360445E+03  0.25500000000E-02 0. -1.
         -1   -1    0    0    0  501 -0.00000000000E+00 -0.00000000000E+00 -0.71314112077E+01  0.71314129887E+01  0.50400000000E-02 0.  1.
         24    2    1    2    0    0  0.35527136788E-14  0.00000000000E+00  0.21921219323E+03  0.23347501744E+03  0.80352959549E+02 0.  0.
         66    2    3    3    0    0 -0.24322547526E+02  0.26188644675E+02  0.16283257958E+03  0.16672096567E+03  0.19999985713E+01 0.  0.
        -13    1    3    3    0    0  0.24322547526E+02 -0.26188644675E+02  0.56379613653E+02  0.66754051770E+02  0.10566000000E+00 0.  1.
         13    1    4    4    0    0 -0.76494135135E+00  0.10911271095E+01  0.59354403432E+01  0.60841030353E+01  0.10566000000E+00 0. -1.
        -13    1    4    4    0    0 -0.31887450931E+00  0.27585649264E+00  0.27465053519E+01  0.27806893823E+01  0.10566000000E+00 0.  1.
         14    1    4    4    0    0 -0.23238731665E+02  0.24821661073E+02  0.15415063388E+03  0.15785617326E+03  0.00000000000E+00 0. -1.
<mgrwt>
<rscale>  0 0.80352960E+02</rscale>
<asrwt>0</asrwt>
<pdfrwt beam="1">  1        2 0.34822086E-01 0.80352960E+02</pdfrwt>
<pdfrwt beam="2">  1       -1 0.10971406E-02 0.80352960E+02</pdfrwt>
<totfact> 0.22772052E+05</totfact>
</mgrwt>
</event>
<event>
 8    1  0.1627221E-013  0.8360369E+02  0.7818608E-02  0.1319125E+00
         -1   -1    0    0    0  501 -0.00000000000E+00  0.00000000000E+00  0.58605495587E+01  0.58605517259E+01  0.50400000000E-02 0.  1.
          2   -1    0    0  501    0  0.00000000000E+00 -0.00000000000E+00 -0.29816211756E+03  0.29816211757E+03  0.25500000000E-02 0. -1.
         24    2    1    2    0    0  0.00000000000E+00  0.00000000000E+00 -0.29230156800E+03  0.30402266930E+03  0.83603688856E+02 0.  0.
         66    2    3    3    0    0  0.72321547048E+01 -0.36270141644E+02 -0.21689435306E+03  0.22003406015E+03  0.20000004729E+01 0.  0.
        -13    1    3    3    0    0 -0.72321547048E+01  0.36270141644E+02 -0.75407214942E+02  0.83988609144E+02  0.10566000000E+00 0.  1.
         13    1    4    4    0    0  0.24025679491E+01 -0.11838183254E+02 -0.72720914779E+02  0.73717416706E+02  0.10566000000E+00 0. -1.
        -13    1    4    4    0    0  0.76327306660E+00 -0.71192622088E+01 -0.42959772826E+02  0.43552493906E+02  0.10566000000E+00 0.  1.
        -14    1    4    4    0    0  0.40663136891E+01 -0.17312696181E+02 -0.10121366545E+03  0.10276414954E+03  0.00000000000E+00 0.  1.
<mgrwt>
<rscale>  0 0.83603689E+02</rscale>
<asrwt>0</asrwt>
<pdfrwt beam="1">  1        2 0.45871083E-01 0.83603689E+02</pdfrwt>
<pdfrwt beam="2">  1       -1 0.90162341E-03 0.83603689E+02</pdfrwt>
<totfact> 0.22656701E+05</totfact>
</mgrwt>
</event>
<event>
 8    1  0.1627221E-013  0.7570091E+02  0.7818608E-02  0.1341714E+00
         -1   -1    0    0    0  501 -0.00000000000E+00  0.00000000000E+00  0.82953939356E+01  0.82953954667E+01  0.50400000000E-02 0.  1.
          2   -1    0    0  501    0  0.00000000000E+00 -0.00000000000E+00 -0.17270509022E+03  0.17270509024E+03  0.25500000000E-02 0. -1.
         24    2    1    2    0    0 -0.35527136788E-14  0.17763568394E-14 -0.16440969628E+03  0.18100048570E+03  0.75700908801E+02 0.  0.
         66    2    3    3    0    0 -0.24486859700E+02 -0.15165016112E+02 -0.14088134331E+03  0.14380937696E+03  0.19999996587E+01 0.  0.
        -13    1    3    3    0    0  0.24486859700E+02  0.15165016112E+02 -0.23528352974E+02  0.37191108740E+02  0.10566000000E+00 0.  1.
         13    1    4    4    0    0 -0.17348961205E+02 -0.10055104598E+02 -0.94871873332E+02  0.96967907561E+02  0.10566000000E+00 0. -1.
        -13    1    4    4    0    0 -0.29299569806E+01 -0.18584113354E+01 -0.17993860161E+02  0.18325624358E+02  0.10566000000E+00 0.  1.
         14    1    4    4    0    0 -0.42079415140E+01 -0.32515001784E+01 -0.28015609816E+02  0.28515845044E+02  0.00000000000E+00 0. -1.
<mgrwt>
<rscale>  0 0.75700909E+02</rscale>
<asrwt>0</asrwt>
<pdfrwt beam="1">  1        2 0.26570011E-01 0.75700909E+02</pdfrwt>
<pdfrwt beam="2">  1       -1 0.12762147E-02 0.75700909E+02</pdfrwt>
<totfact> 0.24270866E+05</totfact>
</mgrwt>
</event>
<event>
 8    1  0.1627221E-013  0.7925736E+02  0.7818608E-02  0.1331172E+00
         -1   -1    0    0    0  501 -0.00000000000E+00  0.00000000000E+00  0.40745305084E+02  0.40745305396E+02  0.50400000000E-02 0.  1.
          2   -1    0    0  501    0  0.00000000000E+00 -0.00000000000E+00 -0.38542652862E+02  0.38542652946E+02  0.25500000000E-02 0. -1.
         24    2    1    2    0    0  0.00000000000E+00 -0.17763568394E-14  0.22026522221E+01  0.79287958342E+02  0.79257357143E+02 0.  0.
         66    2    3    3    0    0 -0.66798913386E+01  0.10772451002E+02 -0.36432596395E+02  0.38626425554E+02  0.20000055269E+01 0.  0.
        -13    1    3    3    0    0  0.66798913386E+01 -0.10772451002E+02  0.38635248617E+02  0.40661532788E+02  0.10566000000E+00 0.  1.
         13    1    4    4    0    0 -0.42250049649E+01  0.55848710686E+01 -0.20625549511E+02  0.21782238372E+02  0.10566000000E+00 0. -1.
        -13    1    4    4    0    0 -0.21357349893E+01  0.35869975793E+01 -0.11820993890E+02  0.12536944450E+02  0.10566000000E+00 0.  1.
        -14    1    4    4    0    0 -0.31915138438E+00  0.16005823545E+01 -0.39860529943E+01  0.43072427320E+01  0.00000000000E+00 0.  1.
<mgrwt>
<rscale>  0 0.79257357E+02</rscale>
<asrwt>0</asrwt>
<pdfrwt beam="1">  1        2 0.59296390E-02 0.79257357E+02</pdfrwt>
<pdfrwt beam="2">  1       -1 0.62685085E-02 0.79257357E+02</pdfrwt>
<totfact> 0.14517157E+05</totfact>
</mgrwt>
</event>
<event>
 8    1  0.1627221E-013  0.7426528E+02  0.7818608E-02  0.1346161E+00
         -1   -1    0    0    0  501 -0.00000000000E+00  0.00000000000E+00  0.12916318977E+03  0.12916318987E+03  0.50400000000E-02 0.  1.
          2   -1    0    0  501    0  0.00000000000E+00 -0.00000000000E+00 -0.10675123951E+02  0.10675124256E+02  0.25500000000E-02 0. -1.
         24    2    1    2    0    0  0.00000000000E+00  0.00000000000E+00  0.11848806582E+03  0.13983831413E+03  0.74265283650E+02 0.  0.
         66    2    3    3    0    0  0.23915073016E+02 -0.50668868616E+00  0.58745706547E+01  0.24712305299E+02  0.20000005020E+01 0.  0.
        -13    1    3    3    0    0 -0.23915073016E+02  0.50668868616E+00  0.11261349517E+03  0.11512600883E+03  0.10566000000E+00 0.  1.
         13    1    4    4    0    0  0.18394681577E+01 -0.77270564574E-01  0.18761985899E-01  0.18442152507E+01  0.10566000000E+00 0. -1.
        -13    1    4    4    0    0  0.18231618987E+02 -0.11533925196E+00  0.44944887217E+01  0.18778094337E+02  0.10566000000E+00 0.  1.
        -14    1    4    4    0    0  0.38439858716E+01 -0.31407886962E+00  0.13613199471E+01  0.40899957110E+01  0.00000000000E+00 0.  1.
<mgrwt>
<rscale>  0 0.74265284E+02</rscale>
<asrwt>0</asrwt>
<pdfrwt beam="1">  1        2 0.16423267E-02 0.74265284E+02</pdfrwt>
<pdfrwt beam="2">  1       -1 0.19871261E-01 0.74265284E+02</pdfrwt>
<totfact> 0.13491274E+05</totfact>
</mgrwt>
</event>
<event>
 8    1  0.1627221E-013  0.8147466E+02  0.7818608E-02  0.1324918E+00
          2   -1    0    0  501    0  0.00000000000E+00  0.00000000000E+00  0.17269811721E+02  0.17269811909E+02  0.25500000000E-02 0. -1.
         -1   -1    0    0    0  501 -0.00000000000E+00 -0.00000000000E+00 -0.96094281405E+02  0.96094281537E+02  0.50400000000E-02 0.  1.
         24    2    1    2    0    0  0.35527136788E-14  0.00000000000E+00 -0.78824469684E+02  0.11336409345E+03  0.81474662699E+02 0.  0.
         66    2    3    3    0    0 -0.18957076269E+02  0.15815058037E+02  0.56085586860E+01  0.25395722737E+02  0.20000003617E+01 0.  0.
        -13    1    3    3    0    0  0.18957076269E+02 -0.15815058037E+02 -0.84433028370E+02  0.87968370709E+02  0.10566000000E+00 0.  1.
         13    1    4    4    0    0 -0.78914728238E+01  0.64712124763E+01  0.18965320128E+01  0.10380748140E+02  0.10566000000E+00 0. -1.
        -13    1    4    4    0    0 -0.65474073766E+01  0.63928129590E+01  0.22512587358E+01  0.94242204354E+01  0.10566000000E+00 0.  1.
        -14    1    4    4    0    0 -0.45181960686E+01  0.29510326014E+01  0.14607679375E+01  0.55907541616E+01  0.00000000000E+00 0.  1.
<mgrwt>
<rscale>  0 0.81474663E+02</rscale>
<asrwt>0</asrwt>
<pdfrwt beam="1">  1        2 0.26568942E-02 0.81474663E+02</pdfrwt>
<pdfrwt beam="2">  1       -1 0.14783735E-01 0.81474663E+02</pdfrwt>
<totfact> 0.11422891E+05</totfact>
</mgrwt>
</event>
<event>
 8    1  0.1627221E-013  0.7818449E+02  0.7818608E-02  0.1334284E+00
          2   -1    0    0  501    0  0.00000000000E+00  0.00000000000E+00  0.80585770898E+03  0.80585770899E+03  0.25500000000E-02 0. -1.
         -1   -1    0    0    0  501 -0.00000000000E+00 -0.00000000000E+00 -0.18963655171E+01  0.18963722145E+01  0.50400000000E-02 0.  1.
         24    2    1    2    0    0  0.17763568394E-14 -0.35527136788E-14  0.80396134347E+03  0.80775408120E+03  0.78184486379E+02 0.  0.
         66    2    3    3    0    0 -0.81505600081E+01  0.27012523677E+02  0.68139894723E+03  0.68198580142E+03  0.19999974129E+01 0.  0.
        -13    1    3    3    0    0  0.81505600081E+01 -0.27012523677E+02  0.12256239623E+03  0.12576827978E+03  0.10566000000E+00 0.  1.
         13    1    4    4    0    0 -0.39168334211E+01  0.11710044618E+02  0.30230394621E+03  0.30255603413E+03  0.10566000000E+00 0. -1.
        -13    1    4    4    0    0 -0.31354879016E+01  0.11056911536E+02  0.25951952667E+03  0.25977390644E+03  0.10566000000E+00 0.  1.
         14    1    4    4    0    0 -0.10982386854E+01  0.42455675234E+01  0.11957547435E+03  0.11965586085E+03  0.00000000000E+00 0. -1.
<mgrwt>
<rscale>  0 0.78184486E+02</rscale>
<asrwt>0</asrwt>
<pdfrwt beam="1">  1        2 0.12397814E+00 0.78184486E+02</pdfrwt>
<pdfrwt beam="2">  1       -1 0.29174899E-03 0.78184486E+02</pdfrwt>
<totfact> 0.36520064E+05</totfact>
</mgrwt>
</event>
<event>
 8    1  0.1627221E-013  0.7315114E+02  0.7818608E-02  0.1349694E+00
          2   -1    0    0  501    0  0.00000000000E+00  0.00000000000E+00  0.13473476399E+03  0.13473476401E+03  0.25500000000E-02 0. -1.
         -1   -1    0    0    0  501 -0.00000000000E+00 -0.00000000000E+00 -0.99289316859E+01  0.99289329651E+01  0.50400000000E-02 0.  1.
         24    2    1    2    0    0  0.00000000000E+00  0.00000000000E+00  0.12480583230E+03  0.14466369697E+03  0.73151141115E+02 0.  0.
         66    2    3    3    0    0 -0.16290913004E+02  0.30138549416E+02  0.37275469026E+02  0.50667411590E+02  0.19999996622E+01 0.  0.
        -13    1    3    3    0    0  0.16290913004E+02 -0.30138549416E+02  0.87530363273E+02  0.93996285385E+02  0.10566000000E+00 0.  1.
         13    1    4    4    0    0 -0.33095239694E+01  0.62582937259E+01  0.85616130735E+01  0.11109976225E+02  0.10566000000E+00 0.  1.
        -13    1    4    4    0    0 -0.78530077923E+01  0.14634418764E+02  0.18397957563E+02  0.24785720697E+02  0.10566000000E+00 0. -1.
        -14    1    4    4    0    0 -0.51283812423E+01  0.92458369262E+01  0.10315898390E+02  0.14771714668E+02  0.00000000000E+00 0.  1.
<mgrwt>
<rscale>  0 0.73151141E+02</rscale>
<asrwt>0</asrwt>
<pdfrwt beam="1">  1        2 0.20728425E-01 0.73151141E+02</pdfrwt>
<pdfrwt beam="2">  1       -1 0.15275281E-02 0.73151141E+02</pdfrwt>
<totfact> 0.24530239E+05</totfact>
</mgrwt>
</event>
<event>
 8    1  0.1627221E-013  0.7896395E+02  0.7818608E-02  0.1332018E+00
         -1   -1    0    0    0  501 -0.00000000000E+00  0.00000000000E+00  0.50310980780E+01  0.50311006025E+01  0.50400000000E-02 0.  1.
          2   -1    0    0  501    0  0.00000000000E+00 -0.00000000000E+00 -0.30983809384E+03  0.30983809385E+03  0.25500000000E-02 0. -1.
         24    2    1    2    0    0  0.00000000000E+00 -0.44408920985E-15 -0.30480699576E+03  0.31486919445E+03  0.78963947153E+02 0.  0.
         66    2    3    3    0    0 -0.24805430044E+02  0.28852992769E+01 -0.27431175504E+03  0.27545339581E+03  0.20000002650E+01 0.  0.
        -13    1    3    3    0    0  0.24805430044E+02 -0.28852992769E+01 -0.30495240722E+02  0.39415798638E+02  0.10566000000E+00 0.  1.
         13    1    4    4    0    0 -0.47228922132E+01  0.23301844374E+00 -0.47922232347E+02  0.48155077880E+02  0.10566000000E+00 0. -1.
        -13    1    4    4    0    0 -0.98678780862E+01  0.60511838747E+00 -0.11113984255E+03  0.11157874777E+03  0.10566000000E+00 0.  1.
         14    1    4    4    0    0 -0.10214659744E+02  0.20471624457E+01 -0.11524968014E+03  0.11571957017E+03  0.00000000000E+00 0. -1.
<mgrwt>
<rscale>  0 0.78963947E+02</rscale>
<asrwt>0</asrwt>
<pdfrwt beam="1">  1        2 0.47667384E-01 0.78963947E+02</pdfrwt>
<pdfrwt beam="2">  1       -1 0.77401553E-03 0.78963947E+02</pdfrwt>
<totfact> 0.26689637E+05</totfact>
</mgrwt>
</event>
<event>
 8    1  0.1627221E-013  0.7703222E+02  0.7818608E-02  0.1337691E+00
         -1   -1    0    0    0  501 -0.00000000000E+00  0.00000000000E+00  0.91999053085E+01  0.91999066891E+01  0.50400000000E-02 0.  1.
          2   -1    0    0  501    0  0.00000000000E+00 -0.00000000000E+00 -0.16125062233E+03  0.16125062235E+03  0.25500000000E-02 0. -1.
         24    2    1    2    0    0  0.22204460493E-15 -0.35527136788E-14 -0.15205071703E+03  0.17045052904E+03  0.77032216008E+02 0.  0.
         66    2    3    3    0    0 -0.10673605065E+01  0.27353147195E+02 -0.13594884120E+03  0.13869182175E+03  0.20000190686E+01 0.  0.
        -13    1    3    3    0    0  0.10673605065E+01 -0.27353147195E+02 -0.16101875825E+02  0.31758707295E+02  0.10566000000E+00 0.  1.
         13    1    4    4    0    0 -0.32721778900E+00  0.13315993425E+01 -0.69310754527E+01  0.70662011899E+01  0.10566000000E+00 0. -1.
        -13    1    4    4    0    0 -0.70564206017E+00  0.11957701902E+02 -0.56284722758E+02  0.57545336436E+02  0.10566000000E+00 0.  1.
         14    1    4    4    0    0 -0.34500657282E-01  0.14063845950E+02 -0.72733042989E+02  0.74080284122E+02  0.00000000000E+00 0. -1.
<mgrwt>
<rscale>  0 0.77032216E+02</rscale>
<asrwt>0</asrwt>
<pdfrwt beam="1">  1        2 0.24807786E-01 0.77032216E+02</pdfrwt>
<pdfrwt beam="2">  1       -1 0.14153703E-02 0.77032216E+02</pdfrwt>
<totfact> 0.22663118E+05</totfact>
</mgrwt>
</event>
<event>
 8    1  0.1627221E-013  0.8116019E+02  0.7818608E-02  0.1325791E+00
         -1   -1    0    0    0  501 -0.00000000000E+00  0.00000000000E+00  0.35882711239E+01  0.35882746635E+01  0.50400000000E-02 0.  1.
          2   -1    0    0  501    0  0.00000000000E+00 -0.00000000000E+00 -0.45892389916E+03  0.45892389916E+03  0.25500000000E-02 0. -1.
         24    2    1    2    0    0  0.35527136788E-14  0.00000000000E+00 -0.45533562803E+03  0.46251217383E+03  0.81160192105E+02 0.  0.
         66    2    3    3    0    0 -0.29713369901E+02  0.12792285077E+02 -0.36718802963E+03  0.36861575656E+03  0.19999921295E+01 0.  0.
        -13    1    3    3    0    0  0.29713369901E+02 -0.12792285077E+02 -0.88147598401E+02  0.93896417271E+02  0.10566000000E+00 0.  1.
         13    1    4    4    0    0 -0.10406486720E+02  0.52753721190E+01 -0.12946002583E+03  0.12998474513E+03  0.10566000000E+00 0.  1.
        -13    1    4    4    0    0 -0.12516942603E+02  0.43963927472E+01 -0.15288122973E+03  0.15345580370E+03  0.10566000000E+00 0. -1.
         14    1    4    4    0    0 -0.67899405779E+01  0.31205202110E+01 -0.84846774075E+02  0.85175207722E+02  0.00000000000E+00 0. -1.
<mgrwt>
<rscale>  0 0.81160192E+02</rscale>
<asrwt>0</asrwt>
<pdfrwt beam="1">  1        2 0.70603630E-01 0.81160192E+02</pdfrwt>
<pdfrwt beam="2">  1       -1 0.55204235E-03 0.81160192E+02</pdfrwt>
<totfact> 0.28519952E+05</totfact>
</mgrwt>
</event>
<event>
 8    1  0.1627221E-013  0.7968792E+02  0.7818608E-02  0.1329939E+00
         -1   -1    0    0    0  501 -0.00000000000E+00  0.00000000000E+00  0.12899949661E+02  0.12899950645E+02  0.50400000000E-02 0.  1.
          2   -1    0    0  501    0  0.00000000000E+00 -0.00000000000E+00 -0.12306567080E+03  0.12306567083E+03  0.25500000000E-02 0. -1.
         24    2    1    2    0    0  0.00000000000E+00  0.71054273576E-14 -0.11016572114E+03  0.13596562147E+03  0.79687916952E+02 0.  0.
         66    2    3    3    0    0 -0.11098845870E+02  0.34210392738E+02 -0.84273504904E+02  0.91649107884E+02  0.19999990604E+01 0.  0.
        -13    1    3    3    0    0  0.11098845870E+02 -0.34210392738E+02 -0.25892216237E+02  0.44316513589E+02  0.10566000000E+00 0.  1.
         13    1    4    4    0    0 -0.61628912305E+01  0.16367512800E+02 -0.40642281062E+02  0.44245710273E+02  0.10566000000E+00 0. -1.
        -13    1    4    4    0    0 -0.20421199298E+00  0.95570584042E+00 -0.19796745908E+01  0.22102831748E+01  0.10566000000E+00 0. -1.
        -14    1    4    4    0    0 -0.47317426469E+01  0.16887174098E+02 -0.41651549251E+02  0.45193114437E+02  0.00000000000E+00 0.  1.
<mgrwt>
<rscale>  0 0.79687917E+02</rscale>
<asrwt>0</asrwt>
<pdfrwt beam="1">  1        2 0.18933179E-01 0.79687917E+02</pdfrwt>
<pdfrwt beam="2">  1       -1 0.19846078E-02 0.79687917E+02</pdfrwt>
<totfact> 0.19025956E+05</totfact>
</mgrwt>
</event>
<event>
 8    1  0.1627221E-013  0.7958572E+02  0.7818608E-02  0.1330231E+00
         -1   -1    0    0    0  501 -0.00000000000E+00  0.00000000000E+00  0.21190756515E+01  0.21190816450E+01  0.50400000000E-02 0.  1.
          2   -1    0    0  501    0  0.00000000000E+00 -0.00000000000E+00 -0.74724527351E+03  0.74724527351E+03  0.25500000000E-02 0. -1.
         24    2    1    2    0    0  0.00000000000E+00  0.00000000000E+00 -0.74512619785E+03  0.74936435516E+03  0.79585715102E+02 0.  0.
         66    2    3    3    0    0  0.27612634015E+02  0.22104011368E+02 -0.54395374459E+03  0.54510615583E+03  0.19999981666E+01 0.  0.
        -13    1    3    3    0    0 -0.27612634015E+02 -0.22104011368E+02 -0.20117245326E+03  0.20425819932E+03  0.10566000000E+00 0.  1.
         13    1    4    4    0    0  0.72177132520E+01  0.67496581029E+01 -0.15206587435E+03  0.15238666140E+03  0.10566000000E+00 0.  1.
        -13    1    4    4    0    0  0.15211375424E+02  0.11699107966E+02 -0.28945521014E+03  0.29009064947E+03  0.10566000000E+00 0. -1.
         14    1    4    4    0    0  0.51835453392E+01  0.36552452992E+01 -0.10243266011E+03  0.10262884496E+03  0.00000000000E+00 0. -1.
<mgrwt>
<rscale>  0 0.79585715E+02</rscale>
<asrwt>0</asrwt>
<pdfrwt beam="1">  1        2 0.11496060E+00 0.79585715E+02</pdfrwt>
<pdfrwt beam="2">  1       -1 0.32601270E-03 0.79585715E+02</pdfrwt>
<totfact> 0.34388210E+05</totfact>
</mgrwt>
</event>
<event>
 8    1  0.1627221E-013  0.7994732E+02  0.7818608E-02  0.1329201E+00
          2   -1    0    0  501    0  0.00000000000E+00  0.00000000000E+00  0.60631594109E+02  0.60631594162E+02  0.25500000000E-02 0. -1.
         -1   -1    0    0    0  501 -0.00000000000E+00 -0.00000000000E+00 -0.26354138219E+02  0.26354138701E+02  0.50400000000E-02 0.  1.
         24    2    1    2    0    0  0.00000000000E+00 -0.17763568394E-14  0.34277455890E+02  0.86985732863E+02  0.79947318526E+02 0.  0.
         66    2    3    3    0    0  0.12112668384E+02  0.14561573761E+02  0.55418871965E+02  0.58600405606E+02  0.20000003658E+01 0.  0.
        -13    1    3    3    0    0 -0.12112668384E+02 -0.14561573761E+02 -0.21141416076E+02  0.28385327258E+02  0.10566000000E+00 0.  1.
         13    1    4    4    0    0  0.30482296754E+01  0.39028755332E+01  0.14000461075E+02  0.14850865831E+02  0.10566000000E+00 0. -1.
        -13    1    4    4    0    0  0.28154315342E+01  0.23439736135E+01  0.11950529969E+02  0.12499887903E+02  0.10566000000E+00 0.  1.
        -14    1    4    4    0    0  0.62490071745E+01  0.83147246147E+01  0.29467880921E+02  0.31249651871E+02  0.00000000000E+00 0.  1.
<mgrwt>
<rscale>  0 0.79947319E+02</rscale>
<asrwt>0</asrwt>
<pdfrwt beam="1">  1        2 0.93279374E-02 0.79947319E+02</pdfrwt>
<pdfrwt beam="2">  1       -1 0.40544829E-02 0.79947319E+02</pdfrwt>
<totfact> 0.15631934E+05</totfact>
</mgrwt>
</event>
<event>
 8    1  0.1627221E-013  0.8000514E+02  0.7818608E-02  0.1329037E+00
          2   -1    0    0  501    0  0.00000000000E+00  0.00000000000E+00  0.58527259884E+02  0.58527259940E+02  0.25500000000E-02 0. -1.
         -1   -1    0    0    0  501 -0.00000000000E+00 -0.00000000000E+00 -0.27341200570E+02  0.27341201035E+02  0.50400000000E-02 0.  1.
         24    2    1    2    0    0 -0.35527136788E-14  0.00000000000E+00  0.31186059314E+02  0.85868460974E+02  0.80005139176E+02 0.  0.
         66    2    3    3    0    0  0.28344824729E+02  0.18346838516E+02  0.38576225893E+02  0.51304588238E+02  0.19999994177E+01 0.  0.
        -13    1    3    3    0    0 -0.28344824729E+02 -0.18346838516E+02 -0.73901665791E+01  0.34563872736E+02  0.10566000000E+00 0.  1.
         13    1    4    4    0    0  0.14223553243E+02  0.89458773688E+01  0.17859600117E+02  0.24521718316E+02  0.10566000000E+00 0.  1.
        -13    1    4    4    0    0  0.70945518312E+01  0.43909569525E+01  0.10312764254E+02  0.13265648844E+02  0.10566000000E+00 0. -1.
        -14    1    4    4    0    0  0.70267196545E+01  0.50100041946E+01  0.10403861522E+02  0.13517221079E+02  0.00000000000E+00 0.  1.
<mgrwt>
<rscale>  0 0.80005139E+02</rscale>
<asrwt>0</asrwt>
<pdfrwt beam="1">  1        2 0.90041937E-02 0.80005139E+02</pdfrwt>
<pdfrwt beam="2">  1       -1 0.42063386E-02 0.80005139E+02</pdfrwt>
<totfact> 0.15474784E+05</totfact>
</mgrwt>
</event>
<event>
 8    1  0.1627221E-013  0.7904919E+02  0.7818608E-02  0.1331772E+00
          2   -1    0    0  501    0  0.00000000000E+00  0.00000000000E+00  0.75733476847E+03  0.75733476847E+03  0.25500000000E-02 0. -1.
         -1   -1    0    0    0  501 -0.00000000000E+00 -0.00000000000E+00 -0.20627486100E+01  0.20627547672E+01  0.50400000000E-02 0.  1.
         24    2    1    2    0    0  0.00000000000E+00  0.00000000000E+00  0.75527201986E+03  0.75939752324E+03  0.79049189256E+02 0.  0.
         66    2    3    3    0    0  0.31327864739E+02  0.77237034230E+00  0.60886784569E+03  0.60967703351E+03  0.20000043739E+01 0.  0.
        -13    1    3    3    0    0 -0.31327864739E+02 -0.77237034230E+00  0.14640417417E+03  0.14972048973E+03  0.10566000000E+00 0.  1.
         13    1    4    4    0    0  0.61923058736E+01 -0.36619718668E-01  0.13156342193E+03  0.13170911565E+03  0.10566000000E+00 0.  1.
        -13    1    4    4    0    0  0.19324870746E+02  0.13252892991E+00  0.36561262364E+03  0.36612302567E+03  0.10566000000E+00 0. -1.
        -14    1    4    4    0    0  0.58106881189E+01  0.67646113106E+00  0.11169180012E+03  0.11184489219E+03  0.00000000000E+00 0.  1.
<mgrwt>
<rscale>  0 0.79049189E+02</rscale>
<asrwt>0</asrwt>
<pdfrwt beam="1">  1        2 0.11651301E+00 0.79049189E+02</pdfrwt>
<pdfrwt beam="2">  1       -1 0.31734649E-03 0.79049189E+02</pdfrwt>
<totfact> 0.35091556E+05</totfact>
</mgrwt>
</event>
<event>
 8    1  0.1627221E-013  0.7906687E+02  0.7818608E-02  0.1331721E+00
          2   -1    0    0  501    0  0.00000000000E+00  0.00000000000E+00  0.22106931774E+03  0.22106931776E+03  0.25500000000E-02 0. -1.
         -1   -1    0    0    0  501 -0.00000000000E+00 -0.00000000000E+00 -0.70696935844E+01  0.70696953810E+01  0.50400000000E-02 0.  1.
         24    2    1    2    0    0  0.35527136788E-14  0.71054273576E-14  0.21399962416E+03  0.22813901314E+03  0.79066871545E+02 0.  0.
         66    2    3    3    0    0 -0.26441217505E+02 -0.22705175196E+02  0.16075691932E+03  0.16450364761E+03  0.20000006638E+01 0.  0.
        -13    1    3    3    0    0  0.26441217505E+02  0.22705175196E+02  0.53242704837E+02  0.63635365531E+02  0.10566000000E+00 0.  1.
         13    1    4    4    0    0 -0.48504529022E+01 -0.46049404838E+01  0.28137268345E+02  0.28921435030E+02  0.10566000000E+00 0. -1.
        -13    1    4    4    0    0 -0.10229980506E+02 -0.80516332276E+01  0.62054834118E+02  0.63405795478E+02  0.10566000000E+00 0.  1.
        -14    1    4    4    0    0 -0.11360784097E+02 -0.10048601485E+02  0.70564816860E+02  0.72176417101E+02  0.00000000000E+00 0.  1.
<mgrwt>
<rscale>  0 0.79066872E+02</rscale>
<asrwt>0</asrwt>
<pdfrwt beam="1">  1        2 0.34010656E-01 0.79066872E+02</pdfrwt>
<pdfrwt beam="2">  1       -1 0.10876456E-02 0.79066872E+02</pdfrwt>
<totfact> 0.23562962E+05</totfact>
</mgrwt>
</event>
<event>
 8    1  0.1627221E-013  0.8019783E+02  0.7818608E-02  0.1328491E+00
          2   -1    0    0  501    0  0.00000000000E+00  0.00000000000E+00  0.50076367589E+03  0.50076367589E+03  0.25500000000E-02 0. -1.
         -1   -1    0    0    0  501 -0.00000000000E+00 -0.00000000000E+00 -0.32109396964E+01  0.32109436519E+01  0.50400000000E-02 0.  1.
         24    2    1    2    0    0  0.00000000000E+00 -0.17763568394E-14  0.49755273619E+03  0.50397461955E+03  0.80197829492E+02 0.  0.
         66    2    3    3    0    0  0.32744320484E+02  0.10201478929E+02  0.37918948017E+03  0.38074259353E+03  0.19999898464E+01 0.  0.
        -13    1    3    3    0    0 -0.32744320484E+02 -0.10201478929E+02  0.11836325602E+03  0.12323202602E+03  0.10566000000E+00 0.  1.
         13    1    4    4    0    0  0.22916376009E+02  0.70841109988E+01  0.26425302094E+03  0.26533943386E+03  0.10566000000E+00 0. -1.
        -13    1    4    4    0    0  0.37150354250E+01  0.95975032806E+00  0.37560338754E+02  0.37755964035E+02  0.10566000000E+00 0.  1.
         14    1    4    4    0    0  0.61129090499E+01  0.21576176025E+01  0.77376120471E+02  0.77647195635E+02  0.00000000000E+00 0. -1.
<mgrwt>
<rscale>  0 0.80197829E+02</rscale>
<asrwt>0</asrwt>
<pdfrwt beam="1">  1        2 0.77040598E-01 0.80197829E+02</pdfrwt>
<pdfrwt beam="2">  1       -1 0.49399082E-03 0.80197829E+02</pdfrwt>
<totfact> 0.30270652E+05</totfact>
</mgrwt>
</event>
<event>
 8    1  0.1627221E-013  0.7911127E+02  0.7818608E-02  0.1331593E+00
         -1   -1    0    0    0  501 -0.00000000000E+00  0.00000000000E+00  0.10706191034E+02  0.10706192220E+02  0.50400000000E-02 0.  1.
          2   -1    0    0  501    0  0.00000000000E+00 -0.00000000000E+00 -0.14614425787E+03  0.14614425790E+03  0.25500000000E-02 0. -1.
         24    2    1    2    0    0  0.00000000000E+00  0.00000000000E+00 -0.13543806684E+03  0.15685045012E+03  0.79111274494E+02 0.  0.
         66    2    3    3    0    0  0.24500659327E+01 -0.18409088525E+02 -0.13694939518E+03  0.13821734407E+03  0.19999999102E+01 0.  0.
        -13    1    3    3    0    0 -0.24500659327E+01  0.18409088525E+02  0.15113283382E+01  0.18633106042E+02  0.10566000000E+00 0.  1.
         13    1    4    4    0    0  0.20306761422E+01 -0.12779013157E+02 -0.98827453963E+02  0.99670976938E+02  0.10566000000E+00 0. -1.
        -13    1    4    4    0    0  0.88673390546E-01 -0.21917182378E+01 -0.17479720203E+02  0.17617130136E+02  0.10566000000E+00 0.  1.
        -14    1    4    4    0    0  0.33071639999E+00 -0.34383571306E+01 -0.20642221012E+02  0.20929237000E+02  0.00000000000E+00 0.  1.
<mgrwt>
<rscale>  0 0.79111274E+02</rscale>
<asrwt>0</asrwt>
<pdfrwt beam="1">  1        2 0.22483731E-01 0.79111274E+02</pdfrwt>
<pdfrwt beam="2">  1       -1 0.16471065E-02 0.79111274E+02</pdfrwt>
<totfact> 0.20460861E+05</totfact>
</mgrwt>
</event>
<event>
 8    1  0.1627221E-013  0.8043428E+02  0.7818608E-02  0.1327824E+00
          2   -1    0    0  501    0  0.00000000000E+00  0.00000000000E+00  0.91625830642E+02  0.91625830677E+02  0.25500000000E-02 0. -1.
         -1   -1    0    0    0  501 -0.00000000000E+00 -0.00000000000E+00 -0.17652426798E+02  0.17652427518E+02  0.50400000000E-02 0.  1.
         24    2    1    2    0    0  0.00000000000E+00  0.17763568394E-14  0.73973403844E+02  0.10927825819E+03  0.80434278998E+02 0.  0.
         66    2    3    3    0    0  0.35009104661E+02  0.14610403112E+02  0.55049383776E+02  0.66884497005E+02  0.19999992896E+01 0.  0.
        -13    1    3    3    0    0 -0.35009104661E+02 -0.14610403112E+02  0.18924020068E+02  0.42393761190E+02  0.10566000000E+00 0.  1.
         13    1    4    4    0    0  0.24189031315E+00  0.22163707521E+00  0.42312401564E+00  0.54573975933E+00  0.10566000000E+00 0. -1.
        -13    1    4    4    0    0  0.13429837856E+02  0.50827726657E+01  0.20499482762E+02  0.25028685150E+02  0.10566000000E+00 0.  1.
         14    1    4    4    0    0  0.21337376492E+02  0.93059933714E+01  0.34126776999E+02  0.41310072095E+02  0.00000000000E+00 0. -1.
<mgrwt>
<rscale>  0 0.80434279E+02</rscale>
<asrwt>0</asrwt>
<pdfrwt beam="1">  1        2 0.14096281E-01 0.80434279E+02</pdfrwt>
<pdfrwt beam="2">  1       -1 0.27157581E-02 0.80434279E+02</pdfrwt>
<totfact> 0.17054313E+05</totfact>
</mgrwt>
</event>
<event>
 8    1  0.1627221E-013  0.8026373E+02  0.7818608E-02  0.1328305E+00
         -1   -1    0    0    0  501 -0.00000000000E+00  0.00000000000E+00  0.19268760598E+02  0.19268761257E+02  0.50400000000E-02 0.  1.
          2   -1    0    0  501    0  0.00000000000E+00 -0.00000000000E+00 -0.83584336442E+02  0.83584336481E+02  0.25500000000E-02 0. -1.
         24    2    1    2    0    0  0.00000000000E+00  0.35527136788E-14 -0.64315575844E+02  0.10285309774E+03  0.80263730404E+02 0.  0.
         66    2    3    3    0    0  0.25597224470E+02 -0.22206680466E+02 -0.46877023284E+01  0.34268485602E+02  0.19999986217E+01 0.  0.
        -13    1    3    3    0    0 -0.25597224470E+02  0.22206680466E+02 -0.59627873516E+02  0.68584612136E+02  0.10566000000E+00 0.  1.
         13    1    4    4    0    0  0.83417234309E+01 -0.79566065211E+01 -0.20711256624E+01  0.11712927161E+02  0.10566000000E+00 0. -1.
        -13    1    4    4    0    0  0.65563230199E+01 -0.47858187470E+01 -0.10475780536E+01  0.81852316054E+01  0.10566000000E+00 0.  1.
         14    1    4    4    0    0  0.10699178019E+02 -0.94642551977E+01 -0.15689986125E+01  0.14370326836E+02  0.00000000000E+00 0. -1.
<mgrwt>
<rscale>  0 0.80263730E+02</rscale>
<asrwt>0</asrwt>
<pdfrwt beam="1">  1        2 0.12859129E-01 0.80263730E+02</pdfrwt>
<pdfrwt beam="2">  1       -1 0.29644248E-02 0.80263730E+02</pdfrwt>
<totfact> 0.16737287E+05</totfact>
</mgrwt>
</event>
<event>
 8    1  0.1627221E-013  0.7906803E+02  0.7818608E-02  0.1331717E+00
          2   -1    0    0  501    0  0.00000000000E+00  0.00000000000E+00  0.76517669665E+02  0.76517669707E+02  0.25500000000E-02 0. -1.
         -1   -1    0    0    0  501 -0.00000000000E+00 -0.00000000000E+00 -0.20425849743E+02  0.20425850364E+02  0.50400000000E-02 0.  1.
         24    2    1    2    0    0  0.00000000000E+00  0.35527136788E-14  0.56091819922E+02  0.96943520072E+02  0.79068032869E+02 0.  0.
         66    2    3    3    0    0  0.23364597917E+02  0.19064079838E+02  0.59360972061E+02  0.66611324377E+02  0.19999888231E+01 0.  0.
        -13    1    3    3    0    0 -0.23364597917E+02 -0.19064079838E+02 -0.32691521395E+01  0.30332195694E+02  0.10566000000E+00 0.  1.
         13    1    4    4    0    0  0.10945524952E+02  0.96235954241E+01  0.29218123024E+02  0.32651615311E+02  0.10566000000E+00 0. -1.
        -13    1    4    4    0    0  0.92221248402E+01  0.64801581989E+01  0.21103055566E+02  0.23924676698E+02  0.10566000000E+00 0.  1.
        -14    1    4    4    0    0  0.31969481252E+01  0.29603262150E+01  0.90397934718E+01  0.10035032368E+02  0.00000000000E+00 0.  1.
<mgrwt>
<rscale>  0 0.79068033E+02</rscale>
<asrwt>0</asrwt>
<pdfrwt beam="1">  1        2 0.11771949E-01 0.79068033E+02</pdfrwt>
<pdfrwt beam="2">  1       -1 0.31424384E-02 0.79068033E+02</pdfrwt>
<totfact> 0.17037578E+05</totfact>
</mgrwt>
</event>
<event>
 8    1  0.1627221E-013  0.8035419E+02  0.7818608E-02  0.1328049E+00
          2   -1    0    0  501    0  0.00000000000E+00  0.00000000000E+00  0.15439762807E+03  0.15439762810E+03  0.25500000000E-02 0. -1.
         -1   -1    0    0    0  501 -0.00000000000E+00 -0.00000000000E+00 -0.10454815299E+02  0.10454816514E+02  0.50400000000E-02 0.  1.
         24    2    1    2    0    0  0.00000000000E+00  0.00000000000E+00  0.14394281278E+03  0.16485244461E+03  0.80354185602E+02 0.  0.
         66    2    3    3    0    0  0.38060996054E+02 -0.87225106248E+01  0.91203524702E+02  0.99231066364E+02  0.20000003778E+01 0.  0.
        -13    1    3    3    0    0 -0.38060996054E+02  0.87225106248E+01  0.52739288074E+02  0.65621378245E+02  0.10566000000E+00 0.  1.
         13    1    4    4    0    0  0.17580490302E+02 -0.45321232646E+01  0.44091613384E+02  0.47683281299E+02  0.10566000000E+00 0. -1.
        -13    1    4    4    0    0  0.36517840401E+00 -0.60116480890E-01  0.87851761393E+00  0.95912798500E+00  0.10566000000E+00 0. -1.
        -14    1    4    4    0    0  0.20115327348E+02 -0.41302708794E+01  0.46233393704E+02  0.50588657081E+02  0.00000000000E+00 0.  1.
<mgrwt>
<rscale>  0 0.80354186E+02</rscale>
<asrwt>0</asrwt>
<pdfrwt beam="1">  1        2 0.23753482E-01 0.80354186E+02</pdfrwt>
<pdfrwt beam="2">  1       -1 0.16084332E-02 0.80354186E+02</pdfrwt>
<totfact> 0.19982640E+05</totfact>
</mgrwt>
</event>
<event>
 8    1  0.1627221E-013  0.8132882E+02  0.7818608E-02  0.1325322E+00
         -1   -1    0    0    0  501 -0.00000000000E+00  0.00000000000E+00  0.39849399145E+02  0.39849399463E+02  0.50400000000E-02 0.  1.
          2   -1    0    0  501    0  0.00000000000E+00 -0.00000000000E+00 -0.41496086667E+02  0.41496086746E+02  0.25500000000E-02 0. -1.
         24    2    1    2    0    0 -0.35527136788E-14  0.00000000000E+00 -0.16466875225E+01  0.81345486209E+02  0.81328817444E+02 0.  0.
         66    2    3    3    0    0  0.19037587251E+02  0.32344756657E+02 -0.16414727038E+02  0.41012879466E+02  0.20000017236E+01 0.  0.
        -13    1    3    3    0    0 -0.19037587251E+02 -0.32344756657E+02  0.14768039515E+02  0.40332606743E+02  0.10566000000E+00 0.  1.
         13    1    4    4    0    0  0.91257388199E+01  0.14620337522E+02 -0.74842889394E+01  0.18789867568E+02  0.10566000000E+00 0. -1.
        -13    1    4    4    0    0  0.96296900432E+01  0.17380426552E+02 -0.85271548594E+01  0.21622527408E+02  0.10566000000E+00 0.  1.
        -14    1    4    4    0    0  0.28215838749E+00  0.34399258228E+00 -0.40328323897E+00  0.60048449033E+00  0.00000000000E+00 0.  1.
<mgrwt>
<rscale>  0 0.81328817E+02</rscale>
<asrwt>0</asrwt>
<pdfrwt beam="1">  1        2 0.63840133E-02 0.81328817E+02</pdfrwt>
<pdfrwt beam="2">  1       -1 0.61306769E-02 0.81328817E+02</pdfrwt>
<totfact> 0.13724411E+05</totfact>
</mgrwt>
</event>
<event>
 8    1  0.1627221E-013  0.8470198E+02  0.7818608E-02  0.1316214E+00
          2   -1    0    0  501    0  0.00000000000E+00  0.00000000000E+00  0.26243836790E+02  0.26243836914E+02  0.25500000000E-02 0. -1.
         -1   -1    0    0    0  501 -0.00000000000E+00 -0.00000000000E+00 -0.68343905888E+02  0.68343906074E+02  0.50400000000E-02 0.  1.
         24    2    1    2    0    0  0.00000000000E+00  0.00000000000E+00 -0.42100069098E+02  0.94587742988E+02  0.84701979349E+02 0.  0.
         66    2    3    3    0    0 -0.24760018718E+02  0.55601880976E+01  0.16768728593E+02  0.30482199358E+02  0.20000001145E+01 0.  0.
        -13    1    3    3    0    0  0.24760018718E+02 -0.55601880976E+01 -0.58868797690E+02  0.64105543631E+02  0.10566000000E+00 0.  1.
         13    1    4    4    0    0 -0.16437189655E+02  0.37386781409E+01  0.10317594427E+02  0.19764180650E+02  0.10566000000E+00 0. -1.
        -13    1    4    4    0    0 -0.39019930436E+01  0.44389183133E+00  0.29440287291E+01  0.49092829276E+01  0.10566000000E+00 0.  1.
         14    1    4    4    0    0 -0.44208360202E+01  0.13776181253E+01  0.35071054367E+01  0.58087357799E+01  0.00000000000E+00 0. -1.
<mgrwt>
<rscale>  0 0.84701979E+02</rscale>
<asrwt>0</asrwt>
<pdfrwt beam="1">  1        2 0.40375134E-02 0.84701979E+02</pdfrwt>
<pdfrwt beam="2">  1       -1 0.10514447E-01 0.84701979E+02</pdfrwt>
<totfact> 0.11143960E+05</totfact>
</mgrwt>
</event>
<event>
 8    1  0.1627221E-013  0.8033327E+02  0.7818608E-02  0.1328108E+00
          2   -1    0    0  501    0  0.00000000000E+00  0.00000000000E+00  0.50075809291E+03  0.50075809292E+03  0.25500000000E-02 0. -1.
         -1   -1    0    0    0  501 -0.00000000000E+00 -0.00000000000E+00 -0.32218305562E+01  0.32218344983E+01  0.50400000000E-02 0.  1.
         24    2    1    2    0    0 -0.44408920985E-15  0.35527136788E-14  0.49753626236E+03  0.50397992742E+03  0.80333273804E+02 0.  0.
         66    2    3    3    0    0 -0.20464701727E+01  0.26016717503E+02  0.44027185574E+03  0.44104916341E+03  0.19999887651E+01 0.  0.
        -13    1    3    3    0    0  0.20464701727E+01 -0.26016717503E+02  0.57264406617E+02  0.62930764011E+02  0.10566000000E+00 0.  1.
         13    1    4    4    0    0 -0.39785085014E+00  0.66352269440E+01  0.10316791806E+03  0.10338188915E+03  0.10566000000E+00 0.  1.
        -13    1    4    4    0    0 -0.12461190182E+01  0.14423811018E+02  0.24053411654E+03  0.24096944105E+03  0.10566000000E+00 0. -1.
        -14    1    4    4    0    0 -0.40250030438E+00  0.49576795415E+01  0.96569821137E+02  0.96697833209E+02  0.00000000000E+00 0.  1.
<mgrwt>
<rscale>  0 0.80333274E+02</rscale>
<asrwt>0</asrwt>
<pdfrwt beam="1">  1        2 0.77039772E-01 0.80333274E+02</pdfrwt>
<pdfrwt beam="2">  1       -1 0.49566612E-03 0.80333274E+02</pdfrwt>
<totfact> 0.30137673E+05</totfact>
</mgrwt>
</event>
<event>
 8    1  0.1627221E-013  0.8019491E+02  0.7818608E-02  0.1328499E+00
          2   -1    0    0  501    0  0.00000000000E+00  0.00000000000E+00  0.54629782350E+01  0.54629788302E+01  0.25500000000E-02 0. -1.
         -1   -1    0    0    0  501 -0.00000000000E+00 -0.00000000000E+00 -0.29430939121E+03  0.29430939125E+03  0.50400000000E-02 0.  1.
         24    2    1    2    0    0  0.00000000000E+00  0.71054273576E-14 -0.28884641298E+03  0.29977237008E+03  0.80194909919E+02 0.  0.
         66    2    3    3    0    0 -0.94867008369E+01  0.37650594428E+02 -0.10746343768E+03  0.11428016096E+03  0.19999995158E+01 0.  0.
        -13    1    3    3    0    0  0.94867008369E+01 -0.37650594428E+02 -0.18138297530E+03  0.18549220913E+03  0.10566000000E+00 0.  1.
         13    1    4    4    0    0 -0.19192486597E+01  0.77264684472E+01 -0.21969099753E+02  0.23367377647E+02  0.10566000000E+00 0. -1.
        -13    1    4    4    0    0 -0.19945770911E+01  0.52175222403E+01 -0.14987327409E+02  0.15994749858E+02  0.10566000000E+00 0.  1.
         14    1    4    4    0    0 -0.55728750861E+01  0.24706603741E+02 -0.70507010513E+02  0.74918033454E+02  0.00000000000E+00 0. -1.
<mgrwt>
<rscale>  0 0.80194910E+02</rscale>
<asrwt>0</asrwt>
<pdfrwt beam="1">  1        2 0.84045847E-03 0.80194910E+02</pdfrwt>
<pdfrwt beam="2">  1       -1 0.45278356E-01 0.80194910E+02</pdfrwt>
<totfact> 0.86559642E+04</totfact>
</mgrwt>
</event>
<event>
 8    1  0.1627221E-013  0.7277871E+02  0.7818608E-02  0.1350891E+00
          2   -1    0    0  501    0  0.00000000000E+00  0.00000000000E+00  0.22378194548E+03  0.22378194549E+03  0.25500000000E-02 0. -1.
         -1   -1    0    0    0  501 -0.00000000000E+00 -0.00000000000E+00 -0.59172996657E+01  0.59173018121E+01  0.50400000000E-02 0.  1.
         24    2    1    2    0    0  0.00000000000E+00  0.00000000000E+00  0.21786464581E+03  0.22969924730E+03  0.72778707857E+02 0.  0.
         66    2    3    3    0    0  0.21139947074E+02  0.10254051862E+02  0.19660128866E+03  0.19801037760E+03  0.19999977588E+01 0.  0.
        -13    1    3    3    0    0 -0.21139947074E+02 -0.10254051862E+02  0.21263357147E+02  0.31688869704E+02  0.10566000000E+00 0.  1.
         13    1    4    4    0    0  0.97335922570E+01  0.47187612271E+01  0.88274162223E+02  0.88934517517E+02  0.10566000000E+00 0. -1.
        -13    1    4    4    0    0  0.11407027478E+02  0.55415326715E+01  0.10832935775E+03  0.10906919718E+03  0.10566000000E+00 0.  1.
        -14    1    4    4    0    0 -0.67266091291E-03 -0.62420367613E-02 -0.22313068629E-02  0.66628992150E-02  0.00000000000E+00 0.  1.
<mgrwt>
<rscale>  0 0.72778708E+02</rscale>
<asrwt>0</asrwt>
<pdfrwt beam="1">  1        2 0.34427996E-01 0.72778708E+02</pdfrwt>
<pdfrwt beam="2">  1       -1 0.91035384E-03 0.72778708E+02</pdfrwt>
<totfact> 0.29397097E+05</totfact>
</mgrwt>
</event>
<event>
 8    1  0.1627221E-013  0.7958279E+02  0.7818608E-02  0.1330240E+00
         -1   -1    0    0    0  501 -0.00000000000E+00  0.00000000000E+00  0.12779004825E+02  0.12779005819E+02  0.50400000000E-02 0.  1.
          2   -1    0    0  501    0  0.00000000000E+00 -0.00000000000E+00 -0.12390282905E+03  0.12390282907E+03  0.25500000000E-02 0. -1.
         24    2    1    2    0    0  0.00000000000E+00  0.00000000000E+00 -0.11112382422E+03  0.13668183489E+03  0.79582785073E+02 0.  0.
         66    2    3    3    0    0  0.38003113459E+02 -0.97886979045E+01 -0.44560213999E+02  0.59411008514E+02  0.20000054616E+01 0.  0.
        -13    1    3    3    0    0 -0.38003113459E+02  0.97886979045E+01 -0.66563610223E+02  0.77270826378E+02  0.10566000000E+00 0.  1.
         13    1    4    4    0    0  0.56068653459E+01 -0.18549639679E+01 -0.72412704909E+01  0.93447842504E+01  0.10566000000E+00 0. -1.
        -13    1    4    4    0    0  0.44952162156E+01 -0.14119676843E+01 -0.48641280733E+01  0.67728522438E+01  0.10566000000E+00 0.  1.
         14    1    4    4    0    0  0.27901031897E+02 -0.65217662523E+01 -0.32454815435E+02  0.43293372020E+02  0.00000000000E+00 0. -1.
<mgrwt>
<rscale>  0 0.79582785E+02</rscale>
<asrwt>0</asrwt>
<pdfrwt beam="1">  1        2 0.19061973E-01 0.79582785E+02</pdfrwt>
<pdfrwt beam="2">  1       -1 0.19660009E-02 0.79582785E+02</pdfrwt>
<totfact> 0.19132160E+05</totfact>
</mgrwt>
</event>
<event>
 8    1  0.1627221E-013  0.7827159E+02  0.7818608E-02  0.1334029E+00
          2   -1    0    0  501    0  0.00000000000E+00  0.00000000000E+00  0.20285292865E+03  0.20285292866E+03  0.25500000000E-02 0. -1.
         -1   -1    0    0    0  501 -0.00000000000E+00 -0.00000000000E+00 -0.75503491771E+01  0.75503508593E+01  0.50400000000E-02 0.  1.
         24    2    1    2    0    0  0.00000000000E+00  0.00000000000E+00  0.19530257947E+03  0.21040327952E+03  0.78271594376E+02 0.  0.
         66    2    3    3    0    0  0.76685106221E+01  0.29139001942E+02  0.16474114882E+03  0.16748592060E+03  0.19999989320E+01 0.  0.
        -13    1    3    3    0    0 -0.76685106221E+01 -0.29139001942E+02  0.30561430648E+02  0.42917358919E+02  0.10566000000E+00 0.  1.
         13    1    4    4    0    0  0.15019592960E+00  0.14417745469E+01  0.87252565178E+01  0.88454812191E+01  0.10566000000E+00 0.  1.
        -13    1    4    4    0    0  0.42691105520E+00  0.11543269446E+01  0.54214709531E+01  0.55604168077E+01  0.10566000000E+00 0. -1.
         14    1    4    4    0    0  0.70914036373E+01  0.26542900450E+02  0.15059442135E+03  0.15308002258E+03  0.00000000000E+00 0. -1.
<mgrwt>
<rscale>  0 0.78271594E+02</rscale>
<asrwt>0</asrwt>
<pdfrwt beam="1">  1        2 0.31208138E-01 0.78271594E+02</pdfrwt>
<pdfrwt beam="2">  1       -1 0.11615925E-02 0.78271594E+02</pdfrwt>
<totfact> 0.23480732E+05</totfact>
</mgrwt>
</event>
<event>
 8    1  0.1627221E-013  0.8124180E+02  0.7818608E-02  0.1325564E+00
          2   -1    0    0  501    0  0.00000000000E+00  0.00000000000E+00  0.78669165867E+01  0.78669170000E+01  0.25500000000E-02 0. -1.
         -1   -1    0    0    0  501 -0.00000000000E+00 -0.00000000000E+00 -0.20974640594E+03  0.20974640600E+03  0.50400000000E-02 0.  1.
         24    2    1    2    0    0  0.17763568394E-14 -0.35527136788E-14 -0.20187948936E+03  0.21761332300E+03  0.81241800361E+02 0.  0.
         66    2    3    3    0    0  0.15344599564E+02 -0.28545555731E+02 -0.35512303941E+02  0.48118907064E+02  0.19999995142E+01 0.  0.
        -13    1    3    3    0    0 -0.15344599564E+02  0.28545555731E+02 -0.16636718541E+03  0.16949441594E+03  0.10566000000E+00 0.  1.
         13    1    4    4    0    0  0.21059796527E+01 -0.32451759450E+01 -0.45290039306E+01  0.59572945077E+01  0.10566000000E+00 0. -1.
        -13    1    4    4    0    0  0.10258065391E+02 -0.20822055806E+02 -0.24919698149E+02  0.34055666686E+02  0.10566000000E+00 0.  1.
        -14    1    4    4    0    0  0.29805545202E+01 -0.44783239797E+01 -0.60636018618E+01  0.81059458703E+01  0.00000000000E+00 0.  1.
<mgrwt>
<rscale>  0 0.81241800E+02</rscale>
<asrwt>0</asrwt>
<pdfrwt beam="1">  1        2 0.12102951E-02 0.81241800E+02</pdfrwt>
<pdfrwt beam="2">  1       -1 0.32268674E-01 0.81241800E+02</pdfrwt>
<totfact> 0.94379170E+04</totfact>
</mgrwt>
</event>
<event>
 8    1  0.1627221E-013  0.8230182E+02  0.7818608E-02  0.1322643E+00
         -1   -1    0    0    0  501 -0.00000000000E+00  0.00000000000E+00  0.38386213096E+01  0.38386246183E+01  0.50400000000E-02 0.  1.
          2   -1    0    0  501    0  0.00000000000E+00 -0.00000000000E+00 -0.44114715259E+03  0.44114715260E+03  0.25500000000E-02 0. -1.
         24    2    1    2    0    0  0.00000000000E+00  0.00000000000E+00 -0.43730853128E+03  0.44498577722E+03  0.82301824971E+02 0.  0.
         66    2    3    3    0    0 -0.27248163716E+02 -0.27853841683E+02 -0.28991703379E+03  0.29253065720E+03  0.19999995415E+01 0.  0.
        -13    1    3    3    0    0  0.27248163716E+02  0.27853841683E+02 -0.14739149750E+03  0.15245512002E+03  0.10566000000E+00 0.  1.
         13    1    4    4    0    0 -0.13084273483E+02 -0.13114570593E+02 -0.13886674715E+03  0.14009701925E+03  0.10566000000E+00 0. -1.
        -13    1    4    4    0    0 -0.10273138475E+02 -0.10623412116E+02 -0.10440849356E+03  0.10544922452E+03  0.10566000000E+00 0.  1.
         14    1    4    4    0    0 -0.38907517580E+01 -0.41158589736E+01 -0.46641793076E+02  0.46984413433E+02  0.00000000000E+00 0. -1.
<mgrwt>
<rscale>  0 0.82301825E+02</rscale>
<asrwt>0</asrwt>
<pdfrwt beam="1">  1        2 0.67868753E-01 0.82301825E+02</pdfrwt>
<pdfrwt beam="2">  1       -1 0.59055773E-03 0.82301825E+02</pdfrwt>
<totfact> 0.27134432E+05</totfact>
</mgrwt>
</event>
<event>
 8    1  0.1627221E-013  0.7926496E+02  0.7818608E-02  0.1331150E+00
          2   -1    0    0  501    0  0.00000000000E+00  0.00000000000E+00  0.92494863493E+03  0.92494863494E+03  0.25500000000E-02 0. -1.
         -1   -1    0    0    0  501 -0.00000000000E+00 -0.00000000000E+00 -0.16981807168E+01  0.16981881958E+01  0.50400000000E-02 0.  1.
         24    2    1    2    0    0  0.35527136788E-14  0.00000000000E+00  0.92325045422E+03  0.92664682313E+03  0.79264958278E+02 0.  0.
         66    2    3    3    0    0 -0.24628623190E+02  0.10024354216E+02  0.80508403530E+03  0.80552551831E+03  0.20000001213E+01 0.  0.
        -13    1    3    3    0    0  0.24628623190E+02 -0.10024354216E+02  0.11816641892E+03  0.12112130482E+03  0.10566000000E+00 0.  1.
         13    1    4    4    0    0 -0.10259072372E+02  0.46124526578E+01  0.35254999226E+03  0.35272940265E+03  0.10566000000E+00 0. -1.
        -13    1    4    4    0    0 -0.16939327245E+01  0.66434796267E+00  0.65967123801E+02  0.65992297679E+02  0.10566000000E+00 0.  1.
        -14    1    4    4    0    0 -0.12675618093E+02  0.47475535956E+01  0.38656691923E+03  0.38680381798E+03  0.00000000000E+00 0.  1.
<mgrwt>
<rscale>  0 0.79264958E+02</rscale>
<asrwt>0</asrwt>
<pdfrwt beam="1">  1        2 0.14230023E+00 0.79264958E+02</pdfrwt>
<pdfrwt beam="2">  1       -1 0.26125835E-03 0.79264958E+02</pdfrwt>
<totfact> 0.35893648E+05</totfact>
</mgrwt>
</event>
<event>
 8    1  0.1627221E-013  0.8267335E+02  0.7818608E-02  0.1321632E+00
          2   -1    0    0  501    0  0.00000000000E+00  0.00000000000E+00  0.52715645520E+03  0.52715645520E+03  0.25500000000E-02 0. -1.
         -1   -1    0    0    0  501 -0.00000000000E+00 -0.00000000000E+00 -0.32413896581E+01  0.32413935765E+01  0.50400000000E-02 0.  1.
         24    2    1    2    0    0 -0.71054273576E-14  0.00000000000E+00  0.52391506554E+03  0.53039784878E+03  0.82673345714E+02 0.  0.
         66    2    3    3    0    0 -0.30371587310E+02  0.17241893238E+02  0.40368992594E+03  0.40520275481E+03  0.20000008081E+01 0.  0.
        -13    1    3    3    0    0  0.30371587310E+02 -0.17241893238E+02  0.12022513960E+03  0.12519509397E+03  0.10566000000E+00 0.  1.
         13    1    4    4    0    0 -0.21473505982E+02  0.12671497044E+02  0.28965975187E+03  0.29073090877E+03  0.10566000000E+00 0. -1.
        -13    1    4    4    0    0 -0.69025610402E+01  0.32386039836E+01  0.89817705555E+02  0.90140808183E+02  0.10566000000E+00 0.  1.
         14    1    4    4    0    0 -0.19955202871E+01  0.13317922097E+01  0.24212468511E+02  0.24331037855E+02  0.00000000000E+00 0. -1.
<mgrwt>
<rscale>  0 0.82673346E+02</rscale>
<asrwt>0</asrwt>
<pdfrwt beam="1">  1        2 0.81101028E-01 0.82673346E+02</pdfrwt>
<pdfrwt beam="2">  1       -1 0.49867542E-03 0.82673346E+02</pdfrwt>
<totfact> 0.28416008E+05</totfact>
</mgrwt>
</event>
<event>
 8    1  0.1627221E-013  0.8060313E+02  0.7818608E-02  0.1327349E+00
         -1   -1    0    0    0  501 -0.00000000000E+00  0.00000000000E+00  0.14809770766E+02  0.14809771624E+02  0.50400000000E-02 0.  1.
          2   -1    0    0  501    0  0.00000000000E+00 -0.00000000000E+00 -0.10967192784E+03  0.10967192787E+03  0.25500000000E-02 0. -1.
         24    2    1    2    0    0  0.00000000000E+00  0.00000000000E+00 -0.94862157079E+02  0.12448169950E+03  0.80603130611E+02 0.  0.
         66    2    3    3    0    0  0.27467396137E+02 -0.25141565708E+02 -0.71168037229E+02  0.80345788312E+02  0.19999998930E+01 0.  0.
        -13    1    3    3    0    0 -0.27467396137E+02  0.25141565708E+02 -0.23694119850E+02  0.44135911186E+02  0.10566000000E+00 0.  1.
         13    1    4    4    0    0  0.97023700399E+01 -0.93399498928E+01 -0.26881159745E+02  0.30066236240E+02  0.10566000000E+00 0. -1.
        -13    1    4    4    0    0  0.49696193980E+01 -0.43255294912E+01 -0.13396652131E+02  0.14929459960E+02  0.10566000000E+00 0.  1.
         14    1    4    4    0    0  0.12795406699E+02 -0.11476086324E+02 -0.30890225353E+02  0.35350092111E+02  0.00000000000E+00 0. -1.
<mgrwt>
<rscale>  0 0.80603131E+02</rscale>
<asrwt>0</asrwt>
<pdfrwt beam="1">  1        2 0.16872604E-01 0.80603131E+02</pdfrwt>
<pdfrwt beam="2">  1       -1 0.22784264E-02 0.80603131E+02</pdfrwt>
<totfact> 0.17836203E+05</totfact>
</mgrwt>
</event>
<event>
 8    1  0.1627221E-013  0.7943163E+02  0.7818608E-02  0.1330672E+00
         -1   -1    0    0    0  501 -0.00000000000E+00  0.00000000000E+00  0.46469446270E+01  0.46469473601E+01  0.50400000000E-02 0.  1.
          2   -1    0    0  501    0  0.00000000000E+00 -0.00000000000E+00 -0.33943708073E+03  0.33943708074E+03  0.25500000000E-02 0. -1.
         24    2    1    2    0    0  0.00000000000E+00  0.00000000000E+00 -0.33479013610E+03  0.34408402810E+03  0.79431625700E+02 0.  0.
         66    2    3    3    0    0  0.25481361871E+02 -0.30354950036E+02 -0.17680983255E+03  0.18120827708E+03  0.20000006432E+01 0.  0.
        -13    1    3    3    0    0 -0.25481361871E+02  0.30354950036E+02 -0.15798030355E+03  0.16287575101E+03  0.10566000000E+00 0.  1.
         13    1    4    4    0    0  0.17881918022E+02 -0.20482823930E+02 -0.12321296718E+03  0.12617747625E+03  0.10566000000E+00 0. -1.
        -13    1    4    4    0    0  0.68179332599E+01 -0.85731230736E+01 -0.47783752167E+02  0.49023267826E+02  0.10566000000E+00 0.  1.
        -14    1    4    4    0    0  0.78151058912E+00 -0.12990030324E+01 -0.58131132056E+01  0.60075330062E+01  0.00000000000E+00 0.  1.
<mgrwt>
<rscale>  0 0.79431626E+02</rscale>
<asrwt>0</asrwt>
<pdfrwt beam="1">  1        2 0.52221070E-01 0.79431626E+02</pdfrwt>
<pdfrwt beam="2">  1       -1 0.71491504E-03 0.79431626E+02</pdfrwt>
<totfact> 0.27157652E+05</totfact>
</mgrwt>
</event>
<event>
 8    1  0.1627221E-013  0.8067871E+02  0.7818608E-02  0.1327136E+00
         -1   -1    0    0    0  501 -0.00000000000E+00  0.00000000000E+00  0.43370500160E+01  0.43370529444E+01  0.50400000000E-02 0.  1.
          2   -1    0    0  501    0  0.00000000000E+00 -0.00000000000E+00 -0.37520041476E+03  0.37520041477E+03  0.25500000000E-02 0. -1.
         24    2    1    2    0    0  0.00000000000E+00 -0.17763568394E-14 -0.37086336475E+03  0.37953746772E+03  0.80678709019E+02 0.  0.
         66    2    3    3    0    0 -0.25973392576E+02  0.15588457126E+02 -0.31068710177E+03  0.31216677003E+03  0.19999959865E+01 0.  0.
        -13    1    3    3    0    0  0.25973392576E+02 -0.15588457126E+02 -0.60176262976E+02  0.67370697690E+02  0.10566000000E+00 0.  1.
         13    1    4    4    0    0 -0.14316253715E+02  0.84466607132E+01 -0.16283924137E+03  0.16368546329E+03  0.10566000000E+00 0. -1.
        -13    1    4    4    0    0 -0.37997829814E+00  0.40070265873E+00 -0.61659530126E+01  0.61915334705E+01  0.10566000000E+00 0. -1.
        -14    1    4    4    0    0 -0.11277160563E+02  0.67410937544E+01 -0.14168190739E+03  0.14228977327E+03  0.00000000000E+00 0.  1.
<mgrwt>
<rscale>  0 0.80678709E+02</rscale>
<asrwt>0</asrwt>
<pdfrwt beam="1">  1        2 0.57723115E-01 0.80678709E+02</pdfrwt>
<pdfrwt beam="2">  1       -1 0.66723899E-03 0.80678709E+02</pdfrwt>
<totfact> 0.27019942E+05</totfact>
</mgrwt>
</event>
<event>
 8    1  0.1627221E-013  0.7876630E+02  0.7818608E-02  0.1332589E+00
         -1   -1    0    0    0  501 -0.00000000000E+00  0.00000000000E+00  0.25041408444E+01  0.25041459163E+01  0.50400000000E-02 0.  1.
          2   -1    0    0  501    0  0.00000000000E+00 -0.00000000000E+00 -0.61938646453E+03  0.61938646453E+03  0.25500000000E-02 0. -1.
         24    2    1    2    0    0  0.00000000000E+00 -0.88817841970E-15 -0.61688232368E+03  0.62189061045E+03  0.78766300485E+02 0.  0.
         66    2    3    3    0    0 -0.34392178593E+02  0.50565209727E+01 -0.45435961763E+03  0.45569183939E+03  0.20000016592E+01 0.  0.
        -13    1    3    3    0    0  0.34392178593E+02 -0.50565209727E+01 -0.16252270606E+03  0.16619877106E+03  0.10566000000E+00 0.  1.
         13    1    4    4    0    0 -0.19694709581E+02  0.28403418548E+01 -0.26031520520E+03  0.26107463750E+03  0.10566000000E+00 0. -1.
        -13    1    4    4    0    0 -0.80281691197E+01  0.11503265722E+01 -0.97446172106E+02  0.97783139512E+02  0.10566000000E+00 0.  1.
        -14    1    4    4    0    0 -0.66692998922E+01  0.10658525457E+01 -0.96598240323E+02  0.96834062375E+02  0.00000000000E+00 0.  1.
<mgrwt>
<rscale>  0 0.78766300E+02</rscale>
<asrwt>0</asrwt>
<pdfrwt beam="1">  1        2 0.95290104E-01 0.78766300E+02</pdfrwt>
<pdfrwt beam="2">  1       -1 0.38525332E-03 0.78766300E+02</pdfrwt>
<totfact> 0.33782418E+05</totfact>
</mgrwt>
</event>
<event>
 8    1  0.1627221E-013  0.8044198E+02  0.7818608E-02  0.1327802E+00
          2   -1    0    0  501    0  0.00000000000E+00  0.00000000000E+00  0.24757556544E+03  0.24757556545E+03  0.25500000000E-02 0. -1.
         -1   -1    0    0    0  501 -0.00000000000E+00 -0.00000000000E+00 -0.65342785794E+01  0.65342805231E+01  0.50400000000E-02 0.  1.
         24    2    1    2    0    0  0.00000000000E+00 -0.17763568394E-14  0.24104128686E+03  0.25410984597E+03  0.80441978162E+02 0.  0.
         66    2    3    3    0    0 -0.87212079545E+01 -0.13538500150E+02  0.23693471742E+03  0.23748981195E+03  0.20000009533E+01 0.  0.
        -13    1    3    3    0    0  0.87212079545E+01  0.13538500150E+02  0.41065694350E+01  0.16620034027E+02  0.10566000000E+00 0.  1.
         13    1    4    4    0    0 -0.37997839086E+01 -0.42050683328E+01  0.81527127295E+02  0.81723953689E+02  0.10566000000E+00 0. -1.
        -13    1    4    4    0    0 -0.49145953804E+01 -0.92521054787E+01  0.15416685511E+03  0.15452244200E+03  0.10566000000E+00 0.  1.
        -14    1    4    4    0    0 -0.68286654573E-02 -0.81326337951E-01  0.12407350149E+01  0.12434162542E+01  0.00000000000E+00 0.  1.
<mgrwt>
<rscale>  0 0.80441978E+02</rscale>
<asrwt>0</asrwt>
<pdfrwt beam="1">  1        2 0.38088549E-01 0.80441978E+02</pdfrwt>
<pdfrwt beam="2">  1       -1 0.10052738E-02 0.80441978E+02</pdfrwt>
<totfact> 0.23443055E+05</totfact>
</mgrwt>
</event>
<event>
 8    1  0.1627221E-013  0.7665326E+02  0.7818608E-02  0.1338827E+00
          2   -1    0    0  501    0  0.00000000000E+00  0.00000000000E+00  0.16387986259E+03  0.16387986261E+03  0.25500000000E-02 0. -1.
         -1   -1    0    0    0  501 -0.00000000000E+00 -0.00000000000E+00 -0.89634584289E+01  0.89634598459E+01  0.50400000000E-02 0.  1.
         24    2    1    2    0    0 -0.35527136788E-14 -0.35527136788E-14  0.15491640416E+03  0.17284332246E+03  0.76653257200E+02 0.  0.
         66    2    3    3    0    0 -0.20209937137E+02 -0.23648161398E+02  0.12789336071E+03  0.13163733821E+03  0.19999999470E+01 0.  0.
        -13    1    3    3    0    0  0.20209937137E+02  0.23648161398E+02  0.27023043451E+02  0.41205984250E+02  0.10566000000E+00 0.  1.
         13    1    4    4    0    0 -0.13436812863E+01 -0.13003440386E+01  0.69490709943E+01  0.71970220048E+01  0.10566000000E+00 0.  1.
        -13    1    4    4    0    0 -0.61641212361E+01 -0.83099038155E+01  0.41145992481E+02  0.42427052140E+02  0.10566000000E+00 0. -1.
         14    1    4    4    0    0 -0.12702134614E+02 -0.14037913544E+02  0.79798297237E+02  0.82013264063E+02  0.00000000000E+00 0. -1.
<mgrwt>
<rscale>  0 0.76653257E+02</rscale>
<asrwt>0</asrwt>
<pdfrwt beam="1">  1        2 0.25212287E-01 0.76653257E+02</pdfrwt>
<pdfrwt beam="2">  1       -1 0.13789937E-02 0.76653257E+02</pdfrwt>
<totfact> 0.23081797E+05</totfact>
</mgrwt>
</event>
<event>
 8    1  0.1627221E-013  0.8076485E+02  0.7818608E-02  0.1326895E+00
          2   -1    0    0  501    0  0.00000000000E+00  0.00000000000E+00  0.26190785071E+03  0.26190785072E+03  0.25500000000E-02 0. -1.
         -1   -1    0    0    0  501 -0.00000000000E+00 -0.00000000000E+00 -0.62263882768E+01  0.62263903167E+01  0.50400000000E-02 0.  1.
         24    2    1    2    0    0  0.00000000000E+00 -0.35527136788E-14  0.25568146243E+03  0.26813424104E+03  0.80764849939E+02 0.  0.
         66    2    3    3    0    0 -0.25223160928E+02  0.27089198871E+02  0.74520241079E+02  0.83230396219E+02  0.19999954076E+01 0.  0.
        -13    1    3    3    0    0  0.25223160928E+02 -0.27089198871E+02  0.18116122135E+03  0.18490384482E+03  0.10566000000E+00 0.  1.
         13    1    4    4    0    0 -0.12999718940E+01  0.10536827878E+01  0.34891853979E+01  0.38711436448E+01  0.10566000000E+00 0.  1.
        -13    1    4    4    0    0 -0.19546652421E+02  0.20761833764E+02  0.56142866181E+02  0.62969500150E+02  0.10566000000E+00 0. -1.
        -14    1    4    4    0    0 -0.43765366131E+01  0.52736823191E+01  0.14888189500E+02  0.16389752424E+02  0.00000000000E+00 0.  1.
<mgrwt>
<rscale>  0 0.80764850E+02</rscale>
<asrwt>0</asrwt>
<pdfrwt beam="1">  1        2 0.40293510E-01 0.80764850E+02</pdfrwt>
<pdfrwt beam="2">  1       -1 0.95790618E-03 0.80764850E+02</pdfrwt>
<totfact> 0.23671831E+05</totfact>
</mgrwt>
</event>
<event>
 8    1  0.1627221E-013  0.7803310E+02  0.7818608E-02  0.1334728E+00
         -1   -1    0    0    0  501 -0.00000000000E+00  0.00000000000E+00  0.29715098002E+01  0.29715140744E+01  0.50400000000E-02 0.  1.
          2   -1    0    0  501    0  0.00000000000E+00 -0.00000000000E+00 -0.51229510482E+03  0.51229510483E+03  0.25500000000E-02 0. -1.
         24    2    1    2    0    0  0.35527136788E-14  0.35527136788E-14 -0.50932359502E+03  0.51526661891E+03  0.78033096245E+02 0.  0.
         66    2    3    3    0    0  0.31290562895E+02  0.21821272267E+02 -0.30807288122E+03  0.31043222673E+03  0.19999989530E+01 0.  0.
        -13    1    3    3    0    0 -0.31290562895E+02 -0.21821272267E+02 -0.20125071380E+03  0.20483439218E+03  0.10566000000E+00 0.  1.
         13    1    4    4    0    0  0.11827848489E+02  0.82382620254E+01 -0.12263826255E+03  0.12348247473E+03  0.10566000000E+00 0. -1.
        -13    1    4    4    0    0  0.67804235118E+01  0.42273080805E+01 -0.61130320279E+02  0.61650397387E+02  0.10566000000E+00 0.  1.
        -14    1    4    4    0    0  0.12682290894E+02  0.93557021607E+01 -0.12430429840E+03  0.12529935461E+03  0.00000000000E+00 0.  1.
<mgrwt>
<rscale>  0 0.78033096E+02</rscale>
<asrwt>0</asrwt>
<pdfrwt beam="1">  1        2 0.78814562E-01 0.78033096E+02</pdfrwt>
<pdfrwt beam="2">  1       -1 0.45715609E-03 0.78033096E+02</pdfrwt>
<totfact> 0.32740068E+05</totfact>
</mgrwt>
</event>
<event>
 8    1  0.1627221E-013  0.7955344E+02  0.7818608E-02  0.1330324E+00
          2   -1    0    0  501    0  0.00000000000E+00  0.00000000000E+00  0.72894327117E+03  0.72894327117E+03  0.25500000000E-02 0. -1.
         -1   -1    0    0    0  501 -0.00000000000E+00 -0.00000000000E+00 -0.21705190978E+01  0.21705249493E+01  0.50400000000E-02 0.  1.
         24    2    1    2    0    0  0.00000000000E+00 -0.88817841970E-15  0.72677275207E+03  0.73111379612E+03  0.79553439448E+02 0.  0.
         66    2    3    3    0    0 -0.22153619085E+02 -0.79580113441E+01  0.65799957567E+03  0.65842353722E+03  0.19999998829E+01 0.  0.
        -13    1    3    3    0    0  0.22153619085E+02  0.79580113441E+01  0.68773176404E+02  0.72690258906E+02  0.10566000000E+00 0.  1.
         13    1    4    4    0    0 -0.70573576449E+00 -0.67263051109E-02  0.22506709264E+02  0.22518020209E+02  0.10566000000E+00 0.  1.
        -13    1    4    4    0    0 -0.16141406468E+02 -0.64186317976E+01  0.47374109300E+03  0.47405946694E+03  0.10566000000E+00 0. -1.
         14    1    4    4    0    0 -0.53064768525E+01 -0.15326532414E+01  0.16175177341E+03  0.16184605007E+03  0.00000000000E+00 0. -1.
<mgrwt>
<rscale>  0 0.79553439E+02</rscale>
<asrwt>0</asrwt>
<pdfrwt beam="1">  1        2 0.11214523E+00 0.79553439E+02</pdfrwt>
<pdfrwt beam="2">  1       -1 0.33392614E-03 0.79553439E+02</pdfrwt>
<totfact> 0.34247255E+05</totfact>
</mgrwt>
</event>
<event>
 8    1  0.1627221E-013  0.7756033E+02  0.7818608E-02  0.1336121E+00
          2   -1    0    0  501    0  0.00000000000E+00  0.00000000000E+00  0.13987874164E+02  0.13987874396E+02  0.25500000000E-02 0. -1.
         -1   -1    0    0    0  501 -0.00000000000E+00 -0.00000000000E+00 -0.10751462208E+03  0.10751462220E+03  0.50400000000E-02 0.  1.
         24    2    1    2    0    0  0.44408920985E-15  0.00000000000E+00 -0.93526747921E+02  0.12150249660E+03  0.77560325574E+02 0.  0.
         66    2    3    3    0    0 -0.23419049631E+01  0.35604045221E+02 -0.23100348093E+02  0.42553009510E+02  0.19999953501E+01 0.  0.
        -13    1    3    3    0    0  0.23419049631E+01 -0.35604045221E+02 -0.70426399828E+02  0.78949487090E+02  0.10566000000E+00 0.  1.
         13    1    4    4    0    0 -0.13116229832E+01  0.19237743546E+02 -0.12634093845E+02  0.23053039343E+02  0.10566000000E+00 0. -1.
        -13    1    4    4    0    0 -0.10169411784E+01  0.15988069163E+02 -0.10436666401E+02  0.19120347657E+02  0.10566000000E+00 0.  1.
        -14    1    4    4    0    0 -0.13340801536E-01  0.37823251122E+00 -0.29587846459E-01  0.37962251012E+00  0.00000000000E+00 0.  1.
<mgrwt>
<rscale>  0 0.77560326E+02</rscale>
<asrwt>0</asrwt>
<pdfrwt beam="1">  1        2 0.21519807E-02 0.77560326E+02</pdfrwt>
<pdfrwt beam="2">  1       -1 0.16540711E-01 0.77560326E+02</pdfrwt>
<totfact> 0.12607466E+05</totfact>
</mgrwt>
</event>
<event>
 8    1  0.1627221E-013  0.7961757E+02  0.7818608E-02  0.1330140E+00
         -1   -1    0    0    0  501 -0.00000000000E+00  0.00000000000E+00  0.13989611870E+01  0.13989702657E+01  0.50400000000E-02 0.  1.
          2   -1    0    0  501    0  0.00000000000E+00 -0.00000000000E+00 -0.11327934608E+04  0.11327934608E+04  0.25500000000E-02 0. -1.
         24    2    1    2    0    0  0.88817841970E-15  0.17763568394E-14 -0.11313944996E+04  0.11341924310E+04  0.79617566771E+02 0.  0.
         66    2    3    3    0    0 -0.74042189940E+01 -0.83924827774E+01 -0.11099028723E+04  0.11099610994E+04  0.19999989959E+01 0.  0.
        -13    1    3    3    0    0  0.74042189940E+01  0.83924827774E+01 -0.21491627280E+02  0.24231331644E+02  0.10566000000E+00 0.  1.
         13    1    4    4    0    0 -0.14623977886E+01 -0.16737801191E+01 -0.18200879605E+03  0.18202239738E+03  0.10566000000E+00 0. -1.
        -13    1    4    4    0    0 -0.24725580652E+01 -0.23027294853E+01 -0.28340798062E+03  0.28342814036E+03  0.10566000000E+00 0.  1.
         14    1    4    4    0    0 -0.34692631402E+01 -0.44159731731E+01 -0.64448609562E+03  0.64451056163E+03  0.00000000000E+00 0. -1.
<mgrwt>
<rscale>  0 0.79617567E+02</rscale>
<asrwt>0</asrwt>
<pdfrwt beam="1">  1        2 0.17427518E+00 0.79617567E+02</pdfrwt>
<pdfrwt beam="2">  1       -1 0.21522640E-03 0.79617567E+02</pdfrwt>
<totfact> 0.35646891E+05</totfact>
</mgrwt>
</event>
<event>
 8    1  0.1627221E-013  0.7998884E+02  0.7818608E-02  0.1329083E+00
          2   -1    0    0  501    0  0.00000000000E+00  0.00000000000E+00  0.92035910137E+02  0.92035910172E+02  0.25500000000E-02 0. -1.
         -1   -1    0    0    0  501 -0.00000000000E+00 -0.00000000000E+00 -0.17379667234E+02  0.17379667964E+02  0.50400000000E-02 0.  1.
         24    2    1    2    0    0  0.00000000000E+00  0.00000000000E+00  0.74656242904E+02  0.10941557814E+03  0.79988837562E+02 0.  0.
         66    2    3    3    0    0 -0.28516681206E+01  0.26975780904E+02  0.77505855680E+02  0.82140017217E+02  0.19999993210E+01 0.  0.
        -13    1    3    3    0    0  0.28516681206E+01 -0.26975780904E+02 -0.28496127764E+01  0.27275560920E+02  0.10566000000E+00 0.  1.
         13    1    4    4    0    0 -0.73600421830E+00  0.53667114994E+01  0.16811972225E+02  0.17663433093E+02  0.10566000000E+00 0. -1.
        -13    1    4    4    0    0 -0.50269373465E+00  0.90954560945E+01  0.23723019714E+02  0.25412061132E+02  0.10566000000E+00 0.  1.
        -14    1    4    4    0    0 -0.16129701677E+01  0.12513613310E+02  0.36970863741E+02  0.39064522992E+02  0.00000000000E+00 0.  1.
<mgrwt>
<rscale>  0 0.79988838E+02</rscale>
<asrwt>0</asrwt>
<pdfrwt beam="1">  1        2 0.14159371E-01 0.79988838E+02</pdfrwt>
<pdfrwt beam="2">  1       -1 0.26737951E-02 0.79988838E+02</pdfrwt>
<totfact> 0.17331563E+05</totfact>
</mgrwt>
</event>
<event>
 8    1  0.1627221E-013  0.7239137E+02  0.7818608E-02  0.1352145E+00
          2   -1    0    0  501    0  0.00000000000E+00  0.00000000000E+00  0.95529520098E+02  0.95529520132E+02  0.25500000000E-02 0. -1.
         -1   -1    0    0    0  501 -0.00000000000E+00 -0.00000000000E+00 -0.13714373674E+02  0.13714374600E+02  0.50400000000E-02 0.  1.
         24    2    1    2    0    0  0.22204460493E-15 -0.35527136788E-14  0.81815146424E+02  0.10924389473E+03  0.72391369319E+02 0.  0.
         66    2    3    3    0    0  0.17665206736E+01 -0.24051466401E+02  0.81614584821E+02  0.85126576881E+02  0.20000011916E+01 0.  0.
        -13    1    3    3    0    0 -0.17665206736E+01  0.24051466401E+02  0.20056160280E+00  0.24117317850E+02  0.10566000000E+00 0.  1.
         13    1    4    4    0    0  0.26256623631E+00 -0.17571694032E+01  0.46398072555E+01  0.49694628225E+01  0.10566000000E+00 0. -1.
        -13    1    4    4    0    0 -0.22918895481E-01 -0.43936386508E+01  0.15446546503E+02  0.16059624802E+02  0.10566000000E+00 0.  1.
         14    1    4    4    0    0  0.15268733327E+01 -0.17900658347E+02  0.61528231062E+02  0.64097489257E+02  0.00000000000E+00 0. -1.
<mgrwt>
<rscale>  0 0.72391369E+02</rscale>
<asrwt>0</asrwt>
<pdfrwt beam="1">  1        2 0.14696849E-01 0.72391369E+02</pdfrwt>
<pdfrwt beam="2">  1       -1 0.21099038E-02 0.72391369E+02</pdfrwt>
<totfact> 0.22841246E+05</totfact>
</mgrwt>
</event>
<event>
 8    1  0.1627221E-013  0.7290491E+02  0.7818608E-02  0.1350484E+00
         -1   -1    0    0    0  501 -0.00000000000E+00  0.00000000000E+00  0.84619466353E+00  0.84620967271E+00  0.50400000000E-02 0.  1.
          2   -1    0    0  501    0  0.00000000000E+00 -0.00000000000E+00 -0.15702882143E+04  0.15702882143E+04  0.25500000000E-02 0. -1.
         24    2    1    2    0    0  0.00000000000E+00  0.17763568394E-14 -0.15694420197E+04  0.15711344240E+04  0.72904905172E+02 0.  0.
         66    2    3    3    0    0  0.64673230560E+01 -0.15015225033E+02 -0.14867743990E+04  0.14868656284E+04  0.19999993527E+01 0.  0.
        -13    1    3    3    0    0 -0.64673230560E+01  0.15015225033E+02 -0.82667620646E+02  0.84268795634E+02  0.10566000000E+00 0.  1.
         13    1    4    4    0    0  0.27139735073E+01 -0.55317391610E+01 -0.61903394269E+03  0.61906461630E+03  0.10566000000E+00 0. -1.
        -13    1    4    4    0    0  0.41237310834E+00 -0.56374749188E+00 -0.75334005116E+02  0.75337317139E+02  0.10566000000E+00 0.  1.
        -14    1    4    4    0    0  0.33409764404E+01 -0.89197383802E+01 -0.79240645122E+03  0.79246369494E+03  0.00000000000E+00 0.  1.
<mgrwt>
<rscale>  0 0.72904905E+02</rscale>
<asrwt>0</asrwt>
<pdfrwt beam="1">  1        2 0.24158047E+00 0.72904905E+02</pdfrwt>
<pdfrwt beam="2">  1       -1 0.13018621E-03 0.72904905E+02</pdfrwt>
<totfact> 0.41500247E+05</totfact>
</mgrwt>
</event>
<event>
 8    1  0.1627221E-013  0.7973937E+02  0.7818608E-02  0.1329793E+00
         -1   -1    0    0    0  501 -0.00000000000E+00  0.00000000000E+00  0.22710296826E+01  0.22710352751E+01  0.50400000000E-02 0.  1.
          2   -1    0    0  501    0  0.00000000000E+00 -0.00000000000E+00 -0.69994241885E+03  0.69994241885E+03  0.25500000000E-02 0. -1.
         24    2    1    2    0    0  0.00000000000E+00  0.00000000000E+00 -0.69767138917E+03  0.70221345413E+03  0.79739374829E+02 0.  0.
         66    2    3    3    0    0 -0.22731430754E+02  0.64539459538E+01 -0.63157473646E+03  0.63201979326E+03  0.19999952452E+01 0.  0.
        -13    1    3    3    0    0  0.22731430754E+02 -0.64539459538E+01 -0.66096652707E+02  0.70193660865E+02  0.10566000000E+00 0.  1.
         13    1    4    4    0    0 -0.15450152047E+02  0.50457431732E+01 -0.42630540897E+03  0.42661514226E+03  0.10566000000E+00 0. -1.
        -13    1    4    4    0    0 -0.56021547974E+01  0.11892921868E+01 -0.16610778578E+03  0.16620651676E+03  0.10566000000E+00 0.  1.
         14    1    4    4    0    0 -0.16791239099E+01  0.21891059374E+00 -0.39161541705E+02  0.39198134237E+02  0.00000000000E+00 0. -1.
<mgrwt>
<rscale>  0 0.79739375E+02</rscale>
<asrwt>0</asrwt>
<pdfrwt beam="1">  1        2 0.10768328E+00 0.79739375E+02</pdfrwt>
<pdfrwt beam="2">  1       -1 0.34939017E-03 0.79739375E+02</pdfrwt>
<totfact> 0.33735974E+05</totfact>
</mgrwt>
</event>
<event>
 8    1  0.1627221E-013  0.7743650E+02  0.7818608E-02  0.1336488E+00
          2   -1    0    0  501    0  0.00000000000E+00  0.00000000000E+00  0.48965342492E+03  0.48965342493E+03  0.25500000000E-02 0. -1.
         -1   -1    0    0    0  501 -0.00000000000E+00 -0.00000000000E+00 -0.30615569881E+01  0.30615611365E+01  0.50400000000E-02 0.  1.
         24    2    1    2    0    0 -0.17763568394E-14  0.35527136788E-14  0.48659186793E+03  0.49271498606E+03  0.77436500139E+02 0.  0.
         66    2    3    3    0    0 -0.88236459794E+01 -0.19851606583E+02  0.44718300388E+03  0.44771484449E+03  0.19999996484E+01 0.  0.
        -13    1    3    3    0    0  0.88236459794E+01  0.19851606583E+02  0.39408864046E+02  0.45000141575E+02  0.10566000000E+00 0.  1.
         13    1    4    4    0    0 -0.57893612095E+00 -0.16115037937E+01  0.27611038057E+02  0.27664285606E+02  0.10566000000E+00 0. -1.
        -13    1    4    4    0    0 -0.20533804623E+01 -0.41367233063E+01  0.10570362703E+03  0.10580452156E+03  0.10566000000E+00 0.  1.
         14    1    4    4    0    0 -0.61913293961E+01 -0.14103379483E+02  0.31386833879E+03  0.31424603732E+03  0.00000000000E+00 0. -1.
<mgrwt>
<rscale>  0 0.77436500E+02</rscale>
<asrwt>0</asrwt>
<pdfrwt beam="1">  1        2 0.75331335E-01 0.77436500E+02</pdfrwt>
<pdfrwt beam="2">  1       -1 0.47100885E-03 0.77436500E+02</pdfrwt>
<totfact> 0.32923564E+05</totfact>
</mgrwt>
</event>
<event>
 8    1  0.1627221E-013  0.8238376E+02  0.7818608E-02  0.1322420E+00
         -1   -1    0    0    0  501 -0.00000000000E+00  0.00000000000E+00  0.46118789911E+01  0.46118817450E+01  0.50400000000E-02 0.  1.
          2   -1    0    0  501    0  0.00000000000E+00 -0.00000000000E+00 -0.36791305394E+03  0.36791305394E+03  0.25500000000E-02 0. -1.
         24    2    1    2    0    0  0.00000000000E+00  0.00000000000E+00 -0.36330117494E+03  0.37252493569E+03  0.82383760501E+02 0.  0.
         66    2    3    3    0    0  0.22210578475E+02  0.13101084160E+02 -0.32686620645E+03  0.32788788498E+03  0.19999997039E+01 0.  0.
        -13    1    3    3    0    0 -0.22210578475E+02 -0.13101084160E+02 -0.36434968495E+02  0.44637050705E+02  0.10566000000E+00 0.  1.
         13    1    4    4    0    0  0.17861567595E+02  0.10578380705E+02 -0.25882109796E+03  0.25965228605E+03  0.10566000000E+00 0. -1.
        -13    1    4    4    0    0  0.42049053210E+01  0.25462256968E+01 -0.64333554407E+02  0.64521173894E+02  0.10566000000E+00 0.  1.
        -14    1    4    4    0    0  0.14410555867E+00 -0.23522241587E-01 -0.37115540777E+01  0.37144250403E+01  0.00000000000E+00 0.  1.
<mgrwt>
<rscale>  0 0.82383761E+02</rscale>
<asrwt>0</asrwt>
<pdfrwt beam="1">  1        2 0.56601985E-01 0.82383761E+02</pdfrwt>
<pdfrwt beam="2">  1       -1 0.70952035E-03 0.82383761E+02</pdfrwt>
<totfact> 0.25402054E+05</totfact>
</mgrwt>
</event>
<event>
 8    1  0.1627221E-013  0.7800781E+02  0.7818608E-02  0.1334802E+00
          2   -1    0    0  501    0  0.00000000000E+00  0.00000000000E+00  0.35349819391E+02  0.35349819483E+02  0.25500000000E-02 0. -1.
         -1   -1    0    0    0  501 -0.00000000000E+00 -0.00000000000E+00 -0.43035709466E+02  0.43035709762E+02  0.50400000000E-02 0.  1.
         24    2    1    2    0    0  0.35527136788E-14  0.00000000000E+00 -0.76858900754E+01  0.78385529245E+02  0.78007809152E+02 0.  0.
         66    2    3    3    0    0  0.18523080570E+02 -0.25516573100E+02  0.19180544822E+02  0.36960699677E+02  0.20000011011E+01 0.  0.
        -13    1    3    3    0    0 -0.18523080570E+02  0.25516573100E+02 -0.26866434897E+02  0.41424829567E+02  0.10566000000E+00 0.  1.
         13    1    4    4    0    0  0.11156942547E+02 -0.14090318878E+02  0.11247956037E+02  0.21202408640E+02  0.10566000000E+00 0. -1.
        -13    1    4    4    0    0  0.26316080864E+01 -0.47524430120E+01  0.31756993219E+01  0.62934335558E+01  0.10566000000E+00 0.  1.
         14    1    4    4    0    0  0.47345299358E+01 -0.66738112106E+01  0.47568894632E+01  0.94648574819E+01  0.00000000000E+00 0. -1.
<mgrwt>
<rscale>  0 0.78007809E+02</rscale>
<asrwt>0</asrwt>
<pdfrwt beam="1">  1        2 0.54384338E-02 0.78007809E+02</pdfrwt>
<pdfrwt beam="2">  1       -1 0.66208784E-02 0.78007809E+02</pdfrwt>
<totfact> 0.14909281E+05</totfact>
</mgrwt>
</event>
<event>
 8    1  0.1627221E-013  0.7959308E+02  0.7818608E-02  0.1330210E+00
          2   -1    0    0  501    0  0.00000000000E+00  0.00000000000E+00  0.97541554102E+01  0.97541557435E+01  0.25500000000E-02 0. -1.
         -1   -1    0    0    0  501 -0.00000000000E+00 -0.00000000000E+00 -0.16236817811E+03  0.16236817818E+03  0.50400000000E-02 0.  1.
         24    2    1    2    0    0  0.00000000000E+00  0.00000000000E+00 -0.15261402269E+03  0.17212233393E+03  0.79593077044E+02 0.  0.
         66    2    3    3    0    0  0.14014844112E+02 -0.23962306437E+02 -0.14764671058E+02  0.31505610540E+02  0.19999996942E+01 0.  0.
        -13    1    3    3    0    0 -0.14014844112E+02  0.23962306437E+02 -0.13784935164E+03  0.14061672339E+03  0.10566000000E+00 0.  1.
         13    1    4    4    0    0  0.64412548338E+01 -0.98632087815E+01 -0.68384005683E+01  0.13621583523E+02  0.10566000000E+00 0. -1.
        -13    1    4    4    0    0  0.41165787436E+01 -0.73325415811E+01 -0.46455691153E+01  0.96075419869E+01  0.10566000000E+00 0. -1.
        -14    1    4    4    0    0  0.34570105342E+01 -0.67665560747E+01 -0.32807013739E+01  0.82764850299E+01  0.00000000000E+00 0.  1.
<mgrwt>
<rscale>  0 0.79593077E+02</rscale>
<asrwt>0</asrwt>
<pdfrwt beam="1">  1        2 0.15006394E-02 0.79593077E+02</pdfrwt>
<pdfrwt beam="2">  1       -1 0.24979718E-01 0.79593077E+02</pdfrwt>
<totfact> 0.10704348E+05</totfact>
</mgrwt>
</event>
<event>
 8    1  0.1627221E-013  0.7965072E+02  0.7818608E-02  0.1330046E+00
          2   -1    0    0  501    0  0.00000000000E+00  0.00000000000E+00  0.89227707895E+03  0.89227707895E+03  0.25500000000E-02 0. -1.
         -1   -1    0    0    0  501 -0.00000000000E+00 -0.00000000000E+00 -0.17775377029E+01  0.17775448481E+01  0.50400000000E-02 0.  1.
         24    2    1    2    0    0  0.00000000000E+00  0.35527136788E-14  0.89049954124E+03  0.89405462380E+03  0.79650721152E+02 0.  0.
         66    2    3    3    0    0 -0.20984506826E+02  0.13578974808E+02  0.79319013738E+03  0.79358637345E+03  0.20000016585E+01 0.  0.
        -13    1    3    3    0    0  0.20984506826E+02 -0.13578974808E+02  0.97309403868E+02  0.10046825035E+03  0.10566000000E+00 0.  1.
         13    1    4    4    0    0 -0.18128933107E+02  0.12082549365E+02  0.68650696420E+03  0.68685258191E+03  0.10566000000E+00 0. -1.
        -13    1    4    4    0    0 -0.24110918650E+01  0.97918737727E+00  0.83956349547E+02  0.83996737825E+02  0.10566000000E+00 0.  1.
        -14    1    4    4    0    0 -0.44448185311E+00  0.51723806570E+00  0.22726823627E+02  0.22737053712E+02  0.00000000000E+00 0.  1.
<mgrwt>
<rscale>  0 0.79650721E+02</rscale>
<asrwt>0</asrwt>
<pdfrwt beam="1">  1        2 0.13727329E+00 0.79650721E+02</pdfrwt>
<pdfrwt beam="2">  1       -1 0.27346809E-03 0.79650721E+02</pdfrwt>
<totfact> 0.35311538E+05</totfact>
</mgrwt>
</event>
<event>
 8    1  0.1627221E-013  0.7985477E+02  0.7818608E-02  0.1329464E+00
         -1   -1    0    0    0  501 -0.00000000000E+00  0.00000000000E+00  0.20476212449E+02  0.20476213070E+02  0.50400000000E-02 0.  1.
          2   -1    0    0  501    0  0.00000000000E+00 -0.00000000000E+00 -0.77856002859E+02  0.77856002901E+02  0.25500000000E-02 0. -1.
         24    2    1    2    0    0 -0.44408920985E-15  0.00000000000E+00 -0.57379790409E+02  0.98332215971E+02  0.79854770366E+02 0.  0.
         66    2    3    3    0    0  0.34890770048E+01  0.36182767997E+02 -0.48972493523E+02  0.61021893495E+02  0.20000014046E+01 0.  0.
        -13    1    3    3    0    0 -0.34890770048E+01 -0.36182767997E+02 -0.84072968867E+01  0.37310322476E+02  0.10566000000E+00 0.  1.
         13    1    4    4    0    0  0.24717933715E+01  0.24447875695E+02 -0.34110662372E+02  0.42039943387E+02  0.10566000000E+00 0. -1.
        -13    1    4    4    0    0  0.24411692232E+00  0.41197565188E+01 -0.46177100600E+01  0.61940614366E+01  0.10566000000E+00 0.  1.
        -14    1    4    4    0    0  0.77316671096E+00  0.76151357832E+01 -0.10244121091E+02  0.12787888672E+02  0.00000000000E+00 0.  1.
<mgrwt>
<rscale>  0 0.79854770E+02</rscale>
<asrwt>0</asrwt>
<pdfrwt beam="1">  1        2 0.11977846E-01 0.79854770E+02</pdfrwt>
<pdfrwt beam="2">  1       -1 0.31501866E-02 0.79854770E+02</pdfrwt>
<totfact> 0.16661623E+05</totfact>
</mgrwt>
</event>
<event>
 8    1  0.1627221E-013  0.7870336E+02  0.7818608E-02  0.1332772E+00
          2   -1    0    0  501    0  0.00000000000E+00  0.00000000000E+00  0.50317355469E+03  0.50317355469E+03  0.25500000000E-02 0. -1.
         -1   -1    0    0    0  501 -0.00000000000E+00 -0.00000000000E+00 -0.30775735280E+01  0.30775776549E+01  0.50400000000E-02 0.  1.
         24    2    1    2    0    0  0.00000000000E+00  0.00000000000E+00  0.50009598116E+03  0.50625113235E+03  0.78703358458E+02 0.  0.
         66    2    3    3    0    0  0.30967740264E+02  0.12113694151E+02  0.38525978626E+03  0.38669735639E+03  0.20000017106E+01 0.  0.
        -13    1    3    3    0    0 -0.30967740264E+02 -0.12113694151E+02  0.11483619490E+03  0.11955377596E+03  0.10566000000E+00 0.  1.
         13    1    4    4    0    0  0.58275935384E+01  0.26675419061E+01  0.72311002278E+02  0.72594551040E+02  0.10566000000E+00 0. -1.
        -13    1    4    4    0    0  0.95477697662E+01  0.37679698895E+01  0.12817775023E+03  0.12858811890E+03  0.10566000000E+00 0.  1.
         14    1    4    4    0    0  0.15592376959E+02  0.56781823550E+01  0.18477103375E+03  0.18551468645E+03  0.00000000000E+00 0. -1.
<mgrwt>
<rscale>  0 0.78703358E+02</rscale>
<asrwt>0</asrwt>
<pdfrwt beam="1">  1        2 0.77411240E-01 0.78703358E+02</pdfrwt>
<pdfrwt beam="2">  1       -1 0.47347363E-03 0.78703358E+02</pdfrwt>
<totfact> 0.31839035E+05</totfact>
</mgrwt>
</event>
<event>
 8    1  0.1627221E-013  0.7951733E+02  0.7818608E-02  0.1330427E+00
         -1   -1    0    0    0  501 -0.00000000000E+00  0.00000000000E+00  0.49837039285E+01  0.49837064770E+01  0.50400000000E-02 0.  1.
          2   -1    0    0  501    0  0.00000000000E+00 -0.00000000000E+00 -0.31718399863E+03  0.31718399864E+03  0.25500000000E-02 0. -1.
         24    2    1    2    0    0  0.00000000000E+00  0.00000000000E+00 -0.31220029470E+03  0.32216770512E+03  0.79517332758E+02 0.  0.
         66    2    3    3    0    0  0.20963000068E+02 -0.23370402755E+02 -0.25487035761E+03  0.25680444367E+03  0.20000002011E+01 0.  0.
        -13    1    3    3    0    0 -0.20963000068E+02  0.23370402755E+02 -0.57329937089E+02  0.65363261451E+02  0.10566000000E+00 0.  1.
         13    1    4    4    0    0  0.15989673397E+02 -0.18508877161E+02 -0.19861933428E+03  0.20011971243E+03  0.10566000000E+00 0. -1.
        -13    1    4    4    0    0  0.22362996694E+01 -0.20079792525E+01 -0.27237202143E+02  0.27402725440E+02  0.10566000000E+00 0.  1.
         14    1    4    4    0    0  0.27370270019E+01 -0.28535463413E+01 -0.29013821188E+02  0.29282005796E+02  0.00000000000E+00 0. -1.
<mgrwt>
<rscale>  0 0.79517333E+02</rscale>
<asrwt>0</asrwt>
<pdfrwt beam="1">  1        2 0.48797522E-01 0.79517333E+02</pdfrwt>
<pdfrwt beam="2">  1       -1 0.76672413E-03 0.79517333E+02</pdfrwt>
<totfact> 0.26428715E+05</totfact>
</mgrwt>
</event>
<event>
 8    1  0.1627221E-013  0.7959832E+02  0.7818608E-02  0.1330195E+00
          2   -1    0    0  501    0  0.00000000000E+00  0.00000000000E+00  0.96129328127E+02  0.96129328161E+02  0.25500000000E-02 0. -1.
         -1   -1    0    0    0  501 -0.00000000000E+00 -0.00000000000E+00 -0.16477523222E+02  0.16477523993E+02  0.50400000000E-02 0.  1.
         24    2    1    2    0    0  0.00000000000E+00  0.00000000000E+00  0.79651804905E+02  0.11260685215E+03  0.79598323647E+02 0.  0.
         66    2    3    3    0    0  0.25103354581E+02 -0.14509320915E+02  0.78367666244E+02  0.83583430909E+02  0.20000013215E+01 0.  0.
        -13    1    3    3    0    0 -0.25103354581E+02  0.14509320915E+02  0.12841386604E+01  0.29023421245E+02  0.10566000000E+00 0.  1.
         13    1    4    4    0    0  0.10760114045E+02 -0.66691500797E+01  0.32731548424E+02  0.35094487363E+02  0.10566000000E+00 0. -1.
        -13    1    4    4    0    0  0.74805399984E+00 -0.70030788211E+00  0.27767356338E+01  0.29616618193E+01  0.10566000000E+00 0.  1.
        -14    1    4    4    0    0  0.13595186536E+02 -0.71398629532E+01  0.42859382187E+02  0.45527281726E+02  0.00000000000E+00 0.  1.
<mgrwt>
<rscale>  0 0.79598324E+02</rscale>
<asrwt>0</asrwt>
<pdfrwt beam="1">  1        2 0.14789127E-01 0.79598324E+02</pdfrwt>
<pdfrwt beam="2">  1       -1 0.25350037E-02 0.79598324E+02</pdfrwt>
<totfact> 0.17770694E+05</totfact>
</mgrwt>
</event>
<event>
 8    1  0.1627221E-013  0.7990768E+02  0.7818608E-02  0.1329314E+00
         -1   -1    0    0    0  501 -0.00000000000E+00  0.00000000000E+00  0.23821427504E+01  0.23821480821E+01  0.50400000000E-02 0.  1.
          2   -1    0    0  501    0  0.00000000000E+00 -0.00000000000E+00 -0.67011411309E+03  0.67011411310E+03  0.25500000000E-02 0. -1.
         24    2    1    2    0    0 -0.17763568394E-14 -0.44408920985E-15 -0.66773197034E+03  0.67249626118E+03  0.79907678501E+02 0.  0.
         66    2    3    3    0    0  0.11562229567E+02  0.26622141076E+01 -0.65493310686E+03  0.65504362221E+03  0.20000003450E+01 0.  0.
        -13    1    3    3    0    0 -0.11562229567E+02 -0.26622141076E+01 -0.12798863485E+02  0.17452638972E+02  0.10566000000E+00 0.  1.
         13    1    4    4    0    0  0.48342199138E+00  0.84915611961E-01 -0.23874576028E+02  0.23879854523E+02  0.10566000000E+00 0.  1.
        -13    1    4    4    0    0  0.25657516143E+01  0.13757426001E+01 -0.14628340808E+03  0.14631241366E+03  0.10566000000E+00 0.  1.
         14    1    4    4    0    0  0.85130559618E+01  0.12015558956E+01 -0.48477512275E+03  0.48485135402E+03  0.00000000000E+00 0. -1.
<mgrwt>
<rscale>  0 0.79907679E+02</rscale>
<asrwt>0</asrwt>
<pdfrwt beam="1">  1        2 0.10309433E+00 0.79907679E+02</pdfrwt>
<pdfrwt beam="2">  1       -1 0.36648445E-03 0.79907679E+02</pdfrwt>
<totfact> 0.33207562E+05</totfact>
</mgrwt>
</event>
<event>
 8    1  0.1627221E-013  0.7911664E+02  0.7818608E-02  0.1331577E+00
         -1   -1    0    0    0  501 -0.00000000000E+00  0.00000000000E+00  0.68880801055E+01  0.68880819494E+01  0.50400000000E-02 0.  1.
          2   -1    0    0  501    0  0.00000000000E+00 -0.00000000000E+00 -0.22718382906E+03  0.22718382907E+03  0.25500000000E-02 0. -1.
         24    2    1    2    0    0  0.00000000000E+00  0.00000000000E+00 -0.22029574895E+03  0.23407191102E+03  0.79116638723E+02 0.  0.
         66    2    3    3    0    0  0.28691157304E+02  0.22873850912E+02 -0.15374623763E+03  0.15807688366E+03  0.19999995161E+01 0.  0.
        -13    1    3    3    0    0 -0.28691157304E+02 -0.22873850912E+02 -0.66549511319E+02  0.75995027363E+02  0.10566000000E+00 0.  1.
         13    1    4    4    0    0  0.62798855861E+01  0.57606495206E+01 -0.36743909304E+02  0.37719332985E+02  0.10566000000E+00 0.  1.
        -13    1    4    4    0    0  0.12350955664E+02  0.97958113679E+01 -0.67406154116E+02  0.69225030177E+02  0.10566000000E+00 0. -1.
        -14    1    4    4    0    0  0.10060316053E+02  0.73173900233E+01 -0.49596174213E+02  0.51132520498E+02  0.00000000000E+00 0.  1.
<mgrwt>
<rscale>  0 0.79116639E+02</rscale>
<asrwt>0</asrwt>
<pdfrwt beam="1">  1        2 0.34951353E-01 0.79116639E+02</pdfrwt>
<pdfrwt beam="2">  1       -1 0.10597050E-02 0.79116639E+02</pdfrwt>
<totfact> 0.23751847E+05</totfact>
</mgrwt>
</event>
<event>
 8    1  0.1627221E-013  0.7854813E+02  0.7818608E-02  0.1333223E+00
          2   -1    0    0  501    0  0.00000000000E+00  0.00000000000E+00  0.25225626638E+02  0.25225626767E+02  0.25500000000E-02 0. -1.
         -1   -1    0    0    0  501 -0.00000000000E+00 -0.00000000000E+00 -0.61146230982E+02  0.61146231189E+02  0.50400000000E-02 0.  1.
         24    2    1    2    0    0 -0.35527136788E-14  0.00000000000E+00 -0.35920604343E+02  0.86371857956E+02  0.78548125569E+02 0.  0.
         66    2    3    3    0    0  0.19560654702E+02  0.30446236529E+02 -0.12646386163E+01  0.36265574362E+02  0.20000104545E+01 0.  0.
        -13    1    3    3    0    0 -0.19560654702E+02 -0.30446236529E+02 -0.34655965727E+02  0.50106283595E+02  0.10566000000E+00 0.  1.
         13    1    4    4    0    0  0.43649868544E+01  0.72040447917E+01 -0.29976876310E+00  0.84292583865E+01  0.10566000000E+00 0. -1.
        -13    1    4    4    0    0  0.50917497475E+01  0.92675741361E+01 -0.31939586313E+00  0.10579556872E+02  0.10566000000E+00 0.  1.
        -14    1    4    4    0    0  0.10103918100E+02  0.13974617601E+02 -0.64547399006E+00  0.17256759103E+02  0.00000000000E+00 0.  1.
<mgrwt>
<rscale>  0 0.78548126E+02</rscale>
<asrwt>0</asrwt>
<pdfrwt beam="1">  1        2 0.38808657E-02 0.78548126E+02</pdfrwt>
<pdfrwt beam="2">  1       -1 0.94071125E-02 0.78548126E+02</pdfrwt>
<totfact> 0.13694038E+05</totfact>
</mgrwt>
</event>
<event>
 8    1  0.1627221E-013  0.8204066E+02  0.7818608E-02  0.1323358E+00
         -1   -1    0    0    0  501 -0.00000000000E+00  0.00000000000E+00  0.80805611805E+01  0.80805627522E+01  0.50400000000E-02 0.  1.
          2   -1    0    0  501    0  0.00000000000E+00 -0.00000000000E+00 -0.20823644139E+03  0.20823644141E+03  0.25500000000E-02 0. -1.
         24    2    1    2    0    0  0.00000000000E+00  0.00000000000E+00 -0.20015588021E+03  0.21631700416E+03  0.82040660075E+02 0.  0.
         66    2    3    3    0    0 -0.35961102076E+02  0.77448436184E+01 -0.14785206549E+03  0.15237262470E+03  0.20000063409E+01 0.  0.
        -13    1    3    3    0    0  0.35961102076E+02 -0.77448436184E+01 -0.52303814726E+02  0.63944379457E+02  0.10566000000E+00 0.  1.
         13    1    4    4    0    0 -0.15097417098E+02  0.32963440142E+01 -0.60101696955E+02  0.62056611475E+02  0.10566000000E+00 0. -1.
        -13    1    4    4    0    0 -0.58004014659E+01  0.11548338447E+01 -0.21934941189E+02  0.22718519040E+02  0.10566000000E+00 0.  1.
        -14    1    4    4    0    0 -0.15063283512E+02  0.32936657596E+01 -0.65815427342E+02  0.67597494188E+02  0.00000000000E+00 0.  1.
<mgrwt>
<rscale>  0 0.82040660E+02</rscale>
<asrwt>0</asrwt>
<pdfrwt beam="1">  1        2 0.32036372E-01 0.82040660E+02</pdfrwt>
<pdfrwt beam="2">  1       -1 0.12431635E-02 0.82040660E+02</pdfrwt>
<totfact> 0.20931682E+05</totfact>
</mgrwt>
</event>
<event>
 8    1  0.1627221E-013  0.8191553E+02  0.7818608E-02  0.1323702E+00
         -1   -1    0    0    0  501 -0.00000000000E+00  0.00000000000E+00  0.79487209465E+01  0.79487225443E+01  0.50400000000E-02 0.  1.
          2   -1    0    0  501    0  0.00000000000E+00 -0.00000000000E+00 -0.21104506364E+03  0.21104506365E+03  0.25500000000E-02 0. -1.
         24    2    1    2    0    0  0.71054273576E-14  0.44408920985E-15 -0.20309634269E+03  0.21899378620E+03  0.81915529532E+02 0.  0.
         66    2    3    3    0    0 -0.39157018848E+02 -0.27675142475E+01 -0.13262495924E+03  0.13832682698E+03  0.19999970032E+01 0.  0.
        -13    1    3    3    0    0  0.39157018848E+02  0.27675142475E+01 -0.70471383450E+02  0.80666959218E+02  0.10566000000E+00 0.  1.
         13    1    4    4    0    0 -0.10994704522E+02 -0.11467576986E+01 -0.38253812882E+02  0.39819140433E+02  0.10566000000E+00 0. -1.
        -13    1    4    4    0    0 -0.27889170917E+02 -0.17497025361E+01 -0.93367315627E+02  0.97459397212E+02  0.10566000000E+00 0.  1.
        -14    1    4    4    0    0 -0.27314340911E+00  0.12894598719E+00 -0.10038307312E+01  0.10482893334E+01  0.00000000000E+00 0.  1.
<mgrwt>
<rscale>  0 0.81915530E+02</rscale>
<asrwt>0</asrwt>
<pdfrwt beam="1">  1        2 0.32468467E-01 0.81915530E+02</pdfrwt>
<pdfrwt beam="2">  1       -1 0.12228804E-02 0.81915530E+02</pdfrwt>
<totfact> 0.21115454E+05</totfact>
</mgrwt>
</event>
<event>
 8    1  0.1627221E-013  0.7987325E+02  0.7818608E-02  0.1329412E+00
         -1   -1    0    0    0  501 -0.00000000000E+00  0.00000000000E+00  0.24890007250E+01  0.24890058278E+01  0.50400000000E-02 0.  1.
          2   -1    0    0  501    0  0.00000000000E+00 -0.00000000000E+00 -0.64079230886E+03  0.64079230887E+03  0.25500000000E-02 0. -1.
         24    2    1    2    0    0  0.00000000000E+00  0.00000000000E+00 -0.63830330814E+03  0.64328131469E+03  0.79873253702E+02 0.  0.
         66    2    3    3    0    0  0.64613914480E+01  0.13177877348E+02 -0.61826709948E+03  0.61844451030E+03  0.19999997147E+01 0.  0.
        -13    1    3    3    0    0 -0.64613914480E+01 -0.13177877348E+02 -0.20036208661E+02  0.24836804392E+02  0.10566000000E+00 0.  1.
         13    1    4    4    0    0  0.32109041795E+01  0.71604404043E+01 -0.31839197494E+03  0.31848868533E+03  0.10566000000E+00 0. -1.
        -13    1    4    4    0    0  0.18332921617E+01  0.21697476626E+01 -0.11334218952E+03  0.11337782788E+03  0.10566000000E+00 0.  1.
         14    1    4    4    0    0  0.14171951069E+01  0.38476892813E+01 -0.18653293502E+03  0.18657799710E+03  0.00000000000E+00 0. -1.
<mgrwt>
<rscale>  0 0.79873254E+02</rscale>
<asrwt>0</asrwt>
<pdfrwt beam="1">  1        2 0.98583301E-01 0.79873254E+02</pdfrwt>
<pdfrwt beam="2">  1       -1 0.38292409E-03 0.79873254E+02</pdfrwt>
<totfact> 0.32872518E+05</totfact>
</mgrwt>
</event>
<event>
 8    1  0.1627221E-013  0.8074454E+02  0.7818608E-02  0.1326952E+00
          2   -1    0    0  501    0  0.00000000000E+00  0.00000000000E+00  0.28169969695E+03  0.28169969696E+03  0.25500000000E-02 0. -1.
         -1   -1    0    0    0  501 -0.00000000000E+00 -0.00000000000E+00 -0.57860187485E+01  0.57860209436E+01  0.50400000000E-02 0.  1.
         24    2    1    2    0    0 -0.17763568394E-14  0.17763568394E-14  0.27591367820E+03  0.28748571791E+03  0.80744536538E+02 0.  0.
         66    2    3    3    0    0 -0.12200831866E+02  0.13630411184E+02  0.26608168666E+03  0.26671728925E+03  0.19999999201E+01 0.  0.
        -13    1    3    3    0    0  0.12200831866E+02 -0.13630411184E+02  0.98319915428E+01  0.20768428660E+02  0.10566000000E+00 0.  1.
         13    1    4    4    0    0 -0.45453475920E+01  0.51686240212E+01  0.97815907262E+02  0.98057828532E+02  0.10566000000E+00 0. -1.
        -13    1    4    4    0    0 -0.70817164291E+01  0.71169933935E+01  0.14391656016E+03  0.14426638470E+03  0.10566000000E+00 0.  1.
        -14    1    4    4    0    0 -0.57376784503E+00  0.13447937698E+01  0.24349219238E+02  0.24393076012E+02  0.00000000000E+00 0.  1.
<mgrwt>
<rscale>  0 0.80744537E+02</rscale>
<asrwt>0</asrwt>
<pdfrwt beam="1">  1        2 0.43338427E-01 0.80744537E+02</pdfrwt>
<pdfrwt beam="2">  1       -1 0.89015665E-03 0.80744537E+02</pdfrwt>
<totfact> 0.24321023E+05</totfact>
</mgrwt>
</event>
<event>
 8    1  0.1627221E-013  0.7781912E+02  0.7818608E-02  0.1335357E+00
         -1   -1    0    0    0  501 -0.00000000000E+00  0.00000000000E+00  0.17241532220E+01  0.17241605884E+01  0.50400000000E-02 0.  1.
          2   -1    0    0  501    0  0.00000000000E+00 -0.00000000000E+00 -0.87808347716E+03  0.87808347716E+03  0.25500000000E-02 0. -1.
         24    2    1    2    0    0  0.35527136788E-14 -0.17763568394E-14 -0.87635932394E+03  0.87980763775E+03  0.77819115864E+02 0.  0.
         66    2    3    3    0    0  0.11476643928E+02 -0.12852468082E+02 -0.83256100663E+03  0.83274169407E+03  0.19999974513E+01 0.  0.
        -13    1    3    3    0    0 -0.11476643928E+02  0.12852468082E+02 -0.43798317307E+02  0.47065943681E+02  0.10566000000E+00 0.  1.
         13    1    4    4    0    0  0.97007481242E+01 -0.10035272545E+02 -0.65784529068E+03  0.65799335015E+03  0.10566000000E+00 0. -1.
        -13    1    4    4    0    0  0.14711469444E+01 -0.26178474030E+01 -0.15181074295E+03  0.15184047628E+03  0.10566000000E+00 0.  1.
        -14    1    4    4    0    0  0.30474885887E+00 -0.19934813421E+00 -0.22904973005E+02  0.22907867642E+02  0.00000000000E+00 0.  1.
<mgrwt>
<rscale>  0 0.77819116E+02</rscale>
<asrwt>0</asrwt>
<pdfrwt beam="1">  1        2 0.13508941E+00 0.77819116E+02</pdfrwt>
<pdfrwt beam="2">  1       -1 0.26525561E-03 0.77819116E+02</pdfrwt>
<totfact> 0.37434968E+05</totfact>
</mgrwt>
</event>
<event>
 8    1  0.1627221E-013  0.7901548E+02  0.7818608E-02  0.1331869E+00
          2   -1    0    0  501    0  0.00000000000E+00  0.00000000000E+00  0.62133222115E+02  0.62133222167E+02  0.25500000000E-02 0. -1.
         -1   -1    0    0    0  501 -0.00000000000E+00 -0.00000000000E+00 -0.25121204710E+02  0.25121205216E+02  0.50400000000E-02 0.  1.
         24    2    1    2    0    0  0.00000000000E+00  0.00000000000E+00  0.37012017405E+02  0.87254427383E+02  0.79015477380E+02 0.  0.
         66    2    3    3    0    0  0.27213332810E+02  0.13272737256E+02  0.46500249876E+02  0.55524807839E+02  0.20000025354E+01 0.  0.
        -13    1    3    3    0    0 -0.27213332810E+02 -0.13272737256E+02 -0.94882324713E+01  0.31729619543E+02  0.10566000000E+00 0.  1.
         13    1    4    4    0    0  0.81284206766E+01  0.33506715108E+01  0.13718731407E+02  0.16294568964E+02  0.10566000000E+00 0. -1.
        -13    1    4    4    0    0  0.70496645220E+01  0.29996380330E+01  0.11322130341E+02  0.13671042305E+02  0.10566000000E+00 0.  1.
         14    1    4    4    0    0  0.12035247612E+02  0.69224277120E+01  0.21459388128E+02  0.25559196571E+02  0.00000000000E+00 0. -1.
<mgrwt>
<rscale>  0 0.79015477E+02</rscale>
<asrwt>0</asrwt>
<pdfrwt beam="1">  1        2 0.95589573E-02 0.79015477E+02</pdfrwt>
<pdfrwt beam="2">  1       -1 0.38648008E-02 0.79015477E+02</pdfrwt>
<totfact> 0.16229676E+05</totfact>
</mgrwt>
</event>
<event>
 8    1  0.1627221E-013  0.8033357E+02  0.7818608E-02  0.1328107E+00
         -1   -1    0    0    0  501 -0.00000000000E+00  0.00000000000E+00  0.18264789326E+01  0.18264858863E+01  0.50400000000E-02 0.  1.
          2   -1    0    0  501    0  0.00000000000E+00 -0.00000000000E+00 -0.88332120873E+03  0.88332120873E+03  0.25500000000E-02 0. -1.
         24    2    1    2    0    0 -0.35527136788E-14  0.00000000000E+00 -0.88149472979E+03  0.88514769462E+03  0.80333571005E+02 0.  0.
         66    2    3    3    0    0 -0.21893583750E+02 -0.17325039683E+02 -0.75881615283E+03  0.75933223285E+03  0.20000101817E+01 0.  0.
        -13    1    3    3    0    0  0.21893583750E+02  0.17325039683E+02 -0.12267857696E+03  0.12581546176E+03  0.10566000000E+00 0.  1.
         13    1    4    4    0    0 -0.95191746977E+01 -0.86380285252E+01 -0.34401136251E+03  0.34425144724E+03  0.10566000000E+00 0. -1.
        -13    1    4    4    0    0 -0.10167293413E+02 -0.74402134496E+01 -0.34514530545E+03  0.34537519261E+03  0.10566000000E+00 0.  1.
        -14    1    4    4    0    0 -0.22071156398E+01 -0.12467977080E+01 -0.69659484868E+02  0.69705593004E+02  0.00000000000E+00 0.  1.
<mgrwt>
<rscale>  0 0.80333571E+02</rscale>
<asrwt>0</asrwt>
<pdfrwt beam="1">  1        2 0.13589523E+00 0.80333571E+02</pdfrwt>
<pdfrwt beam="2">  1       -1 0.28099800E-03 0.80333571E+02</pdfrwt>
<totfact> 0.34496337E+05</totfact>
</mgrwt>
</event>
<event>
 8    1  0.1627221E-013  0.7777184E+02  0.7818608E-02  0.1335496E+00
         -1   -1    0    0    0  501 -0.00000000000E+00  0.00000000000E+00  0.28180177204E+01  0.28180222274E+01  0.50400000000E-02 0.  1.
          2   -1    0    0  501    0  0.00000000000E+00 -0.00000000000E+00 -0.53658761793E+03  0.53658761793E+03  0.25500000000E-02 0. -1.
         24    2    1    2    0    0 -0.88817841970E-15 -0.17763568394E-14 -0.53376960021E+03  0.53940564016E+03  0.77771836369E+02 0.  0.
         66    2    3    3    0    0 -0.53081358286E+01 -0.10507968343E+02 -0.52391908479E+03  0.52405515083E+03  0.19999997885E+01 0.  0.
        -13    1    3    3    0    0  0.53081358286E+01  0.10507968343E+02 -0.98505154158E+01  0.15350489330E+02  0.10566000000E+00 0.  1.
         13    1    4    4    0    0 -0.25752995337E+01 -0.63334702045E+01 -0.30273979525E+03  0.30281700712E+03  0.10566000000E+00 0. -1.
        -13    1    4    4    0    0 -0.10829185299E+00 -0.84921348282E+00 -0.40785279301E+02  0.40794399890E+02  0.10566000000E+00 0.  1.
         14    1    4    4    0    0 -0.26245444419E+01 -0.33252846561E+01 -0.18039401024E+03  0.18044374382E+03  0.00000000000E+00 0. -1.
<mgrwt>
<rscale>  0 0.77771836E+02</rscale>
<asrwt>0</asrwt>
<pdfrwt beam="1">  1        2 0.82551860E-01 0.77771836E+02</pdfrwt>
<pdfrwt beam="2">  1       -1 0.43354196E-03 0.77771836E+02</pdfrwt>
<totfact> 0.33502540E+05</totfact>
</mgrwt>
</event>
<event>
 8    1  0.1627221E-013  0.7935007E+02  0.7818608E-02  0.1330906E+00
         -1   -1    0    0    0  501 -0.00000000000E+00  0.00000000000E+00  0.11435356227E+02  0.11435357337E+02  0.50400000000E-02 0.  1.
          2   -1    0    0  501    0  0.00000000000E+00 -0.00000000000E+00 -0.13765275280E+03  0.13765275282E+03  0.25500000000E-02 0. -1.
         24    2    1    2    0    0 -0.35527136788E-14  0.17763568394E-14 -0.12621739657E+03  0.14908811016E+03  0.79350068642E+02 0.  0.
         66    2    3    3    0    0  0.25702338493E+02 -0.72944563638E+01 -0.11819283656E+03  0.12119144324E+03  0.20000008800E+01 0.  0.
        -13    1    3    3    0    0 -0.25702338493E+02  0.72944563638E+01 -0.80245600121E+01  0.27896666917E+02  0.10566000000E+00 0.  1.
         13    1    4    4    0    0  0.48031714365E+01 -0.14761152915E+01 -0.22023691261E+02  0.22589898472E+02  0.10566000000E+00 0. -1.
        -13    1    4    4    0    0  0.30052145946E+01 -0.13520094388E+01 -0.16397474075E+02  0.16725655872E+02  0.10566000000E+00 0.  1.
        -14    1    4    4    0    0  0.17893952462E+02 -0.44663316335E+01 -0.79771671222E+02  0.81875888896E+02  0.00000000000E+00 0.  1.
<mgrwt>
<rscale>  0 0.79350069E+02</rscale>
<asrwt>0</asrwt>
<pdfrwt beam="1">  1        2 0.21177345E-01 0.79350069E+02</pdfrwt>
<pdfrwt beam="2">  1       -1 0.17592858E-02 0.79350069E+02</pdfrwt>
<totfact> 0.19917208E+05</totfact>
</mgrwt>
</event>
<event>
 8    1  0.1627221E-013  0.8023063E+02  0.7818608E-02  0.1328398E+00
          2   -1    0    0  501    0  0.00000000000E+00  0.00000000000E+00  0.94215803329E+02  0.94215803363E+02  0.25500000000E-02 0. -1.
         -1   -1    0    0    0  501 -0.00000000000E+00 -0.00000000000E+00 -0.17080345271E+02  0.17080346014E+02  0.50400000000E-02 0.  1.
         24    2    1    2    0    0  0.00000000000E+00  0.00000000000E+00  0.77135458058E+02  0.11129614938E+03  0.80230629914E+02 0.  0.
         66    2    3    3    0    0 -0.38519744372E+02  0.31890255918E+01  0.53356897377E+02  0.65915848554E+02  0.20000005633E+01 0.  0.
        -13    1    3    3    0    0  0.38519744372E+02 -0.31890255918E+01  0.23778560681E+02  0.45380300823E+02  0.10566000000E+00 0.  1.
         13    1    4    4    0    0 -0.12421837127E+02  0.12483089558E+01  0.17277997088E+02  0.21316675638E+02  0.10566000000E+00 0. -1.
        -13    1    4    4    0    0 -0.31762109082E+01  0.70241595294E+00  0.48638520368E+01  0.58523435114E+01  0.10566000000E+00 0.  1.
        -14    1    4    4    0    0 -0.22921696337E+02  0.12383006830E+01  0.31215048252E+02  0.38746829404E+02  0.00000000000E+00 0.  1.
<mgrwt>
<rscale>  0 0.80230630E+02</rscale>
<asrwt>0</asrwt>
<pdfrwt beam="1">  1        2 0.14494739E-01 0.80230630E+02</pdfrwt>
<pdfrwt beam="2">  1       -1 0.26277454E-02 0.80230630E+02</pdfrwt>
<totfact> 0.17301750E+05</totfact>
</mgrwt>
</event>
<event>
 8    1  0.1627221E-013  0.8012678E+02  0.7818608E-02  0.1328692E+00
          2   -1    0    0  501    0  0.00000000000E+00  0.00000000000E+00  0.19000340755E+03  0.19000340757E+03  0.25500000000E-02 0. -1.
         -1   -1    0    0    0  501 -0.00000000000E+00 -0.00000000000E+00 -0.84476110464E+01  0.84476125499E+01  0.50400000000E-02 0.  1.
         24    2    1    2    0    0  0.00000000000E+00  0.00000000000E+00  0.18155579650E+03  0.19845102012E+03  0.80126775434E+02 0.  0.
         66    2    3    3    0    0 -0.72040748219E+00 -0.21155749971E+02  0.17500557182E+03  0.17629246982E+03  0.20000008574E+01 0.  0.
        -13    1    3    3    0    0  0.72040748219E+00  0.21155749971E+02  0.65502246825E+01  0.22158550296E+02  0.10566000000E+00 0.  1.
         13    1    4    4    0    0 -0.10547231470E+01 -0.12306307017E+02  0.10380679029E+03  0.10453907646E+03  0.10566000000E+00 0. -1.
        -13    1    4    4    0    0 -0.22383170529E+00 -0.16977719235E+01  0.12173123868E+02  0.12293438855E+02  0.10566000000E+00 0.  1.
        -14    1    4    4    0    0  0.55814737007E+00 -0.71516710305E+01  0.59025657662E+02  0.59459954503E+02  0.00000000000E+00 0.  1.
<mgrwt>
<rscale>  0 0.80126775E+02</rscale>
<asrwt>0</asrwt>
<pdfrwt beam="1">  1        2 0.29231295E-01 0.80126775E+02</pdfrwt>
<pdfrwt beam="2">  1       -1 0.12996325E-02 0.80126775E+02</pdfrwt>
<totfact> 0.21580755E+05</totfact>
</mgrwt>
</event>
<event>
 8    1  0.1627221E-013  0.8017362E+02  0.7818608E-02  0.1328559E+00
          2   -1    0    0  501    0  0.00000000000E+00  0.00000000000E+00  0.11550676839E+03  0.11550676841E+03  0.25500000000E-02 0. -1.
         -1   -1    0    0    0  501 -0.00000000000E+00 -0.00000000000E+00 -0.13912190401E+02  0.13912191314E+02  0.50400000000E-02 0.  1.
         24    2    1    2    0    0  0.00000000000E+00  0.35527136788E-14  0.10159457798E+03  0.12941895973E+03  0.80173616988E+02 0.  0.
         66    2    3    3    0    0 -0.26216520915E+02 -0.27087676564E+02  0.72719337079E+02  0.81933815820E+02  0.19999997681E+01 0.  0.
        -13    1    3    3    0    0  0.26216520915E+02  0.27087676564E+02  0.28875240905E+02  0.47485143907E+02  0.10566000000E+00 0.  1.
         13    1    4    4    0    0 -0.10666315898E+02 -0.10602671727E+02  0.27562780351E+02  0.31399123671E+02  0.10566000000E+00 0. -1.
        -13    1    4    4    0    0 -0.66511721050E+01 -0.74177766073E+01  0.20837332123E+02  0.23096906161E+02  0.10566000000E+00 0.  1.
        -14    1    4    4    0    0 -0.88990329114E+01 -0.90672282295E+01  0.24319224604E+02  0.27437785987E+02  0.00000000000E+00 0.  1.
<mgrwt>
<rscale>  0 0.80173617E+02</rscale>
<asrwt>0</asrwt>
<pdfrwt beam="1">  1        2 0.17770272E-01 0.80173617E+02</pdfrwt>
<pdfrwt beam="2">  1       -1 0.21403370E-02 0.80173617E+02</pdfrwt>
<totfact> 0.18369271E+05</totfact>
</mgrwt>
</event>
<event>
 8    1  0.1627221E-013  0.8054665E+02  0.7818608E-02  0.1327507E+00
         -1   -1    0    0    0  501 -0.00000000000E+00  0.00000000000E+00  0.63178899911E+01  0.63178920014E+01  0.50400000000E-02 0.  1.
          2   -1    0    0  501    0  0.00000000000E+00 -0.00000000000E+00 -0.25672185931E+03  0.25672185933E+03  0.25500000000E-02 0. -1.
         24    2    1    2    0    0 -0.17763568394E-14  0.00000000000E+00 -0.25040396932E+03  0.26303975133E+03  0.80546650620E+02 0.  0.
         66    2    3    3    0    0  0.12213884729E+02  0.35452821126E+02 -0.17303550136E+03  0.17706317019E+03  0.19999998014E+01 0.  0.
        -13    1    3    3    0    0 -0.12213884729E+02 -0.35452821126E+02 -0.77368467959E+02  0.85976581139E+02  0.10566000000E+00 0.  1.
         13    1    4    4    0    0  0.11333848708E+02  0.32434301253E+02 -0.15888922546E+03  0.16256148730E+03  0.10566000000E+00 0. -1.
        -13    1    4    4    0    0  0.59920357934E+00  0.25313318092E+01 -0.12259823739E+02  0.12533201019E+02  0.10566000000E+00 0.  1.
         14    1    4    4    0    0  0.28083244207E+00  0.48718806436E+00 -0.18864521693E+01  0.19684818663E+01  0.00000000000E+00 0. -1.
<mgrwt>
<rscale>  0 0.80546651E+02</rscale>
<asrwt>0</asrwt>
<pdfrwt beam="1">  1        2 0.39495663E-01 0.80546651E+02</pdfrwt>
<pdfrwt beam="2">  1       -1 0.97198343E-03 0.80546651E+02</pdfrwt>
<totfact> 0.23669067E+05</totfact>
</mgrwt>
</event>
<event>
 8    1  0.1627221E-013  0.8318729E+02  0.7818608E-02  0.1320242E+00
         -1   -1    0    0    0  501 -0.00000000000E+00  0.00000000000E+00  0.19362063111E+02  0.19362063767E+02  0.50400000000E-02 0.  1.
          2   -1    0    0  501    0  0.00000000000E+00 -0.00000000000E+00 -0.89351600907E+02  0.89351600943E+02  0.25500000000E-02 0. -1.
         24    2    1    2    0    0  0.00000000000E+00  0.00000000000E+00 -0.69989537796E+02  0.10871366471E+03  0.83187291661E+02 0.  0.
         66    2    3    3    0    0 -0.80524045286E+01  0.39953206953E+02 -0.45706128152E+02  0.61271119327E+02  0.19999870823E+01 0.  0.
        -13    1    3    3    0    0  0.80524045286E+01 -0.39953206953E+02 -0.24283409644E+02  0.47442545384E+02  0.10566000000E+00 0.  1.
         13    1    4    4    0    0 -0.54001742652E+00  0.34602187719E+01 -0.34737295538E+01  0.49338315556E+01  0.10566000000E+00 0. -1.
        -13    1    4    4    0    0 -0.33718666159E+01  0.13080158915E+02 -0.15621381929E+02  0.20651846869E+02  0.10566000000E+00 0.  1.
         14    1    4    4    0    0 -0.41405204862E+01  0.23412829266E+02 -0.26611016670E+02  0.35685440902E+02  0.00000000000E+00 0. -1.
<mgrwt>
<rscale>  0 0.83187292E+02</rscale>
<asrwt>0</asrwt>
<pdfrwt beam="1">  1        2 0.13746400E-01 0.83187292E+02</pdfrwt>
<pdfrwt beam="2">  1       -1 0.29787790E-02 0.83187292E+02</pdfrwt>
<totfact> 0.15470614E+05</totfact>
</mgrwt>
</event>
<event>
 8    1  0.1627221E-013  0.7340714E+02  0.7818608E-02  0.1348876E+00
          2   -1    0    0  501    0  0.00000000000E+00  0.00000000000E+00  0.37974045336E+03  0.37974045336E+03  0.25500000000E-02 0. -1.
         -1   -1    0    0    0  501 -0.00000000000E+00 -0.00000000000E+00 -0.35475579257E+01  0.35475615059E+01  0.50400000000E-02 0.  1.
         24    2    1    2    0    0  0.00000000000E+00  0.00000000000E+00  0.37619289543E+03  0.38328801487E+03  0.73407137059E+02 0.  0.
         66    2    3    3    0    0  0.24672150406E+02  0.26766401118E+02  0.21158175654E+03  0.21469977849E+03  0.19999873451E+01 0.  0.
        -13    1    3    3    0    0 -0.24672150406E+02 -0.26766401118E+02  0.16461113889E+03  0.16858823638E+03  0.10566000000E+00 0.  1.
         13    1    4    4    0    0  0.44143737639E+01  0.39155392122E+01  0.34507526437E+02  0.35008551639E+02  0.10566000000E+00 0. -1.
        -13    1    4    4    0    0  0.73229674144E+01  0.79215765032E+01  0.65182395045E+02  0.66069153270E+02  0.10566000000E+00 0.  1.
         14    1    4    4    0    0  0.12934809228E+02  0.14929285402E+02  0.11189183506E+03  0.11362207358E+03  0.00000000000E+00 0. -1.
<mgrwt>
<rscale>  0 0.73407137E+02</rscale>
<asrwt>0</asrwt>
<pdfrwt beam="1">  1        2 0.58421604E-01 0.73407137E+02</pdfrwt>
<pdfrwt beam="2">  1       -1 0.54577846E-03 0.73407137E+02</pdfrwt>
<totfact> 0.34698540E+05</totfact>
</mgrwt>
</event>
<event>
 8    1  0.1627221E-013  0.8124968E+02  0.7818608E-02  0.1325542E+00
         -1   -1    0    0    0  501 -0.00000000000E+00  0.00000000000E+00  0.11473060501E+02  0.11473061608E+02  0.50400000000E-02 0.  1.
          2   -1    0    0  501    0  0.00000000000E+00 -0.00000000000E+00 -0.14384806466E+03  0.14384806469E+03  0.25500000000E-02 0. -1.
         24    2    1    2    0    0  0.00000000000E+00  0.00000000000E+00 -0.13237500416E+03  0.15532112630E+03  0.81249680284E+02 0.  0.
         66    2    3    3    0    0 -0.53700291994E+01  0.38450695743E+02 -0.43521489425E+02  0.58355918812E+02  0.20000004988E+01 0.  0.
        -13    1    3    3    0    0  0.53700291994E+01 -0.38450695743E+02 -0.88853514739E+02  0.96965207483E+02  0.10566000000E+00 0.  1.
         13    1    4    4    0    0 -0.15646179801E+01  0.10898082004E+02 -0.12520493203E+02  0.16673036163E+02  0.10566000000E+00 0. -1.
        -13    1    4    4    0    0 -0.27820933754E+01  0.15278047276E+02 -0.18013273432E+02  0.23783354597E+02  0.10566000000E+00 0.  1.
        -14    1    4    4    0    0 -0.10233178439E+01  0.12274566463E+02 -0.12987722789E+02  0.17899528053E+02  0.00000000000E+00 0.  1.
<mgrwt>
<rscale>  0 0.81249680E+02</rscale>
<asrwt>0</asrwt>
<pdfrwt beam="1">  1        2 0.22130470E-01 0.81249680E+02</pdfrwt>
<pdfrwt beam="2">  1       -1 0.17650864E-02 0.81249680E+02</pdfrwt>
<totfact> 0.18965506E+05</totfact>
</mgrwt>
</event>
<event>
 8    1  0.1627221E-013  0.7153248E+02  0.7818608E-02  0.1354958E+00
          2   -1    0    0  501    0  0.00000000000E+00  0.00000000000E+00  0.12315108391E+03  0.12315108393E+03  0.25500000000E-02 0. -1.
         -1   -1    0    0    0  501 -0.00000000000E+00 -0.00000000000E+00 -0.10387433797E+02  0.10387435020E+02  0.50400000000E-02 0.  1.
         24    2    1    2    0    0  0.71054273576E-14  0.17763568394E-14  0.11276365011E+03  0.13353851895E+03  0.71532476947E+02 0.  0.
         66    2    3    3    0    0 -0.32103347776E+02 -0.12290119822E+02  0.74673633248E+02  0.82230307795E+02  0.20000084926E+01 0.  0.
        -13    1    3    3    0    0  0.32103347776E+02  0.12290119822E+02  0.38090016863E+02  0.51308211159E+02  0.10566000000E+00 0.  1.
         13    1    4    4    0    0 -0.51988324430E+01 -0.16090470621E+01  0.11020710721E+02  0.12291628047E+02  0.10566000000E+00 0. -1.
        -13    1    4    4    0    0 -0.23591007557E+02 -0.94312636535E+01  0.54771865961E+02  0.60377585547E+02  0.10566000000E+00 0.  1.
        -14    1    4    4    0    0 -0.33135077767E+01 -0.12498091058E+01  0.88810565658E+01  0.95610942006E+01  0.00000000000E+00 0.  1.
<mgrwt>
<rscale>  0 0.71532477E+02</rscale>
<asrwt>0</asrwt>
<pdfrwt beam="1">  1        2 0.18946319E-01 0.71532477E+02</pdfrwt>
<pdfrwt beam="2">  1       -1 0.15980670E-02 0.71532477E+02</pdfrwt>
<totfact> 0.25320094E+05</totfact>
</mgrwt>
</event>
<event>
 8    1  0.1627221E-013  0.7854501E+02  0.7818608E-02  0.1333232E+00
         -1   -1    0    0    0  501 -0.00000000000E+00  0.00000000000E+00  0.54100082769E+02  0.54100083004E+02  0.50400000000E-02 0.  1.
          2   -1    0    0  501    0  0.00000000000E+00 -0.00000000000E+00 -0.28508824131E+02  0.28508824245E+02  0.25500000000E-02 0. -1.
         24    2    1    2    0    0  0.35527136788E-14  0.00000000000E+00  0.25591258638E+02  0.82608907249E+02  0.78545012816E+02 0.  0.
         66    2    3    3    0    0 -0.13367897124E+02 -0.32366256377E+02  0.31442248948E+02  0.47105097918E+02  0.20000014123E+01 0.  0.
        -13    1    3    3    0    0  0.13367897124E+02  0.32366256377E+02 -0.58509903102E+01  0.35503809331E+02  0.10566000000E+00 0.  1.
         13    1    4    4    0    0 -0.46246680055E+01 -0.99972686826E+01  0.90437327431E+01  0.14252480529E+02  0.10566000000E+00 0. -1.
        -13    1    4    4    0    0 -0.31824844124E+01 -0.82689892492E+01  0.88369462801E+01  0.12514278798E+02  0.10566000000E+00 0.  1.
        -14    1    4    4    0    0 -0.55607447057E+01 -0.14099998445E+02  0.13561569925E+02  0.20338338591E+02  0.00000000000E+00 0.  1.
<mgrwt>
<rscale>  0 0.78545013E+02</rscale>
<asrwt>0</asrwt>
<pdfrwt beam="1">  1        2 0.43859729E-02 0.78545013E+02</pdfrwt>
<pdfrwt beam="2">  1       -1 0.83230897E-02 0.78545013E+02</pdfrwt>
<totfact> 0.14024699E+05</totfact>
</mgrwt>
</event>
<event>
 8    1  0.1627221E-013  0.8160104E+02  0.7818608E-02  0.1324568E+00
          2   -1    0    0  501    0  0.00000000000E+00  0.00000000000E+00  0.12259262777E+04  0.12259262777E+04  0.25500000000E-02 0. -1.
         -1   -1    0    0    0  501 -0.00000000000E+00 -0.00000000000E+00 -0.13578930829E+01  0.13579024362E+01  0.50400000000E-02 0.  1.
         24    2    1    2    0    0  0.00000000000E+00  0.17763568394E-14  0.12245683847E+04  0.12272841802E+04  0.81601042981E+02 0.  0.
         66    2    3    3    0    0  0.20162667739E+02 -0.13282164440E+02  0.11068554908E+04  0.11071206017E+04  0.20000002483E+01 0.  0.
        -13    1    3    3    0    0 -0.20162667739E+02  0.13282164440E+02  0.11771289381E+03  0.12016357849E+03  0.10566000000E+00 0.  1.
         13    1    4    4    0    0  0.44202708238E+01 -0.29098755388E+01  0.26266747209E+03  0.26272079900E+03  0.10566000000E+00 0. -1.
        -13    1    4    4    0    0  0.15501189964E+01 -0.53912261505E+00  0.74574641938E+02  0.74592773821E+02  0.10566000000E+00 0.  1.
         14    1    4    4    0    0  0.14192277919E+02 -0.98331662864E+01  0.76961337682E+03  0.76980702887E+03  0.00000000000E+00 0. -1.
<mgrwt>
<rscale>  0 0.81601043E+02</rscale>
<asrwt>0</asrwt>
<pdfrwt beam="1">  1        2 0.18860344E+00 0.81601043E+02</pdfrwt>
<pdfrwt beam="2">  1       -1 0.20890802E-03 0.81601043E+02</pdfrwt>
<totfact> 0.33193398E+05</totfact>
</mgrwt>
</event>
<event>
 8    1  0.1627221E-013  0.8092667E+02  0.7818608E-02  0.1326442E+00
         -1   -1    0    0    0  501 -0.00000000000E+00  0.00000000000E+00  0.43373650046E+01  0.43373679329E+01  0.50400000000E-02 0.  1.
          2   -1    0    0  501    0  0.00000000000E+00 -0.00000000000E+00 -0.37748285133E+03  0.37748285134E+03  0.25500000000E-02 0. -1.
         24    2    1    2    0    0  0.00000000000E+00  0.00000000000E+00 -0.37314548632E+03  0.38182021927E+03  0.80926669766E+02 0.  0.
         66    2    3    3    0    0  0.32217316696E+02 -0.10064242829E+02 -0.29176687223E+03  0.29371951283E+03  0.20000023169E+01 0.  0.
        -13    1    3    3    0    0 -0.32217316696E+02  0.10064242829E+02 -0.81378614094E+02  0.88100706437E+02  0.10566000000E+00 0.  1.
         13    1    4    4    0    0  0.12601741827E+02 -0.33818863171E+01 -0.11327870172E+03  0.11402770049E+03  0.10566000000E+00 0. -1.
        -13    1    4    4    0    0  0.12842814722E+02 -0.46418624996E+01 -0.12233977172E+03  0.12309961692E+03  0.10566000000E+00 0.  1.
        -14    1    4    4    0    0  0.67727601462E+01 -0.20404940122E+01 -0.56148398791E+02  0.56592195421E+02  0.00000000000E+00 0.  1.
<mgrwt>
<rscale>  0 0.80926670E+02</rscale>
<asrwt>0</asrwt>
<pdfrwt beam="1">  1        2 0.58074259E-01 0.80926670E+02</pdfrwt>
<pdfrwt beam="2">  1       -1 0.66728745E-03 0.80926670E+02</pdfrwt>
<totfact> 0.26861620E+05</totfact>
</mgrwt>
</event>
<event>
 8    1  0.1627221E-013  0.7930639E+02  0.7818608E-02  0.1331031E+00
          2   -1    0    0  501    0  0.00000000000E+00  0.00000000000E+00  0.14444874448E+02  0.14444874673E+02  0.25500000000E-02 0. -1.
         -1   -1    0    0    0  501 -0.00000000000E+00 -0.00000000000E+00 -0.10885353974E+03  0.10885353985E+03  0.50400000000E-02 0.  1.
         24    2    1    2    0    0  0.71054273576E-14 -0.55511151231E-16 -0.94408665287E+02  0.12329841452E+03  0.79306386521E+02 0.  0.
         66    2    3    3    0    0 -0.36870562065E+02  0.48062587740E+00 -0.24666788643E+02  0.44408555417E+02  0.19999960110E+01 0.  0.
        -13    1    3    3    0    0  0.36870562065E+02 -0.48062587740E+00 -0.69741876644E+02  0.78889859108E+02  0.10566000000E+00 0.  1.
         13    1    4    4    0    0 -0.49317648535E+01  0.11671458081E+00 -0.39800186740E+01  0.63393721727E+01  0.10566000000E+00 0. -1.
        -13    1    4    4    0    0 -0.20055594232E+02  0.49674059543E+00 -0.13496249996E+02  0.24179196413E+02  0.10566000000E+00 0.  1.
        -14    1    4    4    0    0 -0.11883202979E+02 -0.13282929884E+00 -0.71905199738E+01  0.13889986831E+02  0.00000000000E+00 0.  1.
<mgrwt>
<rscale>  0 0.79306387E+02</rscale>
<asrwt>0</asrwt>
<pdfrwt beam="1">  1        2 0.22222885E-02 0.79306387E+02</pdfrwt>
<pdfrwt beam="2">  1       -1 0.16746698E-01 0.79306387E+02</pdfrwt>
<totfact> 0.11892712E+05</totfact>
</mgrwt>
</event>
<event>
 8    1  0.1627221E-013  0.8471340E+02  0.7818608E-02  0.1316184E+00
         -1   -1    0    0    0  501 -0.00000000000E+00  0.00000000000E+00  0.59800869784E+01  0.59800891023E+01  0.50400000000E-02 0.  1.
          2   -1    0    0  501    0  0.00000000000E+00 -0.00000000000E+00 -0.30001065457E+03  0.30001065458E+03  0.25500000000E-02 0. -1.
         24    2    1    2    0    0  0.00000000000E+00  0.35527136788E-14 -0.29403056760E+03  0.30599074369E+03  0.84713402373E+02 0.  0.
         66    2    3    3    0    0  0.14583648399E+02  0.21423725480E+02 -0.26800298730E+03  0.26926058014E+03  0.20000005782E+01 0.  0.
        -13    1    3    3    0    0 -0.14583648399E+02 -0.21423725480E+02 -0.26027580298E+02  0.36730163548E+02  0.10566000000E+00 0.  1.
         13    1    4    4    0    0  0.27381268280E+01  0.43269354243E+01 -0.56327140103E+02  0.56559504815E+02  0.10566000000E+00 0. -1.
        -13    1    4    4    0    0  0.86759727049E+01  0.11286957013E+02 -0.14256358870E+03  0.14327266274E+03  0.10566000000E+00 0.  1.
        -14    1    4    4    0    0  0.31695488663E+01  0.58098330423E+01 -0.69112258490E+02  0.69428412581E+02  0.00000000000E+00 0.  1.
<mgrwt>
<rscale>  0 0.84713402E+02</rscale>
<asrwt>0</asrwt>
<pdfrwt beam="1">  1        2 0.46155474E-01 0.84713402E+02</pdfrwt>
<pdfrwt beam="2">  1       -1 0.92001378E-03 0.84713402E+02</pdfrwt>
<totfact> 0.21932252E+05</totfact>
</mgrwt>
</event>
<event>
 8    1  0.1627221E-013  0.7939002E+02  0.7818608E-02  0.1330791E+00
         -1   -1    0    0    0  501 -0.00000000000E+00  0.00000000000E+00  0.18320688338E+02  0.18320689031E+02  0.50400000000E-02 0.  1.
          2   -1    0    0  501    0  0.00000000000E+00 -0.00000000000E+00 -0.86006243887E+02  0.86006243925E+02  0.25500000000E-02 0. -1.
         24    2    1    2    0    0  0.00000000000E+00  0.00000000000E+00 -0.67685555549E+02  0.10432693296E+03  0.79390015179E+02 0.  0.
         66    2    3    3    0    0 -0.18599247528E+02  0.34247572526E+02 -0.24130893312E+02  0.45881676527E+02  0.19999990700E+01 0.  0.
        -13    1    3    3    0    0  0.18599247528E+02 -0.34247572526E+02 -0.43554662237E+02  0.58445256430E+02  0.10566000000E+00 0.  1.
         13    1    4    4    0    0 -0.30933116232E+01  0.53354609859E+01 -0.46216834885E+01  0.77075834757E+01  0.10566000000E+00 0.  1.
        -13    1    4    4    0    0 -0.11626711138E+02  0.21306802915E+02 -0.14617674293E+02  0.28334569489E+02  0.10566000000E+00 0. -1.
        -14    1    4    4    0    0 -0.38792247670E+01  0.76053086255E+01 -0.48915355311E+01  0.98395235623E+01  0.00000000000E+00 0.  1.
<mgrwt>
<rscale>  0 0.79390015E+02</rscale>
<asrwt>0</asrwt>
<pdfrwt beam="1">  1        2 0.13231730E-01 0.79390015E+02</pdfrwt>
<pdfrwt beam="2">  1       -1 0.28185676E-02 0.79390015E+02</pdfrwt>
<totfact> 0.17367296E+05</totfact>
</mgrwt>
</event>
<event>
 8    1  0.1627221E-013  0.7917687E+02  0.7818608E-02  0.1331404E+00
         -1   -1    0    0    0  501 -0.00000000000E+00  0.00000000000E+00  0.27194474230E+01  0.27194520933E+01  0.50400000000E-02 0.  1.
          2   -1    0    0  501    0  0.00000000000E+00 -0.00000000000E+00 -0.57630924298E+03  0.57630924298E+03  0.25500000000E-02 0. -1.
         24    2    1    2    0    0  0.88817841970E-15 -0.35527136788E-14 -0.57358979555E+03  0.57902869508E+03  0.79176866304E+02 0.  0.
         66    2    3    3    0    0  0.73067595127E+01 -0.28651246728E+02 -0.47921000820E+03  0.48012551970E+03  0.20000096247E+01 0.  0.
        -13    1    3    3    0    0 -0.73067595127E+01  0.28651246728E+02 -0.94379787356E+02  0.98903175374E+02  0.10566000000E+00 0.  1.
         13    1    4    4    0    0  0.32483075787E+01 -0.13153082672E+02 -0.22082294372E+03  0.22123819454E+03  0.10566000000E+00 0. -1.
        -13    1    4    4    0    0 -0.53797405640E-01 -0.15935353720E+00 -0.41741196925E+01  0.41788427768E+01  0.10566000000E+00 0.  1.
        -14    1    4    4    0    0  0.41122493397E+01 -0.15338810519E+02 -0.25421294479E+03  0.25470848239E+03  0.00000000000E+00 0.  1.
<mgrwt>
<rscale>  0 0.79176866E+02</rscale>
<asrwt>0</asrwt>
<pdfrwt beam="1">  1        2 0.88662863E-01 0.79176866E+02</pdfrwt>
<pdfrwt beam="2">  1       -1 0.41837735E-03 0.79176866E+02</pdfrwt>
<totfact> 0.32665198E+05</totfact>
</mgrwt>
</event>
<event>
 8    1  0.1627221E-013  0.7841696E+02  0.7818608E-02  0.1333605E+00
          2   -1    0    0  501    0  0.00000000000E+00  0.00000000000E+00  0.48916774931E+03  0.48916774931E+03  0.25500000000E-02 0. -1.
         -1   -1    0    0    0  501 -0.00000000000E+00 -0.00000000000E+00 -0.31426924053E+01  0.31426964467E+01  0.50400000000E-02 0.  1.
         24    2    1    2    0    0  0.11102230246E-15  0.00000000000E+00  0.48602505690E+03  0.49231044576E+03  0.78416956511E+02 0.  0.
         66    2    3    3    0    0 -0.89038563247E+00 -0.12104063756E+02  0.47706659553E+03  0.47722514364E+03  0.20000005100E+01 0.  0.
        -13    1    3    3    0    0  0.89038563247E+00  0.12104063756E+02  0.89584613704E+01  0.15085302123E+02  0.10566000000E+00 0.  1.
         13    1    4    4    0    0 -0.86509957175E+00 -0.33081651194E+01  0.14355128897E+03  0.14359204742E+03  0.10566000000E+00 0. -1.
        -13    1    4    4    0    0  0.43097558857E+00 -0.31518984404E+01  0.10964898597E+03  0.10969517534E+03  0.10566000000E+00 0.  1.
         14    1    4    4    0    0 -0.45626164929E+00 -0.56440001959E+01  0.22386632059E+03  0.22393792087E+03  0.00000000000E+00 0. -1.
<mgrwt>
<rscale>  0 0.78416957E+02</rscale>
<asrwt>0</asrwt>
<pdfrwt beam="1">  1        2 0.75256601E-01 0.78416957E+02</pdfrwt>
<pdfrwt beam="2">  1       -1 0.48349130E-03 0.78416957E+02</pdfrwt>
<totfact> 0.31853792E+05</totfact>
</mgrwt>
</event>
<event>
 8    1  0.1627221E-013  0.8117454E+02  0.7818608E-02  0.1325751E+00
         -1   -1    0    0    0  501 -0.00000000000E+00  0.00000000000E+00  0.37161484444E+03  0.37161484448E+03  0.50400000000E-02 0.  1.
          2   -1    0    0  501    0  0.00000000000E+00 -0.00000000000E+00 -0.44328862432E+01  0.44328869766E+01  0.25500000000E-02 0. -1.
         24    2    1    2    0    0  0.00000000000E+00 -0.17763568394E-14  0.36718195820E+03  0.37604773145E+03  0.81174539753E+02 0.  0.
         66    2    3    3    0    0 -0.29868606591E+02 -0.12551857480E+02  0.29676357758E+03  0.29853358901E+03  0.20000006130E+01 0.  0.
        -13    1    3    3    0    0  0.29868606591E+02  0.12551857480E+02  0.70418380624E+02  0.77514142449E+02  0.10566000000E+00 0.  1.
         13    1    4    4    0    0 -0.13535144529E+02 -0.64691008502E+01  0.13424423604E+03  0.13507988553E+03  0.10566000000E+00 0. -1.
        -13    1    4    4    0    0 -0.97278861023E+01 -0.36921280053E+01  0.10098239131E+03  0.10151708278E+03  0.10566000000E+00 0.  1.
         14    1    4    4    0    0 -0.66055759602E+01 -0.23906286243E+01  0.61536950228E+02  0.61936620689E+02  0.00000000000E+00 0. -1.
<mgrwt>
<rscale>  0 0.81174540E+02</rscale>
<asrwt>0</asrwt>
<pdfrwt beam="1">  1        2 0.68198247E-03 0.81174540E+02</pdfrwt>
<pdfrwt beam="2">  1       -1 0.57171522E-01 0.81174540E+02</pdfrwt>
<totfact> 0.75738064E+04</totfact>
</mgrwt>
</event>
<event>
 8    1  0.1627221E-013  0.7994654E+02  0.7818608E-02  0.1329203E+00
          2   -1    0    0  501    0  0.00000000000E+00  0.00000000000E+00  0.64204827916E+02  0.64204827966E+02  0.25500000000E-02 0. -1.
         -1   -1    0    0    0  501 -0.00000000000E+00 -0.00000000000E+00 -0.24886946670E+02  0.24886947180E+02  0.50400000000E-02 0.  1.
         24    2    1    2    0    0  0.00000000000E+00  0.00000000000E+00  0.39317881246E+02  0.89091775146E+02  0.79946535966E+02 0.  0.
         66    2    3    3    0    0  0.28200058533E+02  0.28159218523E+02  0.22757955332E+02  0.45935927346E+02  0.20000002915E+01 0.  0.
        -13    1    3    3    0    0 -0.28200058533E+02 -0.28159218523E+02  0.16559925914E+02  0.43155847800E+02  0.10566000000E+00 0.  1.
         13    1    4    4    0    0  0.15273758455E+02  0.14976843106E+02  0.11541007377E+02  0.24306368344E+02  0.10566000000E+00 0. -1.
        -13    1    4    4    0    0  0.73700491980E+01  0.68547079763E+01  0.58051310823E+01  0.11619610903E+02  0.10566000000E+00 0.  1.
        -14    1    4    4    0    0  0.55562508798E+01  0.63276674404E+01  0.54118168726E+01  0.10009948099E+02  0.00000000000E+00 0.  1.
<mgrwt>
<rscale>  0 0.79946536E+02</rscale>
<asrwt>0</asrwt>
<pdfrwt beam="1">  1        2 0.98776657E-02 0.79946536E+02</pdfrwt>
<pdfrwt beam="2">  1       -1 0.38287611E-02 0.79946536E+02</pdfrwt>
<totfact> 0.15843317E+05</totfact>
</mgrwt>
</event>
<event>
 8    1  0.1627221E-013  0.8407304E+02  0.7818608E-02  0.1317875E+00
          2   -1    0    0  501    0  0.00000000000E+00  0.00000000000E+00  0.11261713025E+03  0.11261713028E+03  0.25500000000E-02 0. -1.
         -1   -1    0    0    0  501 -0.00000000000E+00 -0.00000000000E+00 -0.15690943128E+02  0.15690943937E+02  0.50400000000E-02 0.  1.
         24    2    1    2    0    0 -0.17763568394E-14 -0.71054273576E-14  0.96926187119E+02  0.12830807421E+03  0.84073040619E+02 0.  0.
         66    2    3    3    0    0  0.87447901362E+01  0.34077514236E+02  0.13444917268E+02  0.37716231805E+02  0.20000025367E+01 0.  0.
        -13    1    3    3    0    0 -0.87447901362E+01 -0.34077514236E+02  0.83481269850E+02  0.90591842408E+02  0.10566000000E+00 0.  1.
         13    1    4    4    0    0  0.21712258727E+01  0.62237139420E+01  0.28995541179E+01  0.72019035775E+01  0.10566000000E+00 0. -1.
        -13    1    4    4    0    0  0.18447448573E+01  0.61678048268E+01  0.23822568983E+01  0.68652175447E+01  0.10566000000E+00 0. -1.
         14    1    4    4    0    0  0.47288194062E+01  0.21685995467E+02  0.81631062521E+01  0.23649110683E+02  0.00000000000E+00 0. -1.
<mgrwt>
<rscale>  0 0.84073041E+02</rscale>
<asrwt>0</asrwt>
<pdfrwt beam="1">  1        2 0.17325713E-01 0.84073041E+02</pdfrwt>
<pdfrwt beam="2">  1       -1 0.24139912E-02 0.84073041E+02</pdfrwt>
<totfact> 0.16054793E+05</totfact>
</mgrwt>
</event>
<event>
 8    1  0.1627221E-013  0.7999819E+02  0.7818608E-02  0.1329057E+00
          2   -1    0    0  501    0  0.00000000000E+00  0.00000000000E+00  0.28339485566E+02  0.28339485681E+02  0.25500000000E-02 0. -1.
         -1   -1    0    0    0  501 -0.00000000000E+00 -0.00000000000E+00 -0.56455772425E+02  0.56455772650E+02  0.50400000000E-02 0.  1.
         24    2    1    2    0    0 -0.44408920985E-15  0.00000000000E+00 -0.28116286859E+02  0.84795258331E+02  0.79998189034E+02 0.  0.
         66    2    3    3    0    0 -0.21162180788E+01  0.39111301979E+02 -0.22530064149E+02  0.45230256503E+02  0.19999978503E+01 0.  0.
        -13    1    3    3    0    0  0.21162180788E+01 -0.39111301979E+02 -0.55862227104E+01  0.39565001828E+02  0.10566000000E+00 0.  1.
         13    1    4    4    0    0 -0.84298970431E+00  0.24404016868E+02 -0.14672295185E+02  0.28487788278E+02  0.10566000000E+00 0. -1.
        -13    1    4    4    0    0 -0.41372250698E+00  0.42919607282E+01 -0.26969130595E+01  0.50869044901E+01  0.10566000000E+00 0.  1.
         14    1    4    4    0    0 -0.85950586751E+00  0.10415324382E+02 -0.51608559045E+01  0.11655563735E+02  0.00000000000E+00 0. -1.
<mgrwt>
<rscale>  0 0.79998189E+02</rscale>
<asrwt>0</asrwt>
<pdfrwt beam="1">  1        2 0.43599209E-02 0.79998189E+02</pdfrwt>
<pdfrwt beam="2">  1       -1 0.86855035E-02 0.79998189E+02</pdfrwt>
<totfact> 0.13305907E+05</totfact>
</mgrwt>
</event>
<event>
 8    1  0.1957780E-013  0.8078063E+02  0.7818608E-02  0.1326851E+00
         -1   -1    0    0    0  501 -0.00000000000E+00  0.00000000000E+00  0.14839632402E+02  0.14839633258E+02  0.50400000000E-02 0.  1.
          2   -1    0    0  501    0  0.00000000000E+00 -0.00000000000E+00 -0.10993382570E+03  0.10993382573E+03  0.25500000000E-02 0. -1.
         24    2    1    2    0    0  0.35527136788E-14  0.71054273576E-14 -0.95094193300E+02  0.12477345899E+03  0.80780631769E+02 0.  0.
         66    2    3    3    0    0 -0.22223849890E+02 -0.28475957191E+02 -0.75404324132E+02  0.83633675888E+02  0.20000007157E+01 0.  0.
        -13    1    3    3    0    0  0.22223849890E+02  0.28475957191E+02 -0.19689869168E+02  0.41139783103E+02  0.10566000000E+00 0.  1.
         13    1    4    4    0    0 -0.10858875202E+02 -0.13809122250E+02 -0.36650211443E+02  0.40643033731E+02  0.10566000000E+00 0. -1.
        -13    1    4    4    0    0 -0.53894950581E+01 -0.61682854224E+01 -0.15907779912E+02  0.17893100005E+02  0.10566000000E+00 0.  1.
        -14    1    4    4    0    0 -0.59754796301E+01 -0.84985495185E+01 -0.22846332777E+02  0.25097542152E+02  0.00000000000E+00 0.  1.
<mgrwt>
<rscale>  0 0.80780632E+02</rscale>
<asrwt>0</asrwt>
<pdfrwt beam="1">  1        2 0.16912896E-01 0.80780632E+02</pdfrwt>
<pdfrwt beam="2">  1       -1 0.22830205E-02 0.80780632E+02</pdfrwt>
<totfact> 0.17743830E+05</totfact>
</mgrwt>
</event>
<event>
 8    1  0.1627221E-013  0.8173295E+02  0.7818608E-02  0.1324204E+00
          2   -1    0    0  501    0  0.00000000000E+00  0.00000000000E+00  0.57178146253E+03  0.57178146254E+03  0.25500000000E-02 0. -1.
         -1   -1    0    0    0  501 -0.00000000000E+00 -0.00000000000E+00 -0.29208147016E+01  0.29208190500E+01  0.50400000000E-02 0.  1.
         24    2    1    2    0    0  0.00000000000E+00  0.00000000000E+00  0.56886064783E+03  0.57470228159E+03  0.81732954260E+02 0.  0.
         66    2    3    3    0    0  0.13294714525E+02  0.32515164944E+02  0.43109755386E+03  0.43253102356E+03  0.20000024536E+01 0.  0.
        -13    1    3    3    0    0 -0.13294714525E+02 -0.32515164944E+02  0.13776309397E+03  0.14217125803E+03  0.10566000000E+00 0.  1.
         13    1    4    4    0    0  0.61313039807E+01  0.14712372767E+02  0.19598040383E+03  0.19662750736E+03  0.10566000000E+00 0. -1.
        -13    1    4    4    0    0  0.19456667917E+01  0.61439260579E+01  0.73067694888E+02  0.73351432480E+02  0.10566000000E+00 0.  1.
         14    1    4    4    0    0  0.52177437525E+01  0.11658866119E+02  0.16204945514E+03  0.16255208372E+03  0.00000000000E+00 0. -1.
<mgrwt>
<rscale>  0 0.81732954E+02</rscale>
<asrwt>0</asrwt>
<pdfrwt beam="1">  1        2 0.87966306E-01 0.81732954E+02</pdfrwt>
<pdfrwt beam="2">  1       -1 0.44935682E-03 0.81732954E+02</pdfrwt>
<totfact> 0.30002191E+05</totfact>
</mgrwt>
</event>
<event>
 8    1  0.1627221E-013  0.8121385E+02  0.7818608E-02  0.1325642E+00
          2   -1    0    0  501    0  0.00000000000E+00  0.00000000000E+00  0.25745002324E+03  0.25745002325E+03  0.25500000000E-02 0. -1.
         -1   -1    0    0    0  501 -0.00000000000E+00 -0.00000000000E+00 -0.64048241055E+01  0.64048260886E+01  0.50400000000E-02 0.  1.
         24    2    1    2    0    0  0.00000000000E+00  0.00000000000E+00  0.25104519913E+03  0.26385484934E+03  0.81213850496E+02 0.  0.
         66    2    3    3    0    0  0.85862780862E+01  0.18308620182E+02  0.23991085657E+03  0.24076990852E+03  0.20000009590E+01 0.  0.
        -13    1    3    3    0    0 -0.85862780862E+01 -0.18308620182E+02  0.11134342562E+02  0.23084940820E+02  0.10566000000E+00 0.  1.
         13    1    4    4    0    0  0.16237245222E+01  0.25759528254E+01  0.35261650446E+02  0.35393038447E+02  0.10566000000E+00 0. -1.
        -13    1    4    4    0    0  0.33931212849E+01  0.76038250519E+01  0.10816704750E+03  0.10848710871E+03  0.10566000000E+00 0.  1.
        -14    1    4    4    0    0  0.35694322791E+01  0.81288423043E+01  0.96482158628E+02  0.96889761365E+02  0.00000000000E+00 0.  1.
<mgrwt>
<rscale>  0 0.81213850E+02</rscale>
<asrwt>0</asrwt>
<pdfrwt beam="1">  1        2 0.39607699E-01 0.81213850E+02</pdfrwt>
<pdfrwt beam="2">  1       -1 0.98535763E-03 0.81213850E+02</pdfrwt>
<totfact> 0.23184665E+05</totfact>
</mgrwt>
</event>
<event>
 8    1  0.1627221E-013  0.7800124E+02  0.7818608E-02  0.1334821E+00
          2   -1    0    0  501    0  0.00000000000E+00  0.00000000000E+00  0.47260453737E+02  0.47260453806E+02  0.25500000000E-02 0. -1.
         -1   -1    0    0    0  501 -0.00000000000E+00 -0.00000000000E+00 -0.32184379979E+02  0.32184380374E+02  0.50400000000E-02 0.  1.
         24    2    1    2    0    0  0.35527136788E-14  0.35527136788E-14  0.15076073758E+02  0.79444834179E+02  0.78001241515E+02 0.  0.
         66    2    3    3    0    0  0.28987269590E+02  0.16985057390E+02  0.27664351021E+02  0.43566848431E+02  0.19999979843E+01 0.  0.
        -13    1    3    3    0    0 -0.28987269590E+02 -0.16985057390E+02 -0.12588277263E+02  0.35877985748E+02  0.10566000000E+00 0.  1.
         13    1    4    4    0    0  0.13965805740E+02  0.82294181565E+01  0.13844684327E+02  0.21317915032E+02  0.10566000000E+00 0. -1.
        -13    1    4    4    0    0  0.92098436882E+01  0.52150684963E+01  0.76071832385E+01  0.13034514223E+02  0.10566000000E+00 0.  1.
        -14    1    4    4    0    0  0.58116201620E+01  0.35405707377E+01  0.62124834559E+01  0.92144191757E+01  0.00000000000E+00 0.  1.
<mgrwt>
<rscale>  0 0.78001242E+02</rscale>
<asrwt>0</asrwt>
<pdfrwt beam="1">  1        2 0.72708390E-02 0.78001242E+02</pdfrwt>
<pdfrwt beam="2">  1       -1 0.49514432E-02 0.78001242E+02</pdfrwt>
<totfact> 0.15822159E+05</totfact>
</mgrwt>
</event>
<event>
 8    1  0.1627221E-013  0.8031472E+02  0.7818608E-02  0.1328161E+00
          2   -1    0    0  501    0  0.00000000000E+00  0.00000000000E+00  0.10171249821E+03  0.10171249824E+03  0.25500000000E-02 0. -1.
         -1   -1    0    0    0  501 -0.00000000000E+00 -0.00000000000E+00 -0.15854623432E+02  0.15854624233E+02  0.50400000000E-02 0.  1.
         24    2    1    2    0    0 -0.88817841970E-15  0.00000000000E+00  0.85857874781E+02  0.11756712248E+03  0.80314716123E+02 0.  0.
         66    2    3    3    0    0  0.72465079512E+01  0.20813723822E+02  0.92051348415E+02  0.94674039319E+02  0.19999997804E+01 0.  0.
        -13    1    3    3    0    0 -0.72465079512E+01 -0.20813723822E+02 -0.61934736348E+01  0.22893083159E+02  0.10566000000E+00 0.  1.
         13    1    4    4    0    0  0.52606564894E+01  0.12869338650E+02  0.59709732974E+02  0.61307077568E+02  0.10566000000E+00 0. -1.
        -13    1    4    4    0    0  0.38020448672E+00  0.16470752690E+01  0.58863503935E+01  0.61251691719E+01  0.10566000000E+00 0.  1.
         14    1    4    4    0    0  0.16056469750E+01  0.62973099029E+01  0.26455265048E+02  0.27241792580E+02  0.00000000000E+00 0. -1.
<mgrwt>
<rscale>  0 0.80314716E+02</rscale>
<asrwt>0</asrwt>
<pdfrwt beam="1">  1        2 0.15648077E-01 0.80314716E+02</pdfrwt>
<pdfrwt beam="2">  1       -1 0.24391729E-02 0.80314716E+02</pdfrwt>
<totfact> 0.17624256E+05</totfact>
</mgrwt>
</event>
<event>
 8    1  0.1627221E-013  0.8222056E+02  0.7818608E-02  0.1322865E+00
         -1   -1    0    0    0  501 -0.00000000000E+00  0.00000000000E+00  0.26663711797E+01  0.26663759430E+01  0.50400000000E-02 0.  1.
          2   -1    0    0  501    0  0.00000000000E+00 -0.00000000000E+00 -0.63384026732E+03  0.63384026732E+03  0.25500000000E-02 0. -1.
         24    2    1    2    0    0  0.00000000000E+00  0.17763568394E-14 -0.63117389614E+03  0.63650664327E+03  0.82220555553E+02 0.  0.
         66    2    3    3    0    0  0.38005683819E+02  0.63745078431E+01 -0.42606744699E+03  0.42781133187E+03  0.19999845794E+01 0.  0.
        -13    1    3    3    0    0 -0.38005683819E+02 -0.63745078431E+01 -0.20510644914E+03  0.20869531139E+03  0.10566000000E+00 0.  1.
         13    1    4    4    0    0  0.11583526438E+02  0.15413146135E+01 -0.12893097696E+03  0.12945949837E+03  0.10566000000E+00 0. -1.
        -13    1    4    4    0    0  0.86347217303E+01  0.18680876000E+01 -0.10491717157E+03  0.10528851896E+03  0.10566000000E+00 0.  1.
         14    1    4    4    0    0  0.17787435650E+02  0.29651056297E+01 -0.19221929846E+03  0.19306331454E+03  0.00000000000E+00 0. -1.
<mgrwt>
<rscale>  0 0.82220556E+02</rscale>
<asrwt>0</asrwt>
<pdfrwt beam="1">  1        2 0.97513767E-01 0.82220556E+02</pdfrwt>
<pdfrwt beam="2">  1       -1 0.41021182E-03 0.82220556E+02</pdfrwt>
<totfact> 0.30397440E+05</totfact>
</mgrwt>
</event>
<event>
 8    1  0.1627221E-013  0.7875474E+02  0.7818608E-02  0.1332623E+00
         -1   -1    0    0    0  501 -0.00000000000E+00  0.00000000000E+00  0.34351856479E+02  0.34351856849E+02  0.50400000000E-02 0.  1.
          2   -1    0    0  501    0  0.00000000000E+00 -0.00000000000E+00 -0.45138096799E+02  0.45138096871E+02  0.25500000000E-02 0. -1.
         24    2    1    2    0    0  0.00000000000E+00  0.35527136788E-14 -0.10786240319E+02  0.79489953720E+02  0.78754744379E+02 0.  0.
         66    2    3    3    0    0 -0.26280931572E+02  0.28658059855E+02 -0.11502921057E+02  0.40599125055E+02  0.20000008543E+01 0.  0.
        -13    1    3    3    0    0  0.26280931572E+02 -0.28658059855E+02  0.71668073738E+00  0.38890828665E+02  0.10566000000E+00 0.  1.
         13    1    4    4    0    0 -0.59509137519E+01  0.74472890973E+01 -0.29192755030E+01  0.99703973280E+01  0.10566000000E+00 0. -1.
        -13    1    4    4    0    0 -0.67894613744E+01  0.63501622287E+01 -0.27540666898E+01  0.96962566722E+01  0.10566000000E+00 0.  1.
        -14    1    4    4    0    0 -0.13540556446E+02  0.14860608529E+02 -0.58295788639E+01  0.20932471054E+02  0.00000000000E+00 0.  1.
<mgrwt>
<rscale>  0 0.78754744E+02</rscale>
<asrwt>0</asrwt>
<pdfrwt beam="1">  1        2 0.69443226E-02 0.78754744E+02</pdfrwt>
<pdfrwt beam="2">  1       -1 0.52849011E-02 0.78754744E+02</pdfrwt>
<totfact> 0.15262500E+05</totfact>
</mgrwt>
</event>
<event>
 8    1  0.1627221E-013  0.7782864E+02  0.7818608E-02  0.1335329E+00
         -1   -1    0    0    0  501 -0.00000000000E+00  0.00000000000E+00  0.54301187398E+01  0.54301210788E+01  0.50400000000E-02 0.  1.
          2   -1    0    0  501    0  0.00000000000E+00 -0.00000000000E+00 -0.27887495277E+03  0.27887495278E+03  0.25500000000E-02 0. -1.
         24    2    1    2    0    0  0.00000000000E+00  0.00000000000E+00 -0.27344483403E+03  0.28430507386E+03  0.77828643602E+02 0.  0.
         66    2    3    3    0    0 -0.47683507824E+01 -0.38113572894E+02 -0.11461100248E+03  0.12089277684E+03  0.19999987662E+01 0.  0.
        -13    1    3    3    0    0  0.47683507824E+01  0.38113572894E+02 -0.15883383155E+03  0.16341229702E+03  0.10566000000E+00 0.  1.
         13    1    4    4    0    0 -0.15138382661E+01 -0.91054691449E+01 -0.26948703657E+02  0.28485874876E+02  0.10566000000E+00 0.  1.
        -13    1    4    4    0    0 -0.25654625670E+01 -0.26561600004E+02 -0.80358720486E+02  0.84673699075E+02  0.10566000000E+00 0. -1.
        -14    1    4    4    0    0 -0.68904994923E+00 -0.24465037457E+01 -0.73035783356E+01  0.77332028885E+01  0.00000000000E+00 0.  1.
<mgrwt>
<rscale>  0 0.77828644E+02</rscale>
<asrwt>0</asrwt>
<pdfrwt beam="1">  1        2 0.42903828E-01 0.77828644E+02</pdfrwt>
<pdfrwt beam="2">  1       -1 0.83540328E-03 0.77828644E+02</pdfrwt>
<totfact> 0.26685722E+05</totfact>
</mgrwt>
</event>
<event>
 8    1  0.1627221E-013  0.7961370E+02  0.7818608E-02  0.1330151E+00
          2   -1    0    0  501    0  0.00000000000E+00  0.00000000000E+00  0.40911322599E+02  0.40911322678E+02  0.25500000000E-02 0. -1.
         -1   -1    0    0    0  501 -0.00000000000E+00 -0.00000000000E+00 -0.38732195431E+02  0.38732195759E+02  0.50400000000E-02 0.  1.
         24    2    1    2    0    0  0.00000000000E+00  0.00000000000E+00  0.21791271673E+01  0.79643518437E+02  0.79613701295E+02 0.  0.
         66    2    3    3    0    0  0.17552450591E+02 -0.17167906263E+02  0.32403008609E+02  0.40703568506E+02  0.19999987549E+01 0.  0.
        -13    1    3    3    0    0 -0.17552450591E+02  0.17167906263E+02 -0.30223881442E+02  0.38939949931E+02  0.10566000000E+00 0.  1.
         13    1    4    4    0    0  0.26920953738E+01 -0.29038942875E+01  0.58373407337E+01  0.70544801660E+01  0.10566000000E+00 0. -1.
        -13    1    4    4    0    0  0.34859067601E+01 -0.35314788738E+01  0.54255794986E+01  0.73532962614E+01  0.10566000000E+00 0.  1.
        -14    1    4    4    0    0  0.11374448457E+02 -0.10732533102E+02  0.21140088377E+02  0.26295792079E+02  0.00000000000E+00 0.  1.
<mgrwt>
<rscale>  0 0.79613701E+02</rscale>
<asrwt>0</asrwt>
<pdfrwt beam="1">  1        2 0.62940496E-02 0.79613701E+02</pdfrwt>
<pdfrwt beam="2">  1       -1 0.59587994E-02 0.79613701E+02</pdfrwt>
<totfact> 0.14514201E+05</totfact>
</mgrwt>
</event>
<event>
 8    1  0.1627221E-013  0.8008563E+02  0.7818608E-02  0.1328809E+00
          2   -1    0    0  501    0  0.00000000000E+00  0.00000000000E+00  0.97127198986E+03  0.97127198987E+03  0.25500000000E-02 0. -1.
         -1   -1    0    0    0  501 -0.00000000000E+00 -0.00000000000E+00 -0.16508490273E+01  0.16508567208E+01  0.50400000000E-02 0.  1.
         24    2    1    2    0    0 -0.17763568394E-14  0.00000000000E+00  0.96962114084E+03  0.97292284659E+03  0.80085633268E+02 0.  0.
         66    2    3    3    0    0 -0.12168635930E+02 -0.26784948827E+02  0.81467401024E+03  0.81520749024E+03  0.19999994694E+01 0.  0.
        -13    1    3    3    0    0  0.12168635930E+02  0.26784948827E+02  0.15494713060E+03  0.15771535635E+03  0.10566000000E+00 0.  1.
         13    1    4    4    0    0 -0.51284062697E+01 -0.11156316250E+02  0.31976681219E+03  0.32000248325E+03  0.10566000000E+00 0. -1.
        -13    1    4    4    0    0 -0.58874176710E-01 -0.40553678470E+00  0.12973356560E+02  0.12980256959E+02  0.10566000000E+00 0.  1.
         14    1    4    4    0    0 -0.69813554835E+01 -0.15223095792E+02  0.48193384149E+03  0.48222475003E+03  0.00000000000E+00 0. -1.
<mgrwt>
<rscale>  0 0.80085633E+02</rscale>
<asrwt>0</asrwt>
<pdfrwt beam="1">  1        2 0.14942688E+00 0.80085633E+02</pdfrwt>
<pdfrwt beam="2">  1       -1 0.25397666E-03 0.80085633E+02</pdfrwt>
<totfact> 0.35080239E+05</totfact>
</mgrwt>
</event>
<event>
 8    1  0.1627221E-013  0.8256444E+02  0.7818608E-02  0.1321928E+00
          2   -1    0    0  501    0  0.00000000000E+00  0.00000000000E+00  0.22793706584E+03  0.22793706586E+03  0.25500000000E-02 0. -1.
         -1   -1    0    0    0  501 -0.00000000000E+00 -0.00000000000E+00 -0.74767201134E+01  0.74767218121E+01  0.50400000000E-02 0.  1.
         24    2    1    2    0    0 -0.17763568394E-14  0.00000000000E+00  0.22046034573E+03  0.23541378767E+03  0.82564443835E+02 0.  0.
         66    2    3    3    0    0 -0.13075997992E+02 -0.35098339806E+02  0.15962595726E+03  0.16397353876E+03  0.19999998935E+01 0.  0.
        -13    1    3    3    0    0  0.13075997992E+02  0.35098339806E+02  0.60834388468E+02  0.71440248914E+02  0.10566000000E+00 0.  1.
         13    1    4    4    0    0 -0.24042034408E+01 -0.53504121489E+01  0.25852655001E+02  0.26509961128E+02  0.10566000000E+00 0. -1.
        -13    1    4    4    0    0 -0.68888488265E+01 -0.17115039435E+02  0.77540601682E+02  0.79705312786E+02  0.10566000000E+00 0.  1.
         14    1    4    4    0    0 -0.37829457245E+01 -0.12632888222E+02  0.56232700580E+02  0.57758264843E+02  0.00000000000E+00 0. -1.
<mgrwt>
<rscale>  0 0.82564444E+02</rscale>
<asrwt>0</asrwt>
<pdfrwt beam="1">  1        2 0.35067235E-01 0.82564444E+02</pdfrwt>
<pdfrwt beam="2">  1       -1 0.11502650E-02 0.82564444E+02</pdfrwt>
<totfact> 0.21251092E+05</totfact>
</mgrwt>
</event>
<event>
 8    1  0.1627221E-013  0.7863436E+02  0.7818608E-02  0.1332972E+00
          2   -1    0    0  501    0  0.00000000000E+00  0.00000000000E+00  0.21234205253E+04  0.21234205254E+04  0.25500000000E-02 0. -1.
         -1   -1    0    0    0  501 -0.00000000000E+00 -0.00000000000E+00 -0.72798681834E+00  0.72800426460E+00  0.50400000000E-02 0.  1.
         24    2    1    2    0    0  0.00000000000E+00  0.00000000000E+00  0.21226925385E+04  0.21241485296E+04  0.78634361016E+02 0.  0.
         66    2    3    3    0    0  0.15296678827E+01  0.15851240513E+02  0.20323325760E+04  0.20323959509E+04  0.20000059787E+01 0.  0.
        -13    1    3    3    0    0 -0.15296678827E+01 -0.15851240513E+02  0.90359962520E+02  0.91752578712E+02  0.10566000000E+00 0.  1.
         13    1    4    4    0    0  0.52893077382E+00  0.75518091463E+01  0.93187477129E+03  0.93190552640E+03  0.10566000000E+00 0. -1.
        -13    1    4    4    0    0  0.10649327224E+00  0.18230234398E+01  0.17611322416E+03  0.17612272325E+03  0.10566000000E+00 0.  1.
        -14    1    4    4    0    0  0.89424383663E+00  0.64764079271E+01  0.92434458055E+03  0.92436770126E+03  0.00000000000E+00 0.  1.
<mgrwt>
<rscale>  0 0.78634361E+02</rscale>
<asrwt>0</asrwt>
<pdfrwt beam="1">  1        2 0.32668925E+00 0.78634361E+02</pdfrwt>
<pdfrwt beam="2">  1       -1 0.11199617E-03 0.78634361E+02</pdfrwt>
<totfact> 0.27339227E+05</totfact>
</mgrwt>
</event>
<event>
 8    1  0.1627221E-013  0.7942218E+02  0.7818608E-02  0.1330699E+00
          2   -1    0    0  501    0  0.00000000000E+00  0.00000000000E+00  0.10418656989E+04  0.10418656989E+04  0.25500000000E-02 0. -1.
         -1   -1    0    0    0  501 -0.00000000000E+00 -0.00000000000E+00 -0.15135983993E+01  0.15136067904E+01  0.50400000000E-02 0.  1.
         24    2    1    2    0    0  0.00000000000E+00 -0.17763568394E-14  0.10403521005E+04  0.10433793057E+04  0.79422179101E+02 0.  0.
         66    2    3    3    0    0 -0.18417395085E+02  0.13056521506E+02  0.94928531535E+03  0.94955583466E+03  0.19999994291E+01 0.  0.
        -13    1    3    3    0    0  0.18417395085E+02 -0.13056521506E+02  0.91066785160E+02  0.93823471045E+02  0.10566000000E+00 0.  1.
         13    1    4    4    0    0 -0.50284951311E+01  0.40297462140E+01  0.25007692292E+03  0.25015995515E+03  0.10566000000E+00 0. -1.
        -13    1    4    4    0    0 -0.87201795713E+01  0.53012310324E+01  0.42659725315E+03  0.42671931307E+03  0.10566000000E+00 0.  1.
         14    1    4    4    0    0 -0.46687203823E+01  0.37255442593E+01  0.27261113928E+03  0.27267656644E+03  0.00000000000E+00 0. -1.
<mgrwt>
<rscale>  0 0.79422179E+02</rscale>
<asrwt>0</asrwt>
<pdfrwt beam="1">  1        2 0.16028659E+00 0.79422179E+02</pdfrwt>
<pdfrwt beam="2">  1       -1 0.23286259E-03 0.79422179E+02</pdfrwt>
<totfact> 0.35940026E+05</totfact>
</mgrwt>
</event>
<event>
 8    1  0.1627221E-013  0.8001918E+02  0.7818608E-02  0.1328997E+00
          2   -1    0    0  501    0  0.00000000000E+00  0.00000000000E+00  0.46740452256E+03  0.46740452257E+03  0.25500000000E-02 0. -1.
         -1   -1    0    0    0  501 -0.00000000000E+00 -0.00000000000E+00 -0.34247983839E+01  0.34248020924E+01  0.50400000000E-02 0.  1.
         24    2    1    2    0    0  0.00000000000E+00  0.00000000000E+00  0.46397972417E+03  0.47082932466E+03  0.80019175906E+02 0.  0.
         66    2    3    3    0    0  0.24963863489E+02 -0.45507795145E+01  0.41395320658E+03  0.41473504954E+03  0.20000007471E+01 0.  0.
        -13    1    3    3    0    0 -0.24963863489E+02  0.45507795145E+01  0.50026517590E+02  0.56094275115E+02  0.10566000000E+00 0.  1.
         13    1    4    4    0    0  0.37964337088E+01 -0.54793736682E+00  0.56773685183E+02  0.56903212893E+02  0.10566000000E+00 0. -1.
        -13    1    4    4    0    0  0.82860369905E+01 -0.16371110855E+01  0.12801181516E+03  0.12829019653E+03  0.10566000000E+00 0.  1.
         14    1    4    4    0    0  0.12881392790E+02 -0.23657310622E+01  0.22916770625E+03  0.22954164012E+03  0.00000000000E+00 0. -1.
<mgrwt>
<rscale>  0 0.80019176E+02</rscale>
<asrwt>0</asrwt>
<pdfrwt beam="1">  1        2 0.71908357E-01 0.80019176E+02</pdfrwt>
<pdfrwt beam="2">  1       -1 0.52689257E-03 0.80019176E+02</pdfrwt>
<totfact> 0.29773843E+05</totfact>
</mgrwt>
</event>
<event>
 8    1  0.1627221E-013  0.8026088E+02  0.7818608E-02  0.1328313E+00
          2   -1    0    0  501    0  0.00000000000E+00  0.00000000000E+00  0.30296913135E+03  0.30296913136E+03  0.25500000000E-02 0. -1.
         -1   -1    0    0    0  501 -0.00000000000E+00 -0.00000000000E+00 -0.53155636254E+01  0.53155660148E+01  0.50400000000E-02 0.  1.
         24    2    1    2    0    0  0.35527136788E-14  0.00000000000E+00  0.29765356773E+03  0.30828469738E+03  0.80260876253E+02 0.  0.
         66    2    3    3    0    0  0.30766104035E+02 -0.24953984020E+02  0.17296534817E+03  0.17745496935E+03  0.20000007259E+01 0.  0.
        -13    1    3    3    0    0 -0.30766104035E+02  0.24953984020E+02  0.12468821956E+03  0.13082972803E+03  0.10566000000E+00 0.  1.
         13    1    4    4    0    0  0.19459641393E+02 -0.15456067076E+02  0.10896483474E+03  0.11176275778E+03  0.10566000000E+00 0. -1.
        -13    1    4    4    0    0  0.75954449767E+01 -0.56710143633E+01  0.40461369103E+02  0.41557005932E+02  0.10566000000E+00 0.  1.
        -14    1    4    4    0    0  0.37110176653E+01 -0.38269025805E+01  0.23539144322E+02  0.24135205632E+02  0.00000000000E+00 0.  1.
<mgrwt>
<rscale>  0 0.80260876E+02</rscale>
<asrwt>0</asrwt>
<pdfrwt beam="1">  1        2 0.46610645E-01 0.80260876E+02</pdfrwt>
<pdfrwt beam="2">  1       -1 0.81777904E-03 0.80260876E+02</pdfrwt>
<totfact> 0.25368075E+05</totfact>
</mgrwt>
</event>
<event>
 8    1  0.1627221E-013  0.7939965E+02  0.7818608E-02  0.1330764E+00
         -1   -1    0    0    0  501 -0.00000000000E+00  0.00000000000E+00  0.46148768583E+01  0.46148796105E+01  0.50400000000E-02 0.  1.
          2   -1    0    0  501    0  0.00000000000E+00 -0.00000000000E+00 -0.34152061947E+03  0.34152061948E+03  0.25500000000E-02 0. -1.
         24    2    1    2    0    0  0.00000000000E+00 -0.44408920985E-15 -0.33690574261E+03  0.34613549909E+03  0.79399649405E+02 0.  0.
         66    2    3    3    0    0  0.22553666484E+02  0.32873299493E+01 -0.31012930218E+03  0.31097211848E+03  0.19999971094E+01 0.  0.
        -13    1    3    3    0    0 -0.22553666484E+02 -0.32873299493E+01 -0.26776440435E+02  0.35163380618E+02  0.10566000000E+00 0.  1.
         13    1    4    4    0    0  0.17791741104E+02  0.28353325690E+01 -0.23553393966E+03  0.23622199952E+03  0.10566000000E+00 0. -1.
        -13    1    4    4    0    0  0.55419212057E+00  0.13958096320E+00 -0.10432556005E+02  0.10448732009E+02  0.10566000000E+00 0.  1.
         14    1    4    4    0    0  0.42077332591E+01  0.31241641706E+00 -0.64162806512E+02  0.64301386942E+02  0.00000000000E+00 0. -1.
<mgrwt>
<rscale>  0 0.79399649E+02</rscale>
<asrwt>0</asrwt>
<pdfrwt beam="1">  1        2 0.52541614E-01 0.79399649E+02</pdfrwt>
<pdfrwt beam="2">  1       -1 0.70998154E-03 0.79399649E+02</pdfrwt>
<totfact> 0.27245919E+05</totfact>
</mgrwt>
</event>
<event>
 8    1  0.1627221E-013  0.8038219E+02  0.7818608E-02  0.1327970E+00
         -1   -1    0    0    0  501 -0.00000000000E+00  0.00000000000E+00  0.16580797017E+02  0.16580797783E+02  0.50400000000E-02 0.  1.
          2   -1    0    0  501    0  0.00000000000E+00 -0.00000000000E+00 -0.97421365614E+02  0.97421365647E+02  0.25500000000E-02 0. -1.
         24    2    1    2    0    0  0.00000000000E+00  0.00000000000E+00 -0.80840568596E+02  0.11400216343E+03  0.80382185439E+02 0.  0.
         66    2    3    3    0    0  0.34658508496E+02  0.18047444430E+02 -0.27262628409E+02  0.47688293838E+02  0.19999999528E+01 0.  0.
        -13    1    3    3    0    0 -0.34658508496E+02 -0.18047444430E+02 -0.53577940187E+02  0.66313869593E+02  0.10566000000E+00 0.  1.
         13    1    4    4    0    0  0.14509328630E+02  0.72388947080E+01 -0.10369669830E+02  0.19247426589E+02  0.10566000000E+00 0. -1.
        -13    1    4    4    0    0  0.98443083392E+01  0.48464193536E+01 -0.79197456598E+01  0.13532616989E+02  0.10566000000E+00 0.  1.
        -14    1    4    4    0    0  0.10304871527E+02  0.59621303680E+01 -0.89732129190E+01  0.14908250260E+02  0.00000000000E+00 0.  1.
<mgrwt>
<rscale>  0 0.80382185E+02</rscale>
<asrwt>0</asrwt>
<pdfrwt beam="1">  1        2 0.14987902E-01 0.80382185E+02</pdfrwt>
<pdfrwt beam="2">  1       -1 0.25508920E-02 0.80382185E+02</pdfrwt>
<totfact> 0.17373881E+05</totfact>
</mgrwt>
</event>
<event>
 8    1  0.1627221E-013  0.8042482E+02  0.7818608E-02  0.1327850E+00
         -1   -1    0    0    0  501 -0.00000000000E+00  0.00000000000E+00  0.37119471960E+02  0.37119472303E+02  0.50400000000E-02 0.  1.
          2   -1    0    0  501    0  0.00000000000E+00 -0.00000000000E+00 -0.43563067329E+02  0.43563067404E+02  0.25500000000E-02 0. -1.
         24    2    1    2    0    0  0.00000000000E+00  0.00000000000E+00 -0.64435953690E+01  0.80682539707E+02  0.80424823856E+02 0.  0.
         66    2    3    3    0    0 -0.37190091391E+02  0.10201308505E+02 -0.14567694077E+02  0.41272112956E+02  0.20000010604E+01 0.  0.
        -13    1    3    3    0    0  0.37190091391E+02 -0.10201308505E+02  0.81240987082E+01  0.39410426751E+02  0.10566000000E+00 0.  1.
         13    1    4    4    0    0 -0.27795011597E+02  0.71697183790E+01 -0.10899072410E+02  0.30704535084E+02  0.10566000000E+00 0. -1.
        -13    1    4    4    0    0 -0.58128352910E+01  0.20033387300E+01 -0.18560295329E+01  0.64232725188E+01  0.10566000000E+00 0.  1.
        -14    1    4    4    0    0 -0.35822445026E+01  0.10282513958E+01 -0.18125921346E+01  0.41443053526E+01  0.00000000000E+00 0.  1.
<mgrwt>
<rscale>  0 0.80424824E+02</rscale>
<asrwt>0</asrwt>
<pdfrwt beam="1">  1        2 0.67020103E-02 0.80424824E+02</pdfrwt>
<pdfrwt beam="2">  1       -1 0.57106881E-02 0.80424824E+02</pdfrwt>
<totfact> 0.14299610E+05</totfact>
</mgrwt>
</event>
<event>
 8    1  0.1627221E-013  0.7910601E+02  0.7818608E-02  0.1331608E+00
         -1   -1    0    0    0  501 -0.00000000000E+00  0.00000000000E+00  0.14660150342E+01  0.14660236977E+01  0.50400000000E-02 0.  1.
          2   -1    0    0  501    0  0.00000000000E+00 -0.00000000000E+00 -0.10671346144E+04  0.10671346144E+04  0.25500000000E-02 0. -1.
         24    2    1    2    0    0  0.00000000000E+00 -0.35527136788E-14 -0.10656685993E+04  0.10686006381E+04  0.79106005302E+02 0.  0.
         66    2    3    3    0    0 -0.60315973347E+01 -0.27483571584E+02 -0.90819094751E+03  0.90862892537E+03  0.20000050276E+01 0.  0.
        -13    1    3    3    0    0  0.60315973347E+01  0.27483571584E+02 -0.15747765183E+03  0.15997171269E+03  0.10566000000E+00 0.  1.
         13    1    4    4    0    0 -0.26840241360E+01 -0.11155584056E+02 -0.39161526995E+03  0.39178333536E+03  0.10566000000E+00 0. -1.
        -13    1    4    4    0    0 -0.10511217471E+01 -0.76664407834E+01 -0.24296318578E+03  0.24308640435E+03  0.10566000000E+00 0. -1.
         14    1    4    4    0    0 -0.22964514516E+01 -0.86615467443E+01 -0.27361249177E+03  0.27375918566E+03  0.00000000000E+00 0. -1.
<mgrwt>
<rscale>  0 0.79106005E+02</rscale>
<asrwt>0</asrwt>
<pdfrwt beam="1">  1        2 0.16417394E+00 0.79106005E+02</pdfrwt>
<pdfrwt beam="2">  1       -1 0.22554229E-03 0.79106005E+02</pdfrwt>
<totfact> 0.36315977E+05</totfact>
</mgrwt>
</event>
<event>
 8    1  0.1627221E-013  0.8653157E+02  0.7818608E-02  0.1311475E+00
          2   -1    0    0  501    0  0.00000000000E+00  0.00000000000E+00  0.45002182097E+03  0.45002182098E+03  0.25500000000E-02 0. -1.
         -1   -1    0    0    0  501 -0.00000000000E+00 -0.00000000000E+00 -0.41596374018E+01  0.41596404552E+01  0.50400000000E-02 0.  1.
         24    2    1    2    0    0  0.00000000000E+00  0.35527136788E-14  0.44586218357E+03  0.45418146144E+03  0.86531573271E+02 0.  0.
         66    2    3    3    0    0 -0.19715749108E+02 -0.27051926275E+02  0.36673547501E+03  0.36826542888E+03  0.20000001331E+01 0.  0.
        -13    1    3    3    0    0  0.19715749108E+02  0.27051926275E+02  0.79126708563E+02  0.85916032556E+02  0.10566000000E+00 0.  1.
         13    1    4    4    0    0 -0.48424634474E+01 -0.64781736995E+01  0.83291242815E+02  0.83683083597E+02  0.10566000000E+00 0. -1.
        -13    1    4    4    0    0 -0.85255920395E+01 -0.12759219940E+02  0.17546186085E+03  0.17613165300E+03  0.10566000000E+00 0.  1.
        -14    1    4    4    0    0 -0.63476936205E+01 -0.78145326357E+01  0.10798237135E+03  0.10845069228E+03  0.00000000000E+00 0.  1.
<mgrwt>
<rscale>  0 0.86531573E+02</rscale>
<asrwt>0</asrwt>
<pdfrwt beam="1">  1        2 0.69234168E-01 0.86531573E+02</pdfrwt>
<pdfrwt beam="2">  1       -1 0.63994406E-03 0.86531573E+02</pdfrwt>
<totfact> 0.23953191E+05</totfact>
</mgrwt>
</event>
<event>
 8    1  0.1627221E-013  0.7824522E+02  0.7818608E-02  0.1334106E+00
         -1   -1    0    0    0  501 -0.00000000000E+00  0.00000000000E+00  0.12106934449E+02  0.12106935498E+02  0.50400000000E-02 0.  1.
          2   -1    0    0  501    0  0.00000000000E+00 -0.00000000000E+00 -0.12642164504E+03  0.12642164507E+03  0.25500000000E-02 0. -1.
         24    2    1    2    0    0  0.88817841970E-15  0.00000000000E+00 -0.11431471059E+03  0.13852858056E+03  0.78245220785E+02 0.  0.
         66    2    3    3    0    0 -0.60149264669E+01  0.35742692941E+02 -0.83145562589E+02  0.90724329809E+02  0.20000004628E+01 0.  0.
        -13    1    3    3    0    0  0.60149264669E+01 -0.35742692941E+02 -0.31169148001E+02  0.47804250755E+02  0.10566000000E+00 0.  1.
         13    1    4    4    0    0 -0.36973602919E+01  0.17698994695E+02 -0.41761917114E+02  0.45508172578E+02  0.10566000000E+00 0. -1.
        -13    1    4    4    0    0 -0.11241412565E+00  0.34590114457E+00 -0.10156856363E+01  0.10840045594E+01  0.10566000000E+00 0.  1.
         14    1    4    4    0    0 -0.22051520493E+01  0.17697797102E+02 -0.40367959839E+02  0.44132152672E+02  0.00000000000E+00 0. -1.
<mgrwt>
<rscale>  0 0.78245221E+02</rscale>
<asrwt>0</asrwt>
<pdfrwt beam="1">  1        2 0.19449483E-01 0.78245221E+02</pdfrwt>
<pdfrwt beam="2">  1       -1 0.18626055E-02 0.78245221E+02</pdfrwt>
<totfact> 0.20136997E+05</totfact>
</mgrwt>
</event>
<event>
 8    1  0.1627221E-013  0.7872499E+02  0.7818608E-02  0.1332709E+00
          2   -1    0    0  501    0  0.00000000000E+00  0.00000000000E+00  0.11148327302E+03  0.11148327304E+03  0.25500000000E-02 0. -1.
         -1   -1    0    0    0  501 -0.00000000000E+00 -0.00000000000E+00 -0.13898102468E+02  0.13898103381E+02  0.50400000000E-02 0.  1.
         24    2    1    2    0    0  0.44408920985E-15  0.35527136788E-14  0.97585170548E+02  0.12538137643E+03  0.78724989956E+02 0.  0.
         66    2    3    3    0    0  0.22354771020E+01 -0.21794570150E+02  0.10085761619E+03  0.10322915960E+03  0.20000005251E+01 0.  0.
        -13    1    3    3    0    0 -0.22354771020E+01  0.21794570150E+02 -0.32724456406E+01  0.22152216828E+02  0.10566000000E+00 0.  1.
         13    1    4    4    0    0  0.76301516315E+00 -0.47801527019E+01  0.24539057119E+02  0.25012167845E+02  0.10566000000E+00 0. -1.
        -13    1    4    4    0    0  0.10736231835E+01 -0.53877148686E+01  0.24490857985E+02  0.25099669861E+02  0.10566000000E+00 0.  1.
         14    1    4    4    0    0  0.39883875542E+00 -0.11626702580E+02  0.51827701085E+02  0.53117321892E+02  0.00000000000E+00 0. -1.
<mgrwt>
<rscale>  0 0.78724990E+02</rscale>
<asrwt>0</asrwt>
<pdfrwt beam="1">  1        2 0.17151272E-01 0.78724990E+02</pdfrwt>
<pdfrwt beam="2">  1       -1 0.21381697E-02 0.78724990E+02</pdfrwt>
<totfact> 0.19085957E+05</totfact>
</mgrwt>
</event>
<event>
 8    1  0.1627221E-013  0.7992386E+02  0.7818608E-02  0.1329268E+00
          2   -1    0    0  501    0  0.00000000000E+00  0.00000000000E+00  0.52529468506E+02  0.52529468568E+02  0.25500000000E-02 0. -1.
         -1   -1    0    0    0  501 -0.00000000000E+00 -0.00000000000E+00 -0.30401143683E+02  0.30401144101E+02  0.50400000000E-02 0.  1.
         24    2    1    2    0    0  0.00000000000E+00  0.00000000000E+00  0.22128324822E+02  0.82930612669E+02  0.79923862257E+02 0.  0.
         66    2    3    3    0    0  0.35311062309E+02 -0.16770832190E+02  0.25892613646E+01  0.39228002923E+02  0.20000013102E+01 0.  0.
        -13    1    3    3    0    0 -0.35311062309E+02  0.16770832190E+02  0.19539063458E+02  0.43702609745E+02  0.10566000000E+00 0.  1.
         13    1    4    4    0    0  0.13610757785E+02 -0.66071212833E+01  0.17467578054E+01  0.15230532033E+02  0.10566000000E+00 0. -1.
        -13    1    4    4    0    0  0.19729502271E+02 -0.93841204207E+01  0.52238314103E+00  0.21854039080E+02  0.10566000000E+00 0.  1.
        -14    1    4    4    0    0  0.19708022523E+01 -0.77959048600E+00  0.32012041816E+00  0.21434318104E+01  0.00000000000E+00 0.  1.
<mgrwt>
<rscale>  0 0.79923862E+02</rscale>
<asrwt>0</asrwt>
<pdfrwt beam="1">  1        2 0.80814567E-02 0.79923862E+02</pdfrwt>
<pdfrwt beam="2">  1       -1 0.46770991E-02 0.79923862E+02</pdfrwt>
<totfact> 0.15144991E+05</totfact>
</mgrwt>
</event>
<event>
 8    1  0.1627221E-013  0.7969988E+02  0.7818608E-02  0.1329905E+00
         -1   -1    0    0    0  501 -0.00000000000E+00  0.00000000000E+00  0.14861416671E+03  0.14861416679E+03  0.50400000000E-02 0.  1.
          2   -1    0    0  501    0  0.00000000000E+00 -0.00000000000E+00 -0.10685507236E+02  0.10685507540E+02  0.25500000000E-02 0. -1.
         24    2    1    2    0    0  0.17763568394E-14 -0.35527136788E-14  0.13792865947E+03  0.15929967433E+03  0.79699881676E+02 0.  0.
         66    2    3    3    0    0  0.14565144835E+02  0.30715159821E+02  0.27539193249E+02  0.43794653214E+02  0.19999996129E+01 0.  0.
        -13    1    3    3    0    0 -0.14565144835E+02 -0.30715159821E+02  0.11038946622E+03  0.11550502112E+03  0.10566000000E+00 0.  1.
         13    1    4    4    0    0  0.75423780651E+00  0.17163332188E+01  0.12387731918E+01  0.22495327166E+01  0.10566000000E+00 0. -1.
        -13    1    4    4    0    0  0.14124803249E+01  0.40029494149E+01  0.30926002480E+01  0.52530034282E+01  0.10566000000E+00 0.  1.
        -14    1    4    4    0    0  0.12398426703E+02  0.24995877187E+02  0.23207819809E+02  0.36292117069E+02  0.00000000000E+00 0.  1.
<mgrwt>
<rscale>  0 0.79699882E+02</rscale>
<asrwt>0</asrwt>
<pdfrwt beam="1">  1        2 0.16439241E-02 0.79699882E+02</pdfrwt>
<pdfrwt beam="2">  1       -1 0.22863719E-01 0.79699882E+02</pdfrwt>
<totfact> 0.10915926E+05</totfact>
</mgrwt>
</event>
<event>
 8    1  0.1627221E-013  0.8014788E+02  0.7818608E-02  0.1328632E+00
          2   -1    0    0  501    0  0.00000000000E+00  0.00000000000E+00  0.84930607133E+03  0.84930607133E+03  0.25500000000E-02 0. -1.
         -1   -1    0    0    0  501 -0.00000000000E+00 -0.00000000000E+00 -0.18908589427E+01  0.18908656597E+01  0.50400000000E-02 0.  1.
         24    2    1    2    0    0  0.35527136788E-14  0.00000000000E+00  0.84741521239E+03  0.85119693699E+03  0.80147884325E+02 0.  0.
         66    2    3    3    0    0  0.31881587982E+02 -0.47094036927E+01  0.67648046006E+03  0.67725063823E+03  0.20000020030E+01 0.  0.
        -13    1    3    3    0    0 -0.31881587982E+02  0.47094036927E+01  0.17093475232E+03  0.17394629876E+03  0.10566000000E+00 0.  1.
         13    1    4    4    0    0  0.20018141521E+02 -0.31246276319E+01  0.42886349355E+03  0.42934181785E+03  0.10566000000E+00 0. -1.
        -13    1    4    4    0    0  0.46074397581E+01 -0.84879206790E+00  0.10769745043E+03  0.10779935502E+03  0.10566000000E+00 0.  1.
        -14    1    4    4    0    0  0.72560067027E+01 -0.73598399298E+00  0.13991951608E+03  0.14010946536E+03  0.00000000000E+00 0.  1.
<mgrwt>
<rscale>  0 0.80147884E+02</rscale>
<asrwt>0</asrwt>
<pdfrwt beam="1">  1        2 0.13066216E+00 0.80147884E+02</pdfrwt>
<pdfrwt beam="2">  1       -1 0.29090259E-03 0.80147884E+02</pdfrwt>
<totfact> 0.34525246E+05</totfact>
</mgrwt>
</event>
<event>
 8    1  0.1627221E-013  0.7924964E+02  0.7818608E-02  0.1331194E+00
         -1   -1    0    0    0  501 -0.00000000000E+00  0.00000000000E+00  0.77967366268E+01  0.77967382558E+01  0.50400000000E-02 0.  1.
          2   -1    0    0  501    0  0.00000000000E+00 -0.00000000000E+00 -0.20138247263E+03  0.20138247264E+03  0.25500000000E-02 0. -1.
         24    2    1    2    0    0  0.35527136788E-14  0.88817841970E-15 -0.19358573600E+03  0.20917921090E+03  0.79249637788E+02 0.  0.
         66    2    3    3    0    0  0.19312016579E+02  0.58660967325E+01 -0.18678168293E+03  0.18787964805E+03  0.19999997969E+01 0.  0.
        -13    1    3    3    0    0 -0.19312016579E+02 -0.58660967325E+01 -0.68040530706E+01  0.21299562846E+02  0.10566000000E+00 0.  1.
         13    1    4    4    0    0  0.10077520651E+01  0.28907154946E+00 -0.65591584833E+01  0.66432560262E+01  0.10566000000E+00 0. -1.
        -13    1    4    4    0    0  0.37420759862E+01  0.11174444517E+01 -0.38794753512E+02  0.38990971761E+02  0.10566000000E+00 0.  1.
         14    1    4    4    0    0  0.14562188528E+02  0.44595807313E+01 -0.14142777093E+03  0.14224542027E+03  0.00000000000E+00 0. -1.
<mgrwt>
<rscale>  0 0.79249638E+02</rscale>
<asrwt>0</asrwt>
<pdfrwt beam="1">  1        2 0.30981915E-01 0.79249638E+02</pdfrwt>
<pdfrwt beam="2">  1       -1 0.11994982E-02 0.79249638E+02</pdfrwt>
<totfact> 0.22667804E+05</totfact>
</mgrwt>
</event>
<event>
 8    1  0.1627221E-013  0.8267450E+02  0.7818608E-02  0.1321628E+00
          2   -1    0    0  501    0  0.00000000000E+00  0.00000000000E+00  0.95533634594E+02  0.95533634628E+02  0.25500000000E-02 0. -1.
         -1   -1    0    0    0  501 -0.00000000000E+00 -0.00000000000E+00 -0.17886560927E+02  0.17886561637E+02  0.50400000000E-02 0.  1.
         24    2    1    2    0    0  0.00000000000E+00  0.17763568394E-14  0.77647073667E+02  0.11342019626E+03  0.82674499525E+02 0.  0.
         66    2    3    3    0    0  0.39418272886E+02 -0.99123847244E+01  0.48993312862E+02  0.63689875729E+02  0.19999892498E+01 0.  0.
        -13    1    3    3    0    0 -0.39418272886E+02  0.99123847244E+01  0.28653760805E+02  0.49730320535E+02  0.10566000000E+00 0.  1.
         13    1    4    4    0    0  0.26407711611E+02 -0.64119279916E+01  0.33515909542E+02  0.43148666370E+02  0.10566000000E+00 0. -1.
        -13    1    4    4    0    0  0.68198867412E+01 -0.16209965138E+01  0.74256752533E+01  0.10212262328E+02  0.10566000000E+00 0.  1.
        -14    1    4    4    0    0  0.61906745342E+01 -0.18794602190E+01  0.80517280664E+01  0.10328947030E+02  0.00000000000E+00 0.  1.
<mgrwt>
<rscale>  0 0.82674500E+02</rscale>
<asrwt>0</asrwt>
<pdfrwt beam="1">  1        2 0.14697482E-01 0.82674500E+02</pdfrwt>
<pdfrwt beam="2">  1       -1 0.27517786E-02 0.82674500E+02</pdfrwt>
<totfact> 0.16022141E+05</totfact>
</mgrwt>
</event>
<event>
 8    1  0.1627221E-013  0.7356653E+02  0.7818608E-02  0.1348368E+00
         -1   -1    0    0    0  501 -0.00000000000E+00  0.00000000000E+00  0.16276051375E+02  0.16276052156E+02  0.50400000000E-02 0.  1.
          2   -1    0    0  501    0  0.00000000000E+00 -0.00000000000E+00 -0.83128791570E+02  0.83128791609E+02  0.25500000000E-02 0. -1.
         24    2    1    2    0    0  0.00000000000E+00  0.00000000000E+00 -0.66852740195E+02  0.99404843765E+02  0.73566528343E+02 0.  0.
         66    2    3    3    0    0  0.25315815228E+02  0.13617286994E+02 -0.64402074800E+02  0.70554576337E+02  0.19999994842E+01 0.  0.
        -13    1    3    3    0    0 -0.25315815228E+02 -0.13617286994E+02 -0.24506653955E+01  0.28850267428E+02  0.10566000000E+00 0.  1.
         13    1    4    4    0    0  0.19907802016E+02  0.10776524351E+02 -0.51035008813E+02  0.55830433876E+02  0.10566000000E+00 0. -1.
        -13    1    4    4    0    0  0.17815049945E+01  0.49352538958E+00 -0.42171988065E+01  0.46057851844E+01  0.10566000000E+00 0.  1.
        -14    1    4    4    0    0  0.36265082180E+01  0.23472372534E+01 -0.91498671802E+01  0.10118357278E+02  0.00000000000E+00 0.  1.
<mgrwt>
<rscale>  0 0.73566528E+02</rscale>
<asrwt>0</asrwt>
<pdfrwt beam="1">  1        2 0.12789045E-01 0.73566528E+02</pdfrwt>
<pdfrwt beam="2">  1       -1 0.25040080E-02 0.73566528E+02</pdfrwt>
<totfact> 0.21104751E+05</totfact>
</mgrwt>
</event>
<event>
 8    1  0.1627221E-013  0.7872411E+02  0.7818608E-02  0.1332712E+00
         -1   -1    0    0    0  501 -0.00000000000E+00  0.00000000000E+00  0.12435005270E+01  0.12435107407E+01  0.50400000000E-02 0.  1.
          2   -1    0    0  501    0  0.00000000000E+00 -0.00000000000E+00 -0.12459705049E+04  0.12459705049E+04  0.25500000000E-02 0. -1.
         24    2    1    2    0    0  0.00000000000E+00  0.00000000000E+00 -0.12447270044E+04  0.12472140156E+04  0.78724109405E+02 0.  0.
         66    2    3    3    0    0 -0.11948554976E+02 -0.62545933368E+01 -0.12081949947E+04  0.12082719202E+04  0.19999974495E+01 0.  0.
        -13    1    3    3    0    0  0.11948554976E+02  0.62545933368E+01 -0.36532009684E+02  0.38942095468E+02  0.10566000000E+00 0.  1.
         13    1    4    4    0    0 -0.28973332225E+01 -0.11220373445E+01 -0.25775489498E+03  0.25777364209E+03  0.10566000000E+00 0. -1.
        -13    1    4    4    0    0 -0.60354608866E+01 -0.39247264979E+01 -0.60277451331E+03  0.60281751412E+03  0.10566000000E+00 0.  1.
        -14    1    4    4    0    0 -0.30157608667E+01 -0.12078294943E+01 -0.34766558638E+03  0.34768076395E+03  0.00000000000E+00 0.  1.
<mgrwt>
<rscale>  0 0.78724109E+02</rscale>
<asrwt>0</asrwt>
<pdfrwt beam="1">  1        2 0.19168677E+00 0.78724109E+02</pdfrwt>
<pdfrwt beam="2">  1       -1 0.19130956E-03 0.78724109E+02</pdfrwt>
<totfact> 0.36353746E+05</totfact>
</mgrwt>
</event>
<event>
 8    1  0.1627221E-013  0.7835928E+02  0.7818608E-02  0.1333773E+00
          2   -1    0    0  501    0  0.00000000000E+00  0.00000000000E+00  0.25810808961E+02  0.25810809087E+02  0.25500000000E-02 0. -1.
         -1   -1    0    0    0  501 -0.00000000000E+00 -0.00000000000E+00 -0.59472914043E+02  0.59472914256E+02  0.50400000000E-02 0.  1.
         24    2    1    2    0    0  0.35527136788E-14  0.17763568394E-14 -0.33662105082E+02  0.85283723343E+02  0.78359276086E+02 0.  0.
         66    2    3    3    0    0 -0.26837551459E+02 -0.10413864312E+02  0.12042575926E+02  0.31268616491E+02  0.20000010282E+01 0.  0.
        -13    1    3    3    0    0  0.26837551459E+02  0.10413864312E+02 -0.45704681007E+02  0.54015106852E+02  0.10566000000E+00 0.  1.
         13    1    4    4    0    0 -0.96525536846E+01 -0.32577435575E+01  0.35956065778E+01  0.10803899130E+02  0.10566000000E+00 0.  1.
        -13    1    4    4    0    0 -0.11485313737E+02 -0.43819075661E+01  0.58532908623E+01  0.13615642603E+02  0.10566000000E+00 0. -1.
        -14    1    4    4    0    0 -0.56996840373E+01 -0.27742131886E+01  0.25936784854E+01  0.68490747569E+01  0.00000000000E+00 0.  1.
<mgrwt>
<rscale>  0 0.78359276E+02</rscale>
<asrwt>0</asrwt>
<pdfrwt beam="1">  1        2 0.39708937E-02 0.78359276E+02</pdfrwt>
<pdfrwt beam="2">  1       -1 0.91496791E-02 0.78359276E+02</pdfrwt>
<totfact> 0.13848743E+05</totfact>
</mgrwt>
</event>
<event>
 8    1  0.1627221E-013  0.8363573E+02  0.7818608E-02  0.1319039E+00
         -1   -1    0    0    0  501 -0.00000000000E+00  0.00000000000E+00  0.40338484954E+01  0.40338516440E+01  0.50400000000E-02 0.  1.
          2   -1    0    0  501    0  0.00000000000E+00 -0.00000000000E+00 -0.43351479225E+03  0.43351479225E+03  0.25500000000E-02 0. -1.
         24    2    1    2    0    0 -0.88817841970E-15  0.00000000000E+00 -0.42948094375E+03  0.43754864390E+03  0.83635726407E+02 0.  0.
         66    2    3    3    0    0 -0.30935658630E+01 -0.40533453406E+02 -0.26563847265E+03  0.26873840281E+03  0.19999999412E+01 0.  0.
        -13    1    3    3    0    0  0.30935658630E+01  0.40533453406E+02 -0.16384247110E+03  0.16881024109E+03  0.10566000000E+00 0.  1.
         13    1    4    4    0    0 -0.10577221117E+00 -0.10535560699E+02 -0.69008807714E+02  0.69808566330E+02  0.10566000000E+00 0. -1.
        -13    1    4    4    0    0 -0.33773982436E+00 -0.75940636408E+01 -0.50419324126E+02  0.50989246710E+02  0.10566000000E+00 0.  1.
         14    1    4    4    0    0 -0.26500538275E+01 -0.22403829066E+02 -0.14621034081E+03  0.14794058977E+03  0.00000000000E+00 0. -1.
<mgrwt>
<rscale>  0 0.83635726E+02</rscale>
<asrwt>0</asrwt>
<pdfrwt beam="1">  1        2 0.66694547E-01 0.83635726E+02</pdfrwt>
<pdfrwt beam="2">  1       -1 0.62059266E-03 0.83635726E+02</pdfrwt>
<totfact> 0.25861479E+05</totfact>
</mgrwt>
</event>
<event>
 8    1  0.1627221E-013  0.8030492E+02  0.7818608E-02  0.1328188E+00
         -1   -1    0    0    0  501 -0.00000000000E+00  0.00000000000E+00  0.28771904521E+01  0.28771948664E+01  0.50400000000E-02 0.  1.
          2   -1    0    0  501    0  0.00000000000E+00 -0.00000000000E+00 -0.56034487424E+03  0.56034487424E+03  0.25500000000E-02 0. -1.
         24    2    1    2    0    0  0.00000000000E+00  0.00000000000E+00 -0.55746768379E+03  0.56322206911E+03  0.80304923057E+02 0.  0.
         66    2    3    3    0    0  0.39080178969E+02 -0.33048368421E+01 -0.33843171738E+03  0.34070252372E+03  0.20000023517E+01 0.  0.
        -13    1    3    3    0    0 -0.39080178969E+02  0.33048368421E+01 -0.21903596641E+03  0.22251954539E+03  0.10566000000E+00 0.  1.
         13    1    4    4    0    0  0.51524208188E+01 -0.40231648583E+00 -0.47404726190E+02  0.47685726669E+02  0.10566000000E+00 0. -1.
        -13    1    4    4    0    0  0.45280998660E+01 -0.84111214887E+00 -0.42012906698E+02  0.42264721119E+02  0.10566000000E+00 0.  1.
         14    1    4    4    0    0  0.29399658284E+02 -0.20614082075E+01 -0.24901408449E+03  0.25075207593E+03  0.00000000000E+00 0. -1.
<mgrwt>
<rscale>  0 0.80304923E+02</rscale>
<asrwt>0</asrwt>
<pdfrwt beam="1">  1        2 0.86206817E-01 0.80304923E+02</pdfrwt>
<pdfrwt beam="2">  1       -1 0.44264547E-03 0.80304923E+02</pdfrwt>
<totfact> 0.31226898E+05</totfact>
</mgrwt>
</event>
<event>
 8    1  0.1627221E-013  0.7446183E+02  0.7818608E-02  0.1345546E+00
          2   -1    0    0  501    0  0.00000000000E+00  0.00000000000E+00  0.27516376659E+03  0.27516376660E+03  0.25500000000E-02 0. -1.
         -1   -1    0    0    0  501 -0.00000000000E+00 -0.00000000000E+00 -0.50375116467E+01  0.50375141680E+01  0.50400000000E-02 0.  1.
         24    2    1    2    0    0  0.00000000000E+00  0.71054273576E-14  0.27012625494E+03  0.28020128077E+03  0.74461830056E+02 0.  0.
         66    2    3    3    0    0 -0.17373085942E+02  0.31570509626E+02  0.16997889228E+03  0.17376807822E+03  0.19999983064E+01 0.  0.
        -13    1    3    3    0    0  0.17373085942E+02 -0.31570509626E+02  0.10014736266E+03  0.10643320255E+03  0.10566000000E+00 0.  1.
         13    1    4    4    0    0 -0.48025764690E+01  0.93478286265E+01  0.50880640069E+02  0.51954762425E+02  0.10566000000E+00 0. -1.
        -13    1    4    4    0    0 -0.48245885802E+01  0.71256240006E+01  0.40593800645E+02  0.41496011703E+02  0.10566000000E+00 0.  1.
        -14    1    4    4    0    0 -0.77459208927E+01  0.15097056999E+02  0.78504451568E+02  0.80317304092E+02  0.00000000000E+00 0.  1.
<mgrwt>
<rscale>  0 0.74461830E+02</rscale>
<asrwt>0</asrwt>
<pdfrwt beam="1">  1        2 0.42332891E-01 0.74461830E+02</pdfrwt>
<pdfrwt beam="2">  1       -1 0.77500191E-03 0.74461830E+02</pdfrwt>
<totfact> 0.29807210E+05</totfact>
</mgrwt>
</event>
<event>
 8    1  0.1627221E-013  0.7750413E+02  0.7818608E-02  0.1336287E+00
         -1   -1    0    0    0  501 -0.00000000000E+00  0.00000000000E+00  0.42949134878E+01  0.42949164449E+01  0.50400000000E-02 0.  1.
          2   -1    0    0  501    0  0.00000000000E+00 -0.00000000000E+00 -0.34965128011E+03  0.34965128012E+03  0.25500000000E-02 0. -1.
         24    2    1    2    0    0 -0.35527136788E-14  0.00000000000E+00 -0.34535636662E+03  0.35394619656E+03  0.77504129540E+02 0.  0.
         66    2    3    3    0    0 -0.23458016655E+02  0.35579794764E+01 -0.31256838790E+03  0.31347397800E+03  0.20000000887E+01 0.  0.
        -13    1    3    3    0    0  0.23458016655E+02 -0.35579794764E+01 -0.32787978717E+02  0.40472218567E+02  0.10566000000E+00 0.  1.
         13    1    4    4    0    0 -0.92100645933E+01  0.19806684441E+01 -0.12915311761E+03  0.12949628292E+03  0.10566000000E+00 0. -1.
        -13    1    4    4    0    0 -0.96162212569E+01  0.71524583943E+00 -0.12768899260E+03  0.12805261919E+03  0.10566000000E+00 0.  1.
         14    1    4    4    0    0 -0.46317308051E+01  0.86206519295E+00 -0.55726277696E+02  0.55925075883E+02  0.00000000000E+00 0. -1.
<mgrwt>
<rscale>  0 0.77504130E+02</rscale>
<asrwt>0</asrwt>
<pdfrwt beam="1">  1        2 0.53792482E-01 0.77504130E+02</pdfrwt>
<pdfrwt beam="2">  1       -1 0.66075643E-03 0.77504130E+02</pdfrwt>
<totfact> 0.29265629E+05</totfact>
</mgrwt>
</event>
<event>
 8    1  0.1627221E-013  0.7900112E+02  0.7818608E-02  0.1331910E+00
         -1   -1    0    0    0  501 -0.00000000000E+00  0.00000000000E+00  0.12670058839E+03  0.12670058849E+03  0.50400000000E-02 0.  1.
          2   -1    0    0  501    0  0.00000000000E+00 -0.00000000000E+00 -0.12314813487E+02  0.12314813751E+02  0.25500000000E-02 0. -1.
         24    2    1    2    0    0  0.00000000000E+00  0.00000000000E+00  0.11438577490E+03  0.13901540224E+03  0.79001117460E+02 0.  0.
         66    2    3    3    0    0  0.33649936958E+02  0.19530768671E+01  0.21074604865E+02  0.39802911170E+02  0.20000002196E+01 0.  0.
        -13    1    3    3    0    0 -0.33649936958E+02 -0.19530768671E+01  0.93311170039E+02  0.99212491071E+02  0.10566000000E+00 0.  1.
         13    1    4    4    0    0  0.22539215598E+02  0.11907740883E+01  0.14621989711E+02  0.26893269229E+02  0.10566000000E+00 0. -1.
        -13    1    4    4    0    0  0.10503337327E+02  0.56991279310E+00  0.58699470644E+01  0.12046258264E+02  0.10566000000E+00 0.  1.
        -14    1    4    4    0    0  0.60738403369E+00  0.19238998573E+00  0.58266808995E+00  0.86338367719E+00  0.00000000000E+00 0.  1.
<mgrwt>
<rscale>  0 0.79001117E+02</rscale>
<asrwt>0</asrwt>
<pdfrwt beam="1">  1        2 0.18945866E-02 0.79001117E+02</pdfrwt>
<pdfrwt beam="2">  1       -1 0.19492399E-01 0.79001117E+02</pdfrwt>
<totfact> 0.11602623E+05</totfact>
</mgrwt>
</event>
<event>
 8    1  0.1627221E-013  0.8110951E+02  0.7818608E-02  0.1325932E+00
          2   -1    0    0  501    0  0.00000000000E+00  0.00000000000E+00  0.66359909752E+02  0.66359909801E+02  0.25500000000E-02 0. -1.
         -1   -1    0    0    0  501 -0.00000000000E+00 -0.00000000000E+00 -0.24784363350E+02  0.24784363862E+02  0.50400000000E-02 0.  1.
         24    2    1    2    0    0 -0.71054273576E-14  0.00000000000E+00  0.41575546402E+02  0.91144273663E+02  0.81109509695E+02 0.  0.
         66    2    3    3    0    0  0.39459535402E+02  0.92286581625E+01  0.21562602495E+02  0.45947457918E+02  0.19999992941E+01 0.  0.
        -13    1    3    3    0    0 -0.39459535402E+02 -0.92286581625E+01  0.20012943907E+02  0.45196815745E+02  0.10566000000E+00 0.  1.
         13    1    4    4    0    0  0.12431003403E+02  0.33374698884E+01  0.74416201995E+01  0.14868000071E+02  0.10566000000E+00 0. -1.
        -13    1    4    4    0    0  0.10749951278E+02  0.19877825814E+01  0.60556350630E+01  0.12497784288E+02  0.10566000000E+00 0.  1.
        -14    1    4    4    0    0  0.16278580721E+02  0.39034056927E+01  0.80653472328E+01  0.18581673559E+02  0.00000000000E+00 0.  1.
<mgrwt>
<rscale>  0 0.81109510E+02</rscale>
<asrwt>0</asrwt>
<pdfrwt beam="1">  1        2 0.10209217E-01 0.81109510E+02</pdfrwt>
<pdfrwt beam="2">  1       -1 0.38129790E-02 0.81109510E+02</pdfrwt>
<totfact> 0.15354515E+05</totfact>
</mgrwt>
</event>
<event>
 8    1  0.1627221E-013  0.8378838E+02  0.7818608E-02  0.1318632E+00
         -1   -1    0    0    0  501 -0.00000000000E+00  0.00000000000E+00  0.27550865049E+01  0.27550911149E+01  0.50400000000E-02 0.  1.
          2   -1    0    0  501    0  0.00000000000E+00 -0.00000000000E+00 -0.63704781179E+03  0.63704781180E+03  0.25500000000E-02 0. -1.
         24    2    1    2    0    0 -0.35527136788E-14  0.00000000000E+00 -0.63429272529E+03  0.63980290291E+03  0.83788383578E+02 0.  0.
         66    2    3    3    0    0  0.22975250423E+02  0.78770168453E+01 -0.57775668527E+03  0.57827043579E+03  0.19999993622E+01 0.  0.
        -13    1    3    3    0    0 -0.22975250423E+02 -0.78770168453E+01 -0.56536040015E+02  0.61532467129E+02  0.10566000000E+00 0.  1.
         13    1    4    4    0    0  0.75687694306E+01  0.27430454743E+01 -0.20538378508E+03  0.20554153085E+03  0.10566000000E+00 0. -1.
        -13    1    4    4    0    0  0.29312627805E+00  0.57632482149E-01 -0.48319149614E+01  0.48422939551E+01  0.10566000000E+00 0.  1.
         14    1    4    4    0    0  0.15113354715E+02  0.50763388888E+01 -0.36754098524E+03  0.36788661098E+03  0.00000000000E+00 0. -1.
<mgrwt>
<rscale>  0 0.83788384E+02</rscale>
<asrwt>0</asrwt>
<pdfrwt beam="1">  1        2 0.98007239E-01 0.83788384E+02</pdfrwt>
<pdfrwt beam="2">  1       -1 0.42386033E-03 0.83788384E+02</pdfrwt>
<totfact> 0.28973194E+05</totfact>
</mgrwt>
</event>
<event>
 8    1  0.1627221E-013  0.7947387E+02  0.7818608E-02  0.1330551E+00
          2   -1    0    0  501    0  0.00000000000E+00  0.00000000000E+00  0.15865633892E+02  0.15865634097E+02  0.25500000000E-02 0. -1.
         -1   -1    0    0    0  501 -0.00000000000E+00 -0.00000000000E+00 -0.99524807902E+02  0.99524808029E+02  0.50400000000E-02 0.  1.
         24    2    1    2    0    0  0.00000000000E+00 -0.88817841970E-15 -0.83659174010E+02  0.11539044213E+03  0.79473874563E+02 0.  0.
         66    2    3    3    0    0  0.36148858712E+02  0.55022303562E+01 -0.19362592248E+02  0.41423719099E+02  0.20000000954E+01 0.  0.
        -13    1    3    3    0    0 -0.36148858712E+02 -0.55022303562E+01 -0.64296581761E+02  0.73966723027E+02  0.10566000000E+00 0.  1.
         13    1    4    4    0    0  0.28248355987E+02  0.45981025279E+01 -0.15309425313E+02  0.32457692929E+02  0.10566000000E+00 0. -1.
        -13    1    4    4    0    0  0.59014572466E+01  0.94855303741E+00 -0.33065243827E+01  0.68316336280E+01  0.10566000000E+00 0.  1.
         14    1    4    4    0    0  0.19990454779E+01 -0.44425209164E-01 -0.74664255285E+00  0.21343925421E+01  0.00000000000E+00 0. -1.
<mgrwt>
<rscale>  0 0.79473875E+02</rscale>
<asrwt>0</asrwt>
<pdfrwt beam="1">  1        2 0.24408668E-02 0.79473875E+02</pdfrwt>
<pdfrwt beam="2">  1       -1 0.15311509E-01 0.79473875E+02</pdfrwt>
<totfact> 0.12061814E+05</totfact>
</mgrwt>
</event>
<event>
 8    1  0.1627221E-013  0.7950140E+02  0.7818608E-02  0.1330472E+00
         -1   -1    0    0    0  501 -0.00000000000E+00  0.00000000000E+00  0.65664769352E+02  0.65664769546E+02  0.50400000000E-02 0.  1.
          2   -1    0    0  501    0  0.00000000000E+00 -0.00000000000E+00 -0.24063410372E+02  0.24063410507E+02  0.25500000000E-02 0. -1.
         24    2    1    2    0    0  0.00000000000E+00  0.00000000000E+00  0.41601358980E+02  0.89728180052E+02  0.79501403928E+02 0.  0.
         66    2    3    3    0    0  0.15905483909E+02  0.84361244439E+01 -0.19152685330E+02  0.26362434747E+02  0.19999991092E+01 0.  0.
        -13    1    3    3    0    0 -0.15905483909E+02 -0.84361244439E+01  0.60754044310E+02  0.63365745305E+02  0.10566000000E+00 0.  1.
         13    1    4    4    0    0  0.83357694364E+01  0.52398775134E+01 -0.11391032839E+02  0.15056831062E+02  0.10566000000E+00 0. -1.
        -13    1    4    4    0    0  0.59448719171E+01  0.25712071013E+01 -0.62034071825E+01  0.89691712424E+01  0.10566000000E+00 0.  1.
         14    1    4    4    0    0  0.16248425560E+01  0.62503982923E+00 -0.15582453083E+01  0.23364324430E+01  0.00000000000E+00 0. -1.
<mgrwt>
<rscale>  0 0.79501404E+02</rscale>
<asrwt>0</asrwt>
<pdfrwt beam="1">  1        2 0.37020632E-02 0.79501404E+02</pdfrwt>
<pdfrwt beam="2">  1       -1 0.10102272E-01 0.79501404E+02</pdfrwt>
<totfact> 0.13113339E+05</totfact>
</mgrwt>
</event>
<event>
 8    1  0.1627221E-013  0.8077550E+02  0.7818608E-02  0.1326865E+00
         -1   -1    0    0    0  501 -0.00000000000E+00  0.00000000000E+00  0.85976861631E+02  0.85976861778E+02  0.50400000000E-02 0.  1.
          2   -1    0    0  501    0  0.00000000000E+00 -0.00000000000E+00 -0.18972201646E+02  0.18972201817E+02  0.25500000000E-02 0. -1.
         24    2    1    2    0    0 -0.44408920985E-15  0.00000000000E+00  0.67004659985E+02  0.10494906360E+03  0.80775500556E+02 0.  0.
         66    2    3    3    0    0 -0.21697049113E+01 -0.28403538263E+02 -0.36302888457E+01  0.28786239557E+02  0.19999963730E+01 0.  0.
        -13    1    3    3    0    0  0.21697049113E+01  0.28403538263E+02  0.70634948830E+02  0.76162824039E+02  0.10566000000E+00 0.  1.
         13    1    4    4    0    0 -0.20385247644E+01 -0.24705774179E+02 -0.33177978323E+01  0.25010993732E+02  0.10566000000E+00 0. -1.
        -13    1    4    4    0    0 -0.39291680988E+00 -0.18840067969E+01 -0.94149129778E-01  0.19297391856E+01  0.10566000000E+00 0.  1.
         14    1    4    4    0    0  0.26173666290E+00 -0.18137572871E+01 -0.21834188362E+00  0.18455066392E+01  0.00000000000E+00 0. -1.
<mgrwt>
<rscale>  0 0.80775501E+02</rscale>
<asrwt>0</asrwt>
<pdfrwt beam="1">  1        2 0.29188003E-02 0.80775501E+02</pdfrwt>
<pdfrwt beam="2">  1       -1 0.13227209E-01 0.80775501E+02</pdfrwt>
<totfact> 0.11945926E+05</totfact>
</mgrwt>
</event>
<event>
 8    1  0.1627221E-013  0.7046445E+02  0.7818608E-02  0.1358521E+00
          2   -1    0    0  501    0  0.00000000000E+00  0.00000000000E+00  0.61126095389E+01  0.61126100708E+01  0.25500000000E-02 0. -1.
         -1   -1    0    0    0  501 -0.00000000000E+00 -0.00000000000E+00 -0.20307359694E+03  0.20307359700E+03  0.50400000000E-02 0.  1.
         24    2    1    2    0    0  0.00000000000E+00  0.00000000000E+00 -0.19696098740E+03  0.20918620707E+03  0.70464449701E+02 0.  0.
         66    2    3    3    0    0 -0.49348132645E+01  0.34796909121E+02 -0.92528281319E+02  0.98998283370E+02  0.20000000244E+01 0.  0.
        -13    1    3    3    0    0  0.49348132645E+01 -0.34796909121E+02 -0.10443270608E+03  0.11018792370E+03  0.10566000000E+00 0.  1.
         13    1    4    4    0    0 -0.66466384102E+00  0.43180378811E+01 -0.13289783059E+02  0.13989879448E+02  0.10566000000E+00 0. -1.
        -13    1    4    4    0    0 -0.42022360751E+00  0.43918773705E+01 -0.11040433061E+02  0.11889806597E+02  0.10566000000E+00 0.  1.
        -14    1    4    4    0    0 -0.38499258160E+01  0.26086993869E+02 -0.68198065199E+02  0.73118597325E+02  0.00000000000E+00 0.  1.
<mgrwt>
<rscale>  0 0.70464450E+02</rscale>
<asrwt>0</asrwt>
<pdfrwt beam="1">  1        2 0.94040167E-03 0.70464450E+02</pdfrwt>
<pdfrwt beam="2">  1       -1 0.31242087E-01 0.70464450E+02</pdfrwt>
<totfact> 0.13680484E+05</totfact>
</mgrwt>
</event>
<event>
 8    1  0.1627221E-013  0.8094288E+02  0.7818608E-02  0.1326397E+00
         -1   -1    0    0    0  501 -0.00000000000E+00  0.00000000000E+00  0.39640464492E+01  0.39640496532E+01  0.50400000000E-02 0.  1.
          2   -1    0    0  501    0  0.00000000000E+00 -0.00000000000E+00 -0.41319816551E+03  0.41319816552E+03  0.25500000000E-02 0. -1.
         24    2    1    2    0    0  0.00000000000E+00  0.00000000000E+00 -0.40923411906E+03  0.41716221517E+03  0.80942878395E+02 0.  0.
         66    2    3    3    0    0 -0.33333230900E+02 -0.49712882037E+01 -0.31999696294E+03  0.32177301670E+03  0.19999989489E+01 0.  0.
        -13    1    3    3    0    0  0.33333230900E+02  0.49712882037E+01 -0.89237156118E+02  0.95389198470E+02  0.10566000000E+00 0.  1.
         13    1    4    4    0    0 -0.11297198583E+02 -0.98327236942E+00 -0.10661011462E+03  0.10721157225E+03  0.10566000000E+00 0. -1.
        -13    1    4    4    0    0 -0.11606844392E+01 -0.39565561207E-01 -0.98555678208E+01  0.99243203751E+01  0.10566000000E+00 0.  1.
        -14    1    4    4    0    0 -0.20875347878E+02 -0.39484502731E+01 -0.20353128050E+03  0.20463712408E+03  0.00000000000E+00 0.  1.
<mgrwt>
<rscale>  0 0.80942878E+02</rscale>
<asrwt>0</asrwt>
<pdfrwt beam="1">  1        2 0.63568915E-01 0.80942878E+02</pdfrwt>
<pdfrwt beam="2">  1       -1 0.60985388E-03 0.80942878E+02</pdfrwt>
<totfact> 0.27712995E+05</totfact>
</mgrwt>
</event>
<event>
 8    1  0.1627221E-013  0.8054237E+02  0.7818608E-02  0.1327519E+00
         -1   -1    0    0    0  501 -0.00000000000E+00  0.00000000000E+00  0.97629668819E+01  0.97629681828E+01  0.50400000000E-02 0.  1.
          2   -1    0    0  501    0  0.00000000000E+00 -0.00000000000E+00 -0.16611428332E+03  0.16611428334E+03  0.25500000000E-02 0. -1.
         24    2    1    2    0    0 -0.35527136788E-14  0.35527136788E-14 -0.15635131644E+03  0.17587725153E+03  0.80542370534E+02 0.  0.
         66    2    3    3    0    0 -0.28101220720E+02  0.18268239811E+02 -0.12687363182E+03  0.13124147836E+03  0.19999995071E+01 0.  0.
        -13    1    3    3    0    0  0.28101220720E+02 -0.18268239811E+02 -0.29477684619E+02  0.44635773168E+02  0.10566000000E+00 0.  1.
         13    1    4    4    0    0 -0.57110926083E+01  0.33099505489E+01 -0.24880398289E+02  0.25741362327E+02  0.10566000000E+00 0. -1.
        -13    1    4    4    0    0 -0.95346005309E+01  0.65210288669E+01 -0.40719194889E+02  0.42326072594E+02  0.10566000000E+00 0.  1.
        -14    1    4    4    0    0 -0.12855527580E+02  0.84372603956E+01 -0.61274038645E+02  0.63174043437E+02  0.00000000000E+00 0.  1.
<mgrwt>
<rscale>  0 0.80542371E+02</rscale>
<asrwt>0</asrwt>
<pdfrwt beam="1">  1        2 0.25556041E-01 0.80542371E+02</pdfrwt>
<pdfrwt beam="2">  1       -1 0.15019951E-02 0.80542371E+02</pdfrwt>
<totfact> 0.20342106E+05</totfact>
</mgrwt>
</event>
<event>
 8    1  0.1627221E-013  0.7979807E+02  0.7818608E-02  0.1329625E+00
          2   -1    0    0  501    0  0.00000000000E+00  0.00000000000E+00  0.60235489213E+03  0.60235489213E+03  0.25500000000E-02 0. -1.
         -1   -1    0    0    0  501 -0.00000000000E+00 -0.00000000000E+00 -0.26428468356E+01  0.26428516413E+01  0.50400000000E-02 0.  1.
         24    2    1    2    0    0 -0.35527136788E-14  0.35527136788E-14  0.59971204529E+03  0.60499774377E+03  0.79798074561E+02 0.  0.
         66    2    3    3    0    0  0.29825963528E+02  0.23700785258E+02  0.38930514959E+03  0.39116980302E+03  0.19999947348E+01 0.  0.
        -13    1    3    3    0    0 -0.29825963528E+02 -0.23700785258E+02  0.21040689570E+03  0.21382794075E+03  0.10566000000E+00 0.  1.
         13    1    4    4    0    0  0.92184469355E+01  0.73794030677E+01  0.11511565727E+03  0.11571975227E+03  0.10566000000E+00 0. -1.
        -13    1    4    4    0    0  0.14372127237E+01  0.94447665968E+00  0.15279543798E+02  0.15376385768E+02  0.10566000000E+00 0. -1.
         14    1    4    4    0    0  0.19170303869E+02  0.15376905530E+02  0.25890994853E+03  0.26007366499E+03  0.00000000000E+00 0. -1.
<mgrwt>
<rscale>  0 0.79798075E+02</rscale>
<asrwt>0</asrwt>
<pdfrwt beam="1">  1        2 0.92670040E-01 0.79798075E+02</pdfrwt>
<pdfrwt beam="2">  1       -1 0.40659194E-03 0.79798075E+02</pdfrwt>
<totfact> 0.32410958E+05</totfact>
</mgrwt>
</event>
<event>
 8    1  0.1627221E-013  0.8071795E+02  0.7818608E-02  0.1327026E+00
         -1   -1    0    0    0  501 -0.00000000000E+00  0.00000000000E+00  0.47725233565E+01  0.47725260178E+01  0.50400000000E-02 0.  1.
          2   -1    0    0  501    0  0.00000000000E+00 -0.00000000000E+00 -0.34129665596E+03  0.34129665597E+03  0.25500000000E-02 0. -1.
         24    2    1    2    0    0 -0.35527136788E-14 -0.35527136788E-14 -0.33652413260E+03  0.34606918199E+03  0.80717946560E+02 0.  0.
         66    2    3    3    0    0 -0.20436553484E+02 -0.22785693968E+02 -0.28098565421E+03  0.28265487513E+03  0.19999987152E+01 0.  0.
        -13    1    3    3    0    0  0.20436553484E+02  0.22785693968E+02 -0.55538478392E+02  0.63414306856E+02  0.10566000000E+00 0.  1.
         13    1    4    4    0    0 -0.12225158563E+02 -0.14582315073E+02 -0.17216785399E+03  0.17321627963E+03  0.10566000000E+00 0. -1.
        -13    1    4    4    0    0 -0.28590466596E+01 -0.23003758378E+01 -0.33741970925E+02  0.33941090771E+02  0.10566000000E+00 0.  1.
        -14    1    4    4    0    0 -0.53523482619E+01 -0.59030030569E+01 -0.75075829293E+02  0.75497504734E+02  0.00000000000E+00 0.  1.
<mgrwt>
<rscale>  0 0.80717947E+02</rscale>
<asrwt>0</asrwt>
<pdfrwt beam="1">  1        2 0.52507159E-01 0.80717947E+02</pdfrwt>
<pdfrwt beam="2">  1       -1 0.73423483E-03 0.80717947E+02</pdfrwt>
<totfact> 0.26090373E+05</totfact>
</mgrwt>
</event>
<event>
 8    1  0.1627221E-013  0.8104022E+02  0.7818608E-02  0.1326125E+00
         -1   -1    0    0    0  501 -0.00000000000E+00  0.00000000000E+00  0.18024898759E+02  0.18024899464E+02  0.50400000000E-02 0.  1.
          2   -1    0    0  501    0  0.00000000000E+00 -0.00000000000E+00 -0.91089504238E+02  0.91089504274E+02  0.25500000000E-02 0. -1.
         24    2    1    2    0    0  0.00000000000E+00  0.35527136788E-14 -0.73064605479E+02  0.10911440374E+03  0.81040215506E+02 0.  0.
         66    2    3    3    0    0  0.18231263705E+02  0.29605973337E+02 -0.64506357858E+02  0.73307317849E+02  0.20000031227E+01 0.  0.
        -13    1    3    3    0    0 -0.18231263705E+02 -0.29605973337E+02 -0.85582476207E+01  0.35807085889E+02  0.10566000000E+00 0.  1.
         13    1    4    4    0    0  0.42520096219E+01  0.69988867796E+01 -0.14568383164E+02  0.16712658497E+02  0.10566000000E+00 0. -1.
        -13    1    4    4    0    0  0.60123583476E+01  0.10692054702E+02 -0.21700128341E+02  0.24927398996E+02  0.10566000000E+00 0.  1.
        -14    1    4    4    0    0  0.79668957355E+01  0.11915031855E+02 -0.28237846353E+02  0.31667260356E+02  0.00000000000E+00 0.  1.
<mgrwt>
<rscale>  0 0.81040216E+02</rscale>
<asrwt>0</asrwt>
<pdfrwt beam="1">  1        2 0.14013770E-01 0.81040216E+02</pdfrwt>
<pdfrwt beam="2">  1       -1 0.27730615E-02 0.81040216E+02</pdfrwt>
<totfact> 0.16687094E+05</totfact>
</mgrwt>
</event>
<event>
 8    1  0.1627221E-013  0.8549250E+02  0.7818608E-02  0.1314150E+00
          2   -1    0    0  501    0  0.00000000000E+00  0.00000000000E+00  0.95258673129E+02  0.95258673163E+02  0.25500000000E-02 0. -1.
         -1   -1    0    0    0  501 -0.00000000000E+00 -0.00000000000E+00 -0.19181894481E+02  0.19181895143E+02  0.50400000000E-02 0.  1.
         24    2    1    2    0    0  0.00000000000E+00  0.00000000000E+00  0.76076778648E+02  0.11444056831E+03  0.85492499230E+02 0.  0.
         66    2    3    3    0    0 -0.27651795994E+02 -0.32079939329E+02  0.30547150409E+02  0.52257752829E+02  0.20000008793E+01 0.  0.
        -13    1    3    3    0    0  0.27651795994E+02  0.32079939329E+02  0.45529628239E+02  0.62182815477E+02  0.10566000000E+00 0.  1.
         13    1    4    4    0    0 -0.13669169469E+01 -0.15447994719E+01  0.11653886766E+01  0.23715316045E+01  0.10566000000E+00 0. -1.
        -13    1    4    4    0    0 -0.11384707916E+02 -0.12955907702E+02  0.11734710043E+02  0.20861009145E+02  0.10566000000E+00 0.  1.
         14    1    4    4    0    0 -0.14900171130E+02 -0.17579232156E+02  0.17647051690E+02  0.29025212079E+02  0.00000000000E+00 0. -1.
<mgrwt>
<rscale>  0 0.85492499E+02</rscale>
<asrwt>0</asrwt>
<pdfrwt beam="1">  1        2 0.14655180E-01 0.85492499E+02</pdfrwt>
<pdfrwt beam="2">  1       -1 0.29510608E-02 0.85492499E+02</pdfrwt>
<totfact> 0.14624914E+05</totfact>
</mgrwt>
</event>
<event>
 8    1  0.1627221E-013  0.7899089E+02  0.7818608E-02  0.1331940E+00
          2   -1    0    0  501    0  0.00000000000E+00  0.00000000000E+00  0.75411692774E+03  0.75411692775E+03  0.25500000000E-02 0. -1.
         -1   -1    0    0    0  501 -0.00000000000E+00 -0.00000000000E+00 -0.20684960484E+01  0.20685021885E+01  0.50400000000E-02 0.  1.
         24    2    1    2    0    0  0.00000000000E+00 -0.35527136788E-14  0.75204843170E+03  0.75618542994E+03  0.78990890823E+02 0.  0.
         66    2    3    3    0    0 -0.12365403691E+02  0.28366317319E+02  0.61082127733E+03  0.61160786784E+03  0.20000005255E+01 0.  0.
        -13    1    3    3    0    0  0.12365403691E+02 -0.28366317319E+02  0.14122715437E+03  0.14457756209E+03  0.10566000000E+00 0.  1.
         13    1    4    4    0    0 -0.90742117128E+01  0.19321010387E+02  0.41434241148E+03  0.41489189903E+03  0.10566000000E+00 0. -1.
        -13    1    4    4    0    0 -0.48042419114E+00  0.94299285067E+00  0.25469498445E+02  0.25491695864E+02  0.10566000000E+00 0.  1.
         14    1    4    4    0    0 -0.28107677873E+01  0.81023140805E+01  0.17100936740E+03  0.17122427295E+03  0.00000000000E+00 0. -1.
<mgrwt>
<rscale>  0 0.78990891E+02</rscale>
<asrwt>0</asrwt>
<pdfrwt beam="1">  1        2 0.11601816E+00 0.78990891E+02</pdfrwt>
<pdfrwt beam="2">  1       -1 0.31823016E-03 0.78990891E+02</pdfrwt>
<totfact> 0.35129167E+05</totfact>
</mgrwt>
</event>
<event>
 8    1  0.1627221E-013  0.7278015E+02  0.7818608E-02  0.1350886E+00
          2   -1    0    0  501    0  0.00000000000E+00  0.00000000000E+00  0.10825413731E+03  0.10825413734E+03  0.25500000000E-02 0. -1.
         -1   -1    0    0    0  501 -0.00000000000E+00 -0.00000000000E+00 -0.12232673847E+02  0.12232674885E+02  0.50400000000E-02 0.  1.
         24    2    1    2    0    0  0.00000000000E+00 -0.17763568394E-14  0.96021463466E+02  0.12048681223E+03  0.72780151654E+02 0.  0.
         66    2    3    3    0    0  0.14196875414E+01 -0.10885344933E+02  0.10543598198E+03  0.10602477330E+03  0.20000030413E+01 0.  0.
        -13    1    3    3    0    0 -0.14196875414E+01  0.10885344933E+02 -0.94145185090E+01  0.14462038924E+02  0.10566000000E+00 0.  1.
         13    1    4    4    0    0  0.11187123680E+01 -0.73040981641E+01  0.70369419824E+02  0.70756397434E+02  0.10566000000E+00 0. -1.
        -13    1    4    4    0    0 -0.10760423039E+00 -0.21261994391E+00  0.57816533881E+01  0.57875267469E+01  0.10566000000E+00 0.  1.
        -14    1    4    4    0    0  0.40857940379E+00 -0.33686268255E+01  0.29284908763E+02  0.29480849124E+02  0.00000000000E+00 0.  1.
<mgrwt>
<rscale>  0 0.72780152E+02</rscale>
<asrwt>0</asrwt>
<pdfrwt beam="1">  1        2 0.16654482E-01 0.72780152E+02</pdfrwt>
<pdfrwt beam="2">  1       -1 0.18819499E-02 0.72780152E+02</pdfrwt>
<totfact> 0.23309064E+05</totfact>
</mgrwt>
</event>
<event>
 8    1  0.1627221E-013  0.7999092E+02  0.7818608E-02  0.1329077E+00
         -1   -1    0    0    0  501 -0.00000000000E+00  0.00000000000E+00  0.90701492439E+01  0.90701506442E+01  0.50400000000E-02 0.  1.
          2   -1    0    0  501    0  0.00000000000E+00 -0.00000000000E+00 -0.17636278370E+03  0.17636278371E+03  0.25500000000E-02 0. -1.
         24    2    1    2    0    0  0.00000000000E+00 -0.44408920985E-15 -0.16729263445E+03  0.18543293436E+03  0.79990922003E+02 0.  0.
         66    2    3    3    0    0 -0.27149984893E+02  0.39569130492E+01 -0.15107935611E+03  0.15356350702E+03  0.20000007465E+01 0.  0.
        -13    1    3    3    0    0  0.27149984893E+02 -0.39569130492E+01 -0.16213278338E+02  0.31869427341E+02  0.10566000000E+00 0.  1.
         13    1    4    4    0    0 -0.18567101232E+02  0.32079309996E+01 -0.10488774958E+03  0.10656678303E+03  0.10566000000E+00 0. -1.
        -13    1    4    4    0    0 -0.50635509358E+01  0.81723125770E+00 -0.26184375216E+02  0.26682205391E+02  0.10566000000E+00 0.  1.
         14    1    4    4    0    0 -0.35193327255E+01 -0.68249208073E-01 -0.20007231314E+02  0.20314518593E+02  0.00000000000E+00 0. -1.
<mgrwt>
<rscale>  0 0.79990922E+02</rscale>
<asrwt>0</asrwt>
<pdfrwt beam="1">  1        2 0.27132733E-01 0.79990922E+02</pdfrwt>
<pdfrwt beam="2">  1       -1 0.13954078E-02 0.79990922E+02</pdfrwt>
<totfact> 0.21134222E+05</totfact>
</mgrwt>
</event>
<event>
 8    1  0.1627221E-013  0.7957485E+02  0.7818608E-02  0.1330262E+00
          2   -1    0    0  501    0  0.00000000000E+00  0.00000000000E+00  0.11765765936E+02  0.11765766213E+02  0.25500000000E-02 0. -1.
         -1   -1    0    0    0  501 -0.00000000000E+00 -0.00000000000E+00 -0.13454621741E+03  0.13454621751E+03  0.50400000000E-02 0.  1.
         24    2    1    2    0    0 -0.35527136788E-14  0.00000000000E+00 -0.12278045148E+03  0.14631198372E+03  0.79574853537E+02 0.  0.
         66    2    3    3    0    0 -0.28310766479E+02 -0.10561078220E+02 -0.13907217226E+02  0.33323364063E+02  0.20000074195E+01 0.  0.
        -13    1    3    3    0    0  0.28310766479E+02  0.10561078220E+02 -0.10887323425E+03  0.11298861966E+03  0.10566000000E+00 0.  1.
         13    1    4    4    0    0 -0.22141120831E+02 -0.83197448097E+01 -0.10363979026E+02  0.25823838031E+02  0.10566000000E+00 0. -1.
        -13    1    4    4    0    0 -0.18650282371E+01 -0.50962203679E+00 -0.70636457650E+00  0.20611064738E+01  0.10566000000E+00 0.  1.
        -14    1    4    4    0    0 -0.43046174113E+01 -0.17317113731E+01 -0.28368736225E+01  0.54384195579E+01  0.00000000000E+00 0.  1.
<mgrwt>
<rscale>  0 0.79574854E+02</rscale>
<asrwt>0</asrwt>
<pdfrwt beam="1">  1        2 0.18101180E-02 0.79574854E+02</pdfrwt>
<pdfrwt beam="2">  1       -1 0.20699417E-01 0.79574854E+02</pdfrwt>
<totfact> 0.11231882E+05</totfact>
</mgrwt>
</event>
<event>
 8    1  0.1627221E-013  0.8047475E+02  0.7818608E-02  0.1327710E+00
          2   -1    0    0  501    0  0.00000000000E+00  0.00000000000E+00  0.16227908100E+03  0.16227908102E+03  0.25500000000E-02 0. -1.
         -1   -1    0    0    0  501 -0.00000000000E+00 -0.00000000000E+00 -0.99769251684E+01  0.99769264414E+01  0.50400000000E-02 0.  1.
         24    2    1    2    0    0  0.00000000000E+00  0.00000000000E+00  0.15230215583E+03  0.17225600746E+03  0.80474750299E+02 0.  0.
         66    2    3    3    0    0 -0.28835414871E+02  0.17475203468E+02  0.12310260346E+03  0.12765232029E+03  0.20000020975E+01 0.  0.
        -13    1    3    3    0    0  0.28835414871E+02 -0.17475203468E+02  0.29199552372E+02  0.44603687177E+02  0.10566000000E+00 0.  1.
         13    1    4    4    0    0 -0.15980523567E+02  0.98445207340E+01  0.68850009150E+02  0.71362641809E+02  0.10566000000E+00 0. -1.
        -13    1    4    4    0    0 -0.10624627898E+02  0.60445058243E+01  0.42533879759E+02  0.44255630828E+02  0.10566000000E+00 0.  1.
         14    1    4    4    0    0 -0.22302634057E+01  0.15861769099E+01  0.11718714553E+02  0.12034047650E+02  0.00000000000E+00 0. -1.
<mgrwt>
<rscale>  0 0.80474750E+02</rscale>
<asrwt>0</asrwt>
<pdfrwt beam="1">  1        2 0.24966015E-01 0.80474750E+02</pdfrwt>
<pdfrwt beam="2">  1       -1 0.15349115E-02 0.80474750E+02</pdfrwt>
<totfact> 0.20230504E+05</totfact>
</mgrwt>
</event>
<event>
 8    1  0.1627221E-013  0.8120176E+02  0.7818608E-02  0.1325675E+00
         -1   -1    0    0    0  501 -0.00000000000E+00  0.00000000000E+00  0.35895511968E+02  0.35895512322E+02  0.50400000000E-02 0.  1.
          2   -1    0    0  501    0  0.00000000000E+00 -0.00000000000E+00 -0.45923051280E+02  0.45923051350E+02  0.25500000000E-02 0. -1.
         24    2    1    2    0    0  0.00000000000E+00  0.00000000000E+00 -0.10027539311E+02  0.81818563673E+02  0.81201759937E+02 0.  0.
         66    2    3    3    0    0 -0.14037862643E+02 -0.34467754808E+02 -0.21305574126E+02  0.42930352832E+02  0.19999990915E+01 0.  0.
        -13    1    3    3    0    0  0.14037862643E+02  0.34467754808E+02  0.11278034815E+02  0.38888210841E+02  0.10566000000E+00 0.  1.
         13    1    4    4    0    0 -0.35190910974E+01 -0.88086253371E+01 -0.47770800065E+01  0.10621089394E+02  0.10566000000E+00 0. -1.
        -13    1    4    4    0    0 -0.10292100578E+01 -0.21269785207E+01 -0.10552111711E+01  0.25899701971E+01  0.10566000000E+00 0.  1.
         14    1    4    4    0    0 -0.94895614873E+01 -0.23532150950E+02 -0.15473282949E+02  0.29719293241E+02  0.00000000000E+00 0. -1.
<mgrwt>
<rscale>  0 0.81201760E+02</rscale>
<asrwt>0</asrwt>
<pdfrwt beam="1">  1        2 0.70650848E-02 0.81201760E+02</pdfrwt>
<pdfrwt beam="2">  1       -1 0.55223865E-02 0.81201760E+02</pdfrwt>
<totfact> 0.14082477E+05</totfact>
</mgrwt>
</event>
<event>
 8    1  0.1627221E-013  0.7958891E+02  0.7818608E-02  0.1330222E+00
          2   -1    0    0  501    0  0.00000000000E+00  0.00000000000E+00  0.19599349287E+03  0.19599349289E+03  0.25500000000E-02 0. -1.
         -1   -1    0    0    0  501 -0.00000000000E+00 -0.00000000000E+00 -0.80798517852E+01  0.80798533572E+01  0.50400000000E-02 0.  1.
         24    2    1    2    0    0  0.17763568394E-14  0.71054273576E-14  0.18791364109E+03  0.20407334625E+03  0.79588907151E+02 0.  0.
         66    2    3    3    0    0  0.13018679420E+02  0.35657667015E+02  0.12442383012E+03  0.13010090211E+03  0.19999993011E+01 0.  0.
        -13    1    3    3    0    0 -0.13018679420E+02 -0.35657667015E+02  0.63489810966E+02  0.73972444136E+02  0.10566000000E+00 0.  1.
         13    1    4    4    0    0  0.11080953720E+02  0.29971693014E+02  0.10570615557E+03  0.11043048677E+03  0.10566000000E+00 0. -1.
        -13    1    4    4    0    0  0.34226078933E+00  0.50209673721E+00  0.22158756588E+01  0.23001114218E+01  0.10566000000E+00 0.  1.
         14    1    4    4    0    0  0.15954649108E+01  0.51838772645E+01  0.16501798889E+02  0.17370303922E+02  0.00000000000E+00 0. -1.
<mgrwt>
<rscale>  0 0.79588907E+02</rscale>
<asrwt>0</asrwt>
<pdfrwt beam="1">  1        2 0.30152844E-01 0.79588907E+02</pdfrwt>
<pdfrwt beam="2">  1       -1 0.12430543E-02 0.79588907E+02</pdfrwt>
<totfact> 0.22204223E+05</totfact>
</mgrwt>
</event>
<event>
 8    1  0.1627221E-013  0.7985091E+02  0.7818608E-02  0.1329475E+00
         -1   -1    0    0    0  501 -0.00000000000E+00  0.00000000000E+00  0.31829938234E+03  0.31829938238E+03  0.50400000000E-02 0.  1.
          2   -1    0    0  501    0  0.00000000000E+00 -0.00000000000E+00 -0.50079951703E+01  0.50079958195E+01  0.25500000000E-02 0. -1.
         24    2    1    2    0    0  0.44408920985E-15  0.00000000000E+00  0.31329138717E+03  0.32330737820E+03  0.79850908095E+02 0.  0.
         66    2    3    3    0    0  0.16420513950E+01 -0.38253872228E+02  0.11129830777E+03  0.11771732405E+03  0.19999992964E+01 0.  0.
        -13    1    3    3    0    0 -0.16420513950E+01  0.38253872228E+02  0.20199307941E+03  0.20559005415E+03  0.10566000000E+00 0.  1.
         13    1    4    4    0    0 -0.41055380760E-01 -0.31824477957E+01  0.89070799483E+01  0.94592228411E+01  0.10566000000E+00 0. -1.
        -13    1    4    4    0    0 -0.34905106811E+00 -0.72251577181E+01  0.21018674973E+02  0.22228823683E+02  0.10566000000E+00 0.  1.
         14    1    4    4    0    0  0.20321578439E+01 -0.27846266715E+02  0.81372552844E+02  0.86029277527E+02  0.00000000000E+00 0. -1.
<mgrwt>
<rscale>  0 0.79850908E+02</rscale>
<asrwt>0</asrwt>
<pdfrwt beam="1">  1        2 0.77046080E-03 0.79850908E+02</pdfrwt>
<pdfrwt beam="2">  1       -1 0.48969139E-01 0.79850908E+02</pdfrwt>
<totfact> 0.84739580E+04</totfact>
</mgrwt>
</event>
<event>
 8    1  0.1627221E-013  0.7989482E+02  0.7818608E-02  0.1329350E+00
         -1   -1    0    0    0  501 -0.00000000000E+00  0.00000000000E+00  0.12771810883E+01  0.12771910326E+01  0.50400000000E-02 0.  1.
          2   -1    0    0  501    0  0.00000000000E+00 -0.00000000000E+00 -0.12494621048E+04  0.12494621048E+04  0.25500000000E-02 0. -1.
         24    2    1    2    0    0  0.00000000000E+00  0.17763568394E-14 -0.12481849237E+04  0.12507392958E+04  0.79894820641E+02 0.  0.
         66    2    3    3    0    0  0.19604635546E+02 -0.13016776813E+02 -0.11293383495E+04  0.11295852717E+04  0.20000082970E+01 0.  0.
        -13    1    3    3    0    0 -0.19604635546E+02  0.13016776813E+02 -0.11884657418E+03  0.12115402416E+03  0.10566000000E+00 0.  1.
         13    1    4    4    0    0  0.13724337919E+02 -0.94894138717E+01 -0.76651603470E+03  0.76669762556E+03  0.10566000000E+00 0. -1.
        -13    1    4    4    0    0  0.57527090072E+01 -0.35066982511E+01 -0.35136081317E+03  0.35142541568E+03  0.10566000000E+00 0.  1.
         14    1    4    4    0    0  0.12758862032E+00 -0.20664689925E-01 -0.11461501680E+02  0.11462230439E+02  0.00000000000E+00 0. -1.
<mgrwt>
<rscale>  0 0.79894821E+02</rscale>
<asrwt>0</asrwt>
<pdfrwt beam="1">  1        2 0.19222396E+00 0.79894821E+02</pdfrwt>
<pdfrwt beam="2">  1       -1 0.19649116E-03 0.79894821E+02</pdfrwt>
<totfact> 0.34973282E+05</totfact>
</mgrwt>
</event>
<event>
 8    1  0.1627221E-013  0.7614313E+02  0.7818608E-02  0.1340367E+00
         -1   -1    0    0    0  501 -0.00000000000E+00  0.00000000000E+00  0.40497223603E+02  0.40497223916E+02  0.50400000000E-02 0.  1.
          2   -1    0    0  501    0  0.00000000000E+00 -0.00000000000E+00 -0.35791199989E+02  0.35791200080E+02  0.25500000000E-02 0. -1.
         24    2    1    2    0    0  0.00000000000E+00 -0.55511151231E-16  0.47060236135E+01  0.76288423997E+02  0.76143134803E+02 0.  0.
         66    2    3    3    0    0  0.23635199285E+02 -0.17442446861E+00 -0.27514773571E+02  0.36327893415E+02  0.20000015494E+01 0.  0.
        -13    1    3    3    0    0 -0.23635199285E+02  0.17442446861E+00  0.32220797184E+02  0.39960530581E+02  0.10566000000E+00 0.  1.
         13    1    4    4    0    0  0.23371769362E+01 -0.20955005749E+00 -0.26199898192E+01  0.35187807470E+01  0.10566000000E+00 0. -1.
        -13    1    4    4    0    0  0.29215075333E+01  0.58408742687E+00 -0.32480128814E+01  0.44087544843E+01  0.10566000000E+00 0.  1.
         14    1    4    4    0    0  0.18376514816E+02 -0.54896183799E+00 -0.21646770870E+02  0.28400358184E+02  0.00000000000E+00 0. -1.
<mgrwt>
<rscale>  0 0.76143135E+02</rscale>
<asrwt>0</asrwt>
<pdfrwt beam="1">  1        2 0.55063385E-02 0.76143135E+02</pdfrwt>
<pdfrwt beam="2">  1       -1 0.62303421E-02 0.76143135E+02</pdfrwt>
<totfact> 0.15978915E+05</totfact>
</mgrwt>
</event>
<event>
 8    1  0.1627221E-013  0.8096238E+02  0.7818608E-02  0.1326342E+00
          2   -1    0    0  501    0  0.00000000000E+00  0.00000000000E+00  0.13064057999E+03  0.13064058001E+03  0.25500000000E-02 0. -1.
         -1   -1    0    0    0  501 -0.00000000000E+00 -0.00000000000E+00 -0.12543778625E+02  0.12543779638E+02  0.50400000000E-02 0.  1.
         24    2    1    2    0    0 -0.35527136788E-14  0.00000000000E+00  0.11809680136E+03  0.14318435965E+03  0.80962376178E+02 0.  0.
         66    2    3    3    0    0 -0.21133609292E+02  0.12186180381E+02  0.11616125790E+03  0.11871213199E+03  0.20000025757E+01 0.  0.
        -13    1    3    3    0    0  0.21133609292E+02 -0.12186180381E+02  0.19355434578E+01  0.24472227657E+02  0.10566000000E+00 0.  1.
         13    1    4    4    0    0 -0.16323500576E+02  0.99794817342E+01  0.90344168276E+02  0.92347856674E+02  0.10566000000E+00 0. -1.
        -13    1    4    4    0    0 -0.26431470376E+01  0.86708496379E+00  0.12590366670E+02  0.12894439093E+02  0.10566000000E+00 0.  1.
         14    1    4    4    0    0 -0.21669616788E+01  0.13396136831E+01  0.13226722957E+02  0.13469836225E+02  0.00000000000E+00 0. -1.
<mgrwt>
<rscale>  0 0.80962376E+02</rscale>
<asrwt>0</asrwt>
<pdfrwt beam="1">  1        2 0.20098551E-01 0.80962376E+02</pdfrwt>
<pdfrwt beam="2">  1       -1 0.19298122E-02 0.80962376E+02</pdfrwt>
<totfact> 0.18574546E+05</totfact>
</mgrwt>
</event>
<event>
 8    1  0.1627221E-013  0.7967903E+02  0.7818608E-02  0.1329965E+00
         -1   -1    0    0    0  501 -0.00000000000E+00  0.00000000000E+00  0.27053414292E+01  0.27053461239E+01  0.50400000000E-02 0.  1.
          2   -1    0    0  501    0  0.00000000000E+00 -0.00000000000E+00 -0.58668586155E+03  0.58668586156E+03  0.25500000000E-02 0. -1.
         24    2    1    2    0    0  0.35527136788E-14  0.00000000000E+00 -0.58398052012E+03  0.58939120768E+03  0.79679029922E+02 0.  0.
         66    2    3    3    0    0  0.20168648227E+02  0.16801182624E+02 -0.51360786977E+03  0.51428211908E+03  0.20000017446E+01 0.  0.
        -13    1    3    3    0    0 -0.20168648227E+02 -0.16801182624E+02 -0.70372650355E+02  0.75109088604E+02  0.10566000000E+00 0.  1.
         13    1    4    4    0    0  0.76116512709E+00  0.78573620554E+00 -0.22296075907E+02  0.22323147596E+02  0.10566000000E+00 0. -1.
        -13    1    4    4    0    0  0.42737665627E+01  0.45168321729E+01 -0.12219577049E+03  0.12235393064E+03  0.10566000000E+00 0.  1.
        -14    1    4    4    0    0  0.15133716537E+02  0.11498614245E+02 -0.36911602337E+03  0.36960504084E+03  0.00000000000E+00 0.  1.
<mgrwt>
<rscale>  0 0.79679030E+02</rscale>
<asrwt>0</asrwt>
<pdfrwt beam="1">  1        2 0.90259263E-01 0.79679030E+02</pdfrwt>
<pdfrwt beam="2">  1       -1 0.41620720E-03 0.79679030E+02</pdfrwt>
<totfact> 0.32297181E+05</totfact>
</mgrwt>
</event>
<event>
 8    1  0.1627221E-013  0.8693208E+02  0.7818608E-02  0.1310456E+00
         -1   -1    0    0    0  501 -0.00000000000E+00  0.00000000000E+00  0.32632310479E+01  0.32632349400E+01  0.50400000000E-02 0.  1.
          2   -1    0    0  501    0  0.00000000000E+00 -0.00000000000E+00 -0.57896465150E+03  0.57896465150E+03  0.25500000000E-02 0. -1.
         24    2    1    2    0    0  0.00000000000E+00  0.00000000000E+00 -0.57570142045E+03  0.58222788644E+03  0.86932078339E+02 0.  0.
         66    2    3    3    0    0  0.43297804049E+01  0.39947176498E+02 -0.39861644779E+03  0.40064148107E+03  0.20000002669E+01 0.  0.
        -13    1    3    3    0    0 -0.43297804049E+01 -0.39947176498E+02 -0.17708497266E+03  0.18158640537E+03  0.10566000000E+00 0.  1.
         13    1    4    4    0    0  0.57510106950E+00  0.48571735457E+01 -0.45320433033E+02  0.45583721770E+02  0.10566000000E+00 0.  1.
        -13    1    4    4    0    0  0.35049729758E+01  0.27185248861E+02 -0.27119895860E+03  0.27258064660E+03  0.10566000000E+00 0. -1.
        -14    1    4    4    0    0  0.24970635967E+00  0.79047540905E+01 -0.82097056159E+02  0.82477112707E+02  0.00000000000E+00 0.  1.
<mgrwt>
<rscale>  0 0.86932078E+02</rscale>
<asrwt>0</asrwt>
<pdfrwt beam="1">  1        2 0.89071403E-01 0.86932078E+02</pdfrwt>
<pdfrwt beam="2">  1       -1 0.50203631E-03 0.86932078E+02</pdfrwt>
<totfact> 0.25624370E+05</totfact>
</mgrwt>
</event>
<event>
 8    1  0.1627221E-013  0.8034752E+02  0.7818608E-02  0.1328068E+00
         -1   -1    0    0    0  501 -0.00000000000E+00  0.00000000000E+00  0.10142508719E+02  0.10142509971E+02  0.50400000000E-02 0.  1.
          2   -1    0    0  501    0  0.00000000000E+00 -0.00000000000E+00 -0.15912541235E+03  0.15912541237E+03  0.25500000000E-02 0. -1.
         24    2    1    2    0    0  0.35527136788E-14  0.35527136788E-14 -0.14898290364E+03  0.16926792235E+03  0.80347519933E+02 0.  0.
         66    2    3    3    0    0  0.25174306885E+02 -0.21709743350E+02 -0.12196706514E+03  0.12643189338E+03  0.20000007571E+01 0.  0.
        -13    1    3    3    0    0 -0.25174306885E+02  0.21709743350E+02 -0.27015838501E+02  0.42836028964E+02  0.10566000000E+00 0.  1.
         13    1    4    4    0    0  0.58795741069E+01 -0.50832279364E+01 -0.26949773269E+02  0.28048351845E+02  0.10566000000E+00 0. -1.
        -13    1    4    4    0    0  0.32867473319E+01 -0.36048340204E+01 -0.18433169837E+02  0.19068047897E+02  0.10566000000E+00 0.  1.
         14    1    4    4    0    0  0.16007985446E+02 -0.13021681393E+02 -0.76584122029E+02  0.79315493640E+02  0.00000000000E+00 0. -1.
<mgrwt>
<rscale>  0 0.80347520E+02</rscale>
<asrwt>0</asrwt>
<pdfrwt beam="1">  1        2 0.24480831E-01 0.80347520E+02</pdfrwt>
<pdfrwt beam="2">  1       -1 0.15603862E-02 0.80347520E+02</pdfrwt>
<totfact> 0.20184861E+05</totfact>
</mgrwt>
</event>
<event>
 8    1  0.1627221E-013  0.8019824E+02  0.7818608E-02  0.1328490E+00
          2   -1    0    0  501    0  0.00000000000E+00  0.00000000000E+00  0.12440041836E+03  0.12440041839E+03  0.25500000000E-02 0. -1.
         -1   -1    0    0    0  501 -0.00000000000E+00 -0.00000000000E+00 -0.12925513734E+02  0.12925514717E+02  0.50400000000E-02 0.  1.
         24    2    1    2    0    0  0.35527136788E-14  0.35527136788E-14  0.11147490463E+03  0.13732593310E+03  0.80198239017E+02 0.  0.
         66    2    3    3    0    0  0.22915101516E+02  0.30044419197E+02  0.32916061122E+02  0.50152129360E+02  0.19999992952E+01 0.  0.
        -13    1    3    3    0    0 -0.22915101516E+02 -0.30044419197E+02  0.78558843504E+02  0.87173803743E+02  0.10566000000E+00 0.  1.
         13    1    4    4    0    0  0.19836239954E+02  0.25478976768E+02  0.27341645715E+02  0.42311126516E+02  0.10566000000E+00 0. -1.
        -13    1    4    4    0    0  0.14985201796E+01  0.20475735813E+01  0.26735009320E+01  0.36873963129E+01  0.10566000000E+00 0.  1.
         14    1    4    4    0    0  0.15803413822E+01  0.25178688485E+01  0.29009144753E+01  0.41536065311E+01  0.00000000000E+00 0. -1.
<mgrwt>
<rscale>  0 0.80198239E+02</rscale>
<asrwt>0</asrwt>
<pdfrwt beam="1">  1        2 0.19138526E-01 0.80198239E+02</pdfrwt>
<pdfrwt beam="2">  1       -1 0.19885407E-02 0.80198239E+02</pdfrwt>
<totfact> 0.18766311E+05</totfact>
</mgrwt>
</event>
<event>
 8    1  0.1627221E-013  0.7886694E+02  0.7818608E-02  0.1332298E+00
         -1   -1    0    0    0  501 -0.00000000000E+00  0.00000000000E+00  0.25893394172E+01  0.25893443223E+01  0.50400000000E-02 0.  1.
          2   -1    0    0  501    0  0.00000000000E+00 -0.00000000000E+00 -0.60053809112E+03  0.60053809112E+03  0.25500000000E-02 0. -1.
         24    2    1    2    0    0  0.00000000000E+00  0.00000000000E+00 -0.59794875170E+03  0.60312743545E+03  0.78866936842E+02 0.  0.
         66    2    3    3    0    0  0.18179148264E+02  0.16198625050E+02 -0.53612668442E+03  0.53668305229E+03  0.19999976438E+01 0.  0.
        -13    1    3    3    0    0 -0.18179148264E+02 -0.16198625050E+02 -0.61822067285E+02  0.66444383153E+02  0.10566000000E+00 0.  1.
         13    1    4    4    0    0  0.32496821252E+01  0.22948111394E+01 -0.87592802449E+02  0.87683161423E+02  0.10566000000E+00 0. -1.
        -13    1    4    4    0    0  0.12265132495E+02  0.10773660685E+02 -0.35110091532E+03  0.35148025427E+03  0.10566000000E+00 0.  1.
        -14    1    4    4    0    0  0.26643336442E+01  0.31301532257E+01 -0.97432966644E+02  0.97519636597E+02  0.00000000000E+00 0.  1.
<mgrwt>
<rscale>  0 0.78866937E+02</rscale>
<asrwt>0</asrwt>
<pdfrwt beam="1">  1        2 0.92390365E-01 0.78866937E+02</pdfrwt>
<pdfrwt beam="2">  1       -1 0.39836077E-03 0.78866937E+02</pdfrwt>
<totfact> 0.33387255E+05</totfact>
</mgrwt>
</event>
<event>
 8    1  0.1627221E-013  0.7836993E+02  0.7818608E-02  0.1333742E+00
         -1   -1    0    0    0  501 -0.00000000000E+00  0.00000000000E+00  0.24774098862E+02  0.24774099375E+02  0.50400000000E-02 0.  1.
          2   -1    0    0  501    0  0.00000000000E+00 -0.00000000000E+00 -0.61978501280E+02  0.61978501333E+02  0.25500000000E-02 0. -1.
         24    2    1    2    0    0 -0.35527136788E-14  0.00000000000E+00 -0.37204402418E+02  0.86752600708E+02  0.78369931544E+02 0.  0.
         66    2    3    3    0    0  0.28313210171E+02  0.10682855370E+02 -0.46126157859E+02  0.55203113339E+02  0.20000035791E+01 0.  0.
        -13    1    3    3    0    0 -0.28313210171E+02 -0.10682855370E+02  0.89217554412E+01  0.31549487369E+02  0.10566000000E+00 0.  1.
         13    1    4    4    0    0  0.70618543112E+01  0.29403157657E+01 -0.11463350631E+02  0.13781684035E+02  0.10566000000E+00 0. -1.
        -13    1    4    4    0    0  0.30744456321E+00  0.28319147784E+00 -0.48704086105E+00  0.65045553923E+00  0.10566000000E+00 0.  1.
        -14    1    4    4    0    0  0.20943911297E+02  0.74593481268E+01 -0.34175766368E+02  0.40770973764E+02  0.00000000000E+00 0.  1.
<mgrwt>
<rscale>  0 0.78369932E+02</rscale>
<asrwt>0</asrwt>
<pdfrwt beam="1">  1        2 0.95351540E-02 0.78369932E+02</pdfrwt>
<pdfrwt beam="2">  1       -1 0.38113999E-02 0.78369932E+02</pdfrwt>
<totfact> 0.16585131E+05</totfact>
</mgrwt>
</event>
<event>
 8    1  0.1627221E-013  0.8110301E+02  0.7818608E-02  0.1325950E+00
          2   -1    0    0  501    0  0.00000000000E+00  0.00000000000E+00  0.28095584413E+02  0.28095584529E+02  0.25500000000E-02 0. -1.
         -1   -1    0    0    0  501 -0.00000000000E+00 -0.00000000000E+00 -0.58529648509E+02  0.58529648726E+02  0.50400000000E-02 0.  1.
         24    2    1    2    0    0  0.00000000000E+00  0.00000000000E+00 -0.30434064095E+02  0.86625233254E+02  0.81103013378E+02 0.  0.
         66    2    3    3    0    0  0.31357352386E+02  0.37762504648E+01  0.11897229837E+02  0.33809580023E+02  0.20000018223E+01 0.  0.
        -13    1    3    3    0    0 -0.31357352386E+02 -0.37762504648E+01 -0.42331293932E+02  0.52815653231E+02  0.10566000000E+00 0.  1.
         13    1    4    4    0    0  0.45313292938E+01  0.77660566306E+00  0.17669396758E+01  0.49263882691E+01  0.10566000000E+00 0. -1.
        -13    1    4    4    0    0  0.22639390535E+02  0.18986298798E+01  0.84586726125E+01  0.24242671173E+02  0.10566000000E+00 0.  1.
        -14    1    4    4    0    0  0.41866325575E+01  0.11010149219E+01  0.16716175486E+01  0.46405205805E+01  0.00000000000E+00 0.  1.
<mgrwt>
<rscale>  0 0.81103013E+02</rscale>
<asrwt>0</asrwt>
<pdfrwt beam="1">  1        2 0.43223976E-02 0.81103013E+02</pdfrwt>
<pdfrwt beam="2">  1       -1 0.90045614E-02 0.81103013E+02</pdfrwt>
<totfact> 0.12779975E+05</totfact>
</mgrwt>
</event>
<event>
 8    1  0.1627221E-013  0.8264515E+02  0.7818608E-02  0.1321708E+00
         -1   -1    0    0    0  501 -0.00000000000E+00  0.00000000000E+00  0.38406770340E+02  0.38406770671E+02  0.50400000000E-02 0.  1.
          2   -1    0    0  501    0  0.00000000000E+00 -0.00000000000E+00 -0.44459748126E+02  0.44459748199E+02  0.25500000000E-02 0. -1.
         24    2    1    2    0    0 -0.35527136788E-14  0.00000000000E+00 -0.60529777858E+01  0.82866518870E+02  0.82645153575E+02 0.  0.
         66    2    3    3    0    0 -0.18375969879E+02 -0.20084238833E+02 -0.34167799907E+02  0.43732041674E+02  0.19999999996E+01 0.  0.
        -13    1    3    3    0    0  0.18375969879E+02  0.20084238833E+02  0.28114822121E+02  0.39134477196E+02  0.10566000000E+00 0.  1.
         13    1    4    4    0    0 -0.10053319641E+02 -0.10556823639E+02 -0.19708984986E+02  0.24514710162E+02  0.10566000000E+00 0. -1.
        -13    1    4    4    0    0 -0.33690627986E+01 -0.36897074382E+01 -0.59808799519E+01  0.77940114290E+01  0.10566000000E+00 0.  1.
        -14    1    4    4    0    0 -0.49535874389E+01 -0.58377077564E+01 -0.84779349691E+01  0.11423320082E+02  0.00000000000E+00 0.  1.
<mgrwt>
<rscale>  0 0.82645154E+02</rscale>
<asrwt>0</asrwt>
<pdfrwt beam="1">  1        2 0.68399612E-02 0.82645154E+02</pdfrwt>
<pdfrwt beam="2">  1       -1 0.59087340E-02 0.82645154E+02</pdfrwt>
<totfact> 0.13321338E+05</totfact>
</mgrwt>
</event>
<event>
 8    1  0.1627221E-013  0.7964553E+02  0.7818608E-02  0.1330060E+00
          2   -1    0    0  501    0  0.00000000000E+00  0.00000000000E+00  0.35703184518E+03  0.35703184519E+03  0.25500000000E-02 0. -1.
         -1   -1    0    0    0  501 -0.00000000000E+00 -0.00000000000E+00 -0.44417668631E+01  0.44417697225E+01  0.50400000000E-02 0.  1.
         24    2    1    2    0    0  0.00000000000E+00  0.00000000000E+00  0.35259007832E+03  0.36147361492E+03  0.79645533145E+02 0.  0.
         66    2    3    3    0    0 -0.15983847595E+02  0.12663042868E+02  0.33151553384E+03  0.33214813747E+03  0.20000011895E+01 0.  0.
        -13    1    3    3    0    0  0.15983847595E+02 -0.12663042868E+02  0.21074544477E+02  0.29325477448E+02  0.10566000000E+00 0.  1.
         13    1    4    4    0    0 -0.16975098438E+01  0.15733454965E+01  0.30025070376E+02  0.30114331652E+02  0.10566000000E+00 0.  1.
        -13    1    4    4    0    0 -0.37916618289E+01  0.24730427328E+01  0.77155611048E+02  0.77288369888E+02  0.10566000000E+00 0. -1.
         14    1    4    4    0    0 -0.10494675922E+02  0.86166546388E+01  0.22433485242E+03  0.22474543593E+03  0.00000000000E+00 0. -1.
<mgrwt>
<rscale>  0 0.79645533E+02</rscale>
<asrwt>0</asrwt>
<pdfrwt beam="1">  1        2 0.54927986E-01 0.79645533E+02</pdfrwt>
<pdfrwt beam="2">  1       -1 0.68334885E-03 0.79645533E+02</pdfrwt>
<totfact> 0.27458436E+05</totfact>
</mgrwt>
</event>
<event>
 8    1  0.1627221E-013  0.7723605E+02  0.7818608E-02  0.1337083E+00
         -1   -1    0    0    0  501 -0.00000000000E+00  0.00000000000E+00  0.33807707113E+03  0.33807707117E+03  0.50400000000E-02 0.  1.
          2   -1    0    0  501    0  0.00000000000E+00 -0.00000000000E+00 -0.44112773735E+01  0.44112781106E+01  0.25500000000E-02 0. -1.
         24    2    1    2    0    0  0.00000000000E+00  0.00000000000E+00  0.33366579376E+03  0.34248834928E+03  0.77236050314E+02 0.  0.
         66    2    3    3    0    0  0.36911554886E+02  0.63887517307E+01  0.12580614674E+03  0.13128010357E+03  0.20000008300E+01 0.  0.
        -13    1    3    3    0    0 -0.36911554886E+02 -0.63887517307E+01  0.20785964702E+03  0.21120824571E+03  0.10566000000E+00 0.  1.
         13    1    4    4    0    0  0.19955738096E+02  0.33093166945E+01  0.69094516441E+02  0.71994766659E+02  0.10566000000E+00 0. -1.
        -13    1    4    4    0    0  0.16188273423E+02  0.27353428728E+01  0.54494733599E+02  0.56914228898E+02  0.10566000000E+00 0.  1.
        -14    1    4    4    0    0  0.76754336716E+00  0.34409216345E+00  0.22168967002E+01  0.23711080146E+01  0.00000000000E+00 0.  1.
<mgrwt>
<rscale>  0 0.77236050E+02</rscale>
<asrwt>0</asrwt>
<pdfrwt beam="1">  1        2 0.67865788E-03 0.77236050E+02</pdfrwt>
<pdfrwt beam="2">  1       -1 0.52011875E-01 0.77236050E+02</pdfrwt>
<totfact> 0.89907355E+04</totfact>
</mgrwt>
</event>
<event>
 8    1  0.1627221E-013  0.8009123E+02  0.7818608E-02  0.1328793E+00
         -1   -1    0    0    0  501 -0.00000000000E+00  0.00000000000E+00  0.52299517888E+01  0.52299542173E+01  0.50400000000E-02 0.  1.
          2   -1    0    0  501    0  0.00000000000E+00 -0.00000000000E+00 -0.30662821009E+03  0.30662821010E+03  0.25500000000E-02 0. -1.
         24    2    1    2    0    0  0.35527136788E-14  0.00000000000E+00 -0.30139825831E+03  0.31185816432E+03  0.80091226391E+02 0.  0.
         66    2    3    3    0    0 -0.22822561189E+02 -0.16930899197E+02 -0.26052038345E+03  0.26207326236E+03  0.20000008089E+01 0.  0.
        -13    1    3    3    0    0  0.22822561189E+02  0.16930899197E+02 -0.40877874855E+02  0.49784901964E+02  0.10566000000E+00 0.  1.
         13    1    4    4    0    0 -0.18140704118E+02 -0.13116040996E+02 -0.20416641762E+03  0.20539000201E+03  0.10566000000E+00 0. -1.
        -13    1    4    4    0    0 -0.35045494059E+01 -0.27312273473E+01 -0.37785822073E+02  0.38046300518E+02  0.10566000000E+00 0.  1.
         14    1    4    4    0    0 -0.11773076645E+01 -0.10836308533E+01 -0.18568143755E+02  0.18636959829E+02  0.00000000000E+00 0. -1.
<mgrwt>
<rscale>  0 0.80091226E+02</rscale>
<asrwt>0</asrwt>
<pdfrwt beam="1">  1        2 0.47173557E-01 0.80091226E+02</pdfrwt>
<pdfrwt beam="2">  1       -1 0.80460840E-03 0.80091226E+02</pdfrwt>
<totfact> 0.25620264E+05</totfact>
</mgrwt>
</event>
<event>
 8    1  0.1627221E-013  0.7896556E+02  0.7818608E-02  0.1332013E+00
         -1   -1    0    0    0  501 -0.00000000000E+00  0.00000000000E+00  0.39870656925E+01  0.39870688780E+01  0.50400000000E-02 0.  1.
          2   -1    0    0  501    0  0.00000000000E+00 -0.00000000000E+00 -0.39098657809E+03  0.39098657810E+03  0.25500000000E-02 0. -1.
         24    2    1    2    0    0 -0.35527136788E-14 -0.35527136788E-14 -0.38699951240E+03  0.39497364698E+03  0.78965557112E+02 0.  0.
         66    2    3    3    0    0 -0.30296611157E+02  0.22462577225E+02 -0.25161754047E+03  0.25443631560E+03  0.20000002857E+01 0.  0.
        -13    1    3    3    0    0  0.30296611157E+02 -0.22462577225E+02 -0.13538197193E+03  0.14053733138E+03  0.10566000000E+00 0.  1.
         13    1    4    4    0    0 -0.10081037575E+01  0.76115324352E+00 -0.80742875011E+01  0.81731823749E+01  0.10566000000E+00 0.  1.
        -13    1    4    4    0    0 -0.14589262389E+02  0.11470930868E+02 -0.11882805533E+03  0.12026864400E+03  0.10566000000E+00 0.  1.
         14    1    4    4    0    0 -0.14699245011E+02  0.10230493113E+02 -0.12471519764E+03  0.12599448922E+03  0.00000000000E+00 0. -1.
<mgrwt>
<rscale>  0 0.78965557E+02</rscale>
<asrwt>0</asrwt>
<pdfrwt beam="1">  1        2 0.60151751E-01 0.78965557E+02</pdfrwt>
<pdfrwt beam="2">  1       -1 0.61339528E-03 0.78965557E+02</pdfrwt>
<totfact> 0.28997664E+05</totfact>
</mgrwt>
</event>
<event>
 8    1  0.1627221E-013  0.7768185E+02  0.7818608E-02  0.1335762E+00
          2   -1    0    0  501    0  0.00000000000E+00  0.00000000000E+00  0.13952186977E+03  0.13952186979E+03  0.25500000000E-02 0. -1.
         -1   -1    0    0    0  501 -0.00000000000E+00 -0.00000000000E+00 -0.10812765771E+02  0.10812766945E+02  0.50400000000E-02 0.  1.
         24    2    1    2    0    0 -0.71054273576E-14  0.00000000000E+00  0.12870910400E+03  0.15033463673E+03  0.77681848271E+02 0.  0.
         66    2    3    3    0    0 -0.36282189400E+02 -0.13537728681E+02  0.59296990068E+02  0.70850549715E+02  0.19999995718E+01 0.  0.
        -13    1    3    3    0    0  0.36282189400E+02  0.13537728681E+02  0.69412113928E+02  0.79484087020E+02  0.10566000000E+00 0.  1.
         13    1    4    4    0    0 -0.10151763493E+02 -0.43798121584E+01  0.16773958405E+02  0.20090243930E+02  0.10566000000E+00 0. -1.
        -13    1    4    4    0    0 -0.15145056171E+02 -0.58461673458E+01  0.25639418182E+02  0.30347015138E+02  0.10566000000E+00 0.  1.
         14    1    4    4    0    0 -0.10985369735E+02 -0.33117491765E+01  0.16883613481E+02  0.20413290646E+02  0.00000000000E+00 0. -1.
<mgrwt>
<rscale>  0 0.77681848E+02</rscale>
<asrwt>0</asrwt>
<pdfrwt beam="1">  1        2 0.21464902E-01 0.77681848E+02</pdfrwt>
<pdfrwt beam="2">  1       -1 0.16635026E-02 0.77681848E+02</pdfrwt>
<totfact> 0.21161204E+05</totfact>
</mgrwt>
</event>
<event>
 8    1  0.1627221E-013  0.8045093E+02  0.7818608E-02  0.1327777E+00
         -1   -1    0    0    0  501 -0.00000000000E+00  0.00000000000E+00  0.44012960569E+01  0.44012989426E+01  0.50400000000E-02 0.  1.
          2   -1    0    0  501    0  0.00000000000E+00 -0.00000000000E+00 -0.36763883520E+03  0.36763883521E+03  0.25500000000E-02 0. -1.
         24    2    1    2    0    0  0.35527136788E-14  0.00000000000E+00 -0.36323753914E+03  0.37204013415E+03  0.80450926512E+02 0.  0.
         66    2    3    3    0    0  0.21646401355E+02  0.17701341958E+02 -0.31529435495E+03  0.31653820379E+03  0.19999998411E+01 0.  0.
        -13    1    3    3    0    0 -0.21646401355E+02 -0.17701341958E+02 -0.47943184193E+02  0.55501930357E+02  0.10566000000E+00 0.  1.
         13    1    4    4    0    0  0.59079985081E+01  0.41169837910E+01 -0.82144095531E+02  0.82459187460E+02  0.10566000000E+00 0. -1.
        -13    1    4    4    0    0  0.37010820654E+01  0.25579089331E+01 -0.52898881512E+02  0.53089958898E+02  0.10566000000E+00 0.  1.
        -14    1    4    4    0    0  0.12037320781E+02  0.11026449234E+02 -0.18025137791E+03  0.18098905744E+03  0.00000000000E+00 0.  1.
<mgrwt>
<rscale>  0 0.80450927E+02</rscale>
<asrwt>0</asrwt>
<pdfrwt beam="1">  1        2 0.56559797E-01 0.80450927E+02</pdfrwt>
<pdfrwt beam="2">  1       -1 0.67712298E-03 0.80450927E+02</pdfrwt>
<totfact> 0.27024740E+05</totfact>
</mgrwt>
</event>
<event>
 8    1  0.1627221E-013  0.8067883E+02  0.7818608E-02  0.1327136E+00
          2   -1    0    0  501    0  0.00000000000E+00  0.00000000000E+00  0.15279107780E+03  0.15279107783E+03  0.25500000000E-02 0. -1.
         -1   -1    0    0    0  501 -0.00000000000E+00 -0.00000000000E+00 -0.10650282632E+02  0.10650283825E+02  0.50400000000E-02 0.  1.
         24    2    1    2    0    0  0.00000000000E+00 -0.44408920985E-15  0.14214079517E+03  0.16344136165E+03  0.80678826504E+02 0.  0.
         66    2    3    3    0    0 -0.19594817823E+02 -0.34008752187E+01  0.14215496057E+03  0.14355331996E+03  0.20000045408E+01 0.  0.
        -13    1    3    3    0    0  0.19594817823E+02  0.34008752187E+01 -0.14165397148E-01  0.19888041695E+02  0.10566000000E+00 0.  1.
         13    1    4    4    0    0 -0.15090149782E+02 -0.25549890244E+01  0.10655720503E+03  0.10765077657E+03  0.10566000000E+00 0. -1.
        -13    1    4    4    0    0 -0.20292845846E+01 -0.66825408197E+00  0.13961128814E+02  0.14124051870E+02  0.10566000000E+00 0.  1.
         14    1    4    4    0    0 -0.24753834562E+01 -0.17763211231E+00  0.21636626729E+02  0.21778491514E+02  0.00000000000E+00 0. -1.
<mgrwt>
<rscale>  0 0.80678827E+02</rscale>
<asrwt>0</asrwt>
<pdfrwt beam="1">  1        2 0.23506319E-01 0.80678827E+02</pdfrwt>
<pdfrwt beam="2">  1       -1 0.16385051E-02 0.80678827E+02</pdfrwt>
<totfact> 0.19702897E+05</totfact>
</mgrwt>
</event>
<event>
 8    1  0.1627221E-013  0.7911371E+02  0.7818608E-02  0.1331586E+00
         -1   -1    0    0    0  501 -0.00000000000E+00  0.00000000000E+00  0.92476458275E+01  0.92476472009E+01  0.50400000000E-02 0.  1.
          2   -1    0    0  501    0  0.00000000000E+00 -0.00000000000E+00 -0.16920466811E+03  0.16920466813E+03  0.25500000000E-02 0. -1.
         24    2    1    2    0    0 -0.17763568394E-14  0.00000000000E+00 -0.15995702228E+03  0.17845231533E+03  0.79113714798E+02 0.  0.
         66    2    3    3    0    0  0.15603230416E+02  0.34840032389E+02 -0.56866390037E+02  0.68520617094E+02  0.19999987002E+01 0.  0.
        -13    1    3    3    0    0 -0.15603230416E+02 -0.34840032389E+02 -0.10309063224E+03  0.10993169823E+03  0.10566000000E+00 0.  1.
         13    1    4    4    0    0  0.10470336609E+02  0.21369124854E+02 -0.35397995533E+02  0.42653214386E+02  0.10566000000E+00 0. -1.
        -13    1    4    4    0    0  0.32747175901E+01  0.78953548601E+01 -0.12387126661E+02  0.15050331379E+02  0.10566000000E+00 0.  1.
         14    1    4    4    0    0  0.18581762165E+01  0.55755526754E+01 -0.90812678440E+01  0.10817071329E+02  0.00000000000E+00 0. -1.
<mgrwt>
<rscale>  0 0.79113715E+02</rscale>
<asrwt>0</asrwt>
<pdfrwt beam="1">  1        2 0.26031485E-01 0.79113715E+02</pdfrwt>
<pdfrwt beam="2">  1       -1 0.14227150E-02 0.79113715E+02</pdfrwt>
<totfact> 0.21459976E+05</totfact>
</mgrwt>
</event>
<event>
 8    1  0.1627221E-013  0.7876199E+02  0.7818608E-02  0.1332602E+00
          2   -1    0    0  501    0  0.00000000000E+00  0.00000000000E+00  0.51645890209E+02  0.51645890272E+02  0.25500000000E-02 0. -1.
         -1   -1    0    0    0  501 -0.00000000000E+00 -0.00000000000E+00 -0.30028774343E+02  0.30028774766E+02  0.50400000000E-02 0.  1.
         24    2    1    2    0    0  0.00000000000E+00 -0.35527136788E-14  0.21617115866E+02  0.81674665038E+02  0.78761990901E+02 0.  0.
         66    2    3    3    0    0  0.15564965792E+02 -0.27138431927E+02  0.35575150606E+02  0.47416811261E+02  0.20000005003E+01 0.  0.
        -13    1    3    3    0    0 -0.15564965792E+02  0.27138431927E+02 -0.13958034739E+02  0.34257853777E+02  0.10566000000E+00 0.  1.
         13    1    4    4    0    0  0.12450812276E+02 -0.22370198108E+02  0.29102553641E+02  0.38761040778E+02  0.10566000000E+00 0. -1.
        -13    1    4    4    0    0  0.31417443677E+01 -0.47625502689E+01  0.63832890428E+01  0.85621250735E+01  0.10566000000E+00 0.  1.
         14    1    4    4    0    0 -0.27590851829E-01 -0.56835501805E-02  0.89307922111E-01  0.93645409920E-01  0.00000000000E+00 0. -1.
<mgrwt>
<rscale>  0 0.78761991E+02</rscale>
<asrwt>0</asrwt>
<pdfrwt beam="1">  1        2 0.79455215E-02 0.78761991E+02</pdfrwt>
<pdfrwt beam="2">  1       -1 0.46198115E-02 0.78761991E+02</pdfrwt>
<totfact> 0.15704542E+05</totfact>
</mgrwt>
</event>
<event>
 8    1  0.1627221E-013  0.7995971E+02  0.7818608E-02  0.1329166E+00
          2   -1    0    0  501    0  0.00000000000E+00  0.00000000000E+00  0.11012334085E+03  0.11012334088E+03  0.25500000000E-02 0. -1.
         -1   -1    0    0    0  501 -0.00000000000E+00 -0.00000000000E+00 -0.14514531859E+02  0.14514532734E+02  0.50400000000E-02 0.  1.
         24    2    1    2    0    0  0.17763568394E-14  0.88817841970E-15  0.95608808990E+02  0.12463787361E+03  0.79959709744E+02 0.  0.
         66    2    3    3    0    0 -0.95926805204E+01  0.66924869746E+01  0.10738563501E+03  0.10803926835E+03  0.19999997100E+01 0.  0.
        -13    1    3    3    0    0  0.95926805204E+01 -0.66924869746E+01 -0.11776826018E+02  0.16598605260E+02  0.10566000000E+00 0.  1.
         13    1    4    4    0    0 -0.71085409286E+01  0.47319558543E+01  0.77086821245E+02  0.77558442056E+02  0.10566000000E+00 0. -1.
        -13    1    4    4    0    0 -0.11226040307E+01  0.15052087290E+01  0.18323150487E+02  0.18419416412E+02  0.10566000000E+00 0.  1.
        -14    1    4    4    0    0 -0.13615355611E+01  0.45532239127E+00  0.11975663275E+02  0.12061409886E+02  0.00000000000E+00 0.  1.
<mgrwt>
<rscale>  0 0.79959710E+02</rscale>
<asrwt>0</asrwt>
<pdfrwt beam="1">  1        2 0.16942052E-01 0.79959710E+02</pdfrwt>
<pdfrwt beam="2">  1       -1 0.22330050E-02 0.79959710E+02</pdfrwt>
<totfact> 0.18244242E+05</totfact>
</mgrwt>
</event>
<event>
 8    1  0.1627221E-013  0.8090542E+02  0.7818608E-02  0.1326501E+00
          2   -1    0    0  501    0  0.00000000000E+00  0.00000000000E+00  0.60142568832E+03  0.60142568832E+03  0.25500000000E-02 0. -1.
         -1   -1    0    0    0  501 -0.00000000000E+00 -0.00000000000E+00 -0.27209022800E+01  0.27209069478E+01  0.50400000000E-02 0.  1.
         24    2    1    2    0    0  0.00000000000E+00  0.00000000000E+00  0.59870478604E+03  0.60414659527E+03  0.80905424744E+02 0.  0.
         66    2    3    3    0    0 -0.21448752077E+02 -0.14164055089E+02  0.53255195876E+03  0.53317563542E+03  0.19999992231E+01 0.  0.
        -13    1    3    3    0    0  0.21448752077E+02  0.14164055089E+02  0.66152827274E+02  0.70970959854E+02  0.10566000000E+00 0.  1.
         13    1    4    4    0    0 -0.10516619696E+01 -0.67140480381E+00  0.20344896183E+02  0.20383393781E+02  0.10566000000E+00 0. -1.
        -13    1    4    4    0    0 -0.44523806852E+00 -0.36856145643E+00  0.93775616559E+01  0.93959513159E+01  0.10566000000E+00 0.  1.
         14    1    4    4    0    0 -0.19951852039E+02 -0.13124088829E+02  0.50282950093E+03  0.50339629032E+03  0.00000000000E+00 0. -1.
<mgrwt>
<rscale>  0 0.80905425E+02</rscale>
<asrwt>0</asrwt>
<pdfrwt beam="1">  1        2 0.92527086E-01 0.80905425E+02</pdfrwt>
<pdfrwt beam="2">  1       -1 0.41860045E-03 0.80905425E+02</pdfrwt>
<totfact> 0.31255391E+05</totfact>
</mgrwt>
</event>
<event>
 8    1  0.1627221E-013  0.8071378E+02  0.7818608E-02  0.1327038E+00
          2   -1    0    0  501    0  0.00000000000E+00  0.00000000000E+00  0.38617020145E+03  0.38617020145E+03  0.25500000000E-02 0. -1.
         -1   -1    0    0    0  501 -0.00000000000E+00 -0.00000000000E+00 -0.42175128593E+01  0.42175158707E+01  0.50400000000E-02 0.  1.
         24    2    1    2    0    0  0.00000000000E+00  0.00000000000E+00  0.38195268859E+03  0.39038771733E+03  0.80713775279E+02 0.  0.
         66    2    3    3    0    0  0.38735972225E+02 -0.35374257938E+01  0.24266350763E+03  0.24576933668E+03  0.19999975647E+01 0.  0.
        -13    1    3    3    0    0 -0.38735972225E+02  0.35374257938E+01  0.13928918096E+03  0.14461838065E+03  0.10566000000E+00 0.  1.
         13    1    4    4    0    0  0.27701892666E+02 -0.28341664843E+01  0.17539560595E+03  0.17759239034E+03  0.10566000000E+00 0. -1.
        -13    1    4    4    0    0  0.30323925083E+01 -0.28817204809E-01  0.20836019937E+02  0.21055809783E+02  0.10566000000E+00 0.  1.
         14    1    4    4    0    0  0.80016870510E+01 -0.67444210469E+00  0.46431881743E+02  0.47121136553E+02  0.00000000000E+00 0. -1.
<mgrwt>
<rscale>  0 0.80713775E+02</rscale>
<asrwt>0</asrwt>
<pdfrwt beam="1">  1        2 0.59410815E-01 0.80713775E+02</pdfrwt>
<pdfrwt beam="2">  1       -1 0.64884821E-03 0.80713775E+02</pdfrwt>
<totfact> 0.27266081E+05</totfact>
</mgrwt>
</event>
<event>
 8    1  0.1627221E-013  0.7962276E+02  0.7818608E-02  0.1330125E+00
         -1   -1    0    0    0  501 -0.00000000000E+00  0.00000000000E+00  0.32087717571E+01  0.32087757152E+01  0.50400000000E-02 0.  1.
          2   -1    0    0  501    0  0.00000000000E+00 -0.00000000000E+00 -0.49394130060E+03  0.49394130060E+03  0.25500000000E-02 0. -1.
         24    2    1    2    0    0  0.00000000000E+00  0.00000000000E+00 -0.49073252884E+03  0.49715007632E+03  0.79622757564E+02 0.  0.
         66    2    3    3    0    0  0.23943563353E+02  0.23860487704E+02 -0.37654027910E+03  0.37805978215E+03  0.19999995895E+01 0.  0.
        -13    1    3    3    0    0 -0.23943563353E+02 -0.23860487704E+02 -0.11419224974E+03  0.11909029416E+03  0.10566000000E+00 0.  1.
         13    1    4    4    0    0  0.11522782168E+02  0.10753537996E+02 -0.17497935997E+03  0.17568779317E+03  0.10566000000E+00 0. -1.
        -13    1    4    4    0    0  0.43614104623E+01  0.53513363693E+01 -0.73544014919E+02  0.73867394679E+02  0.10566000000E+00 0.  1.
        -14    1    4    4    0    0  0.80593707228E+01  0.77556133389E+01 -0.12801690421E+03  0.12850459430E+03  0.00000000000E+00 0.  1.
<mgrwt>
<rscale>  0 0.79622758E+02</rscale>
<asrwt>0</asrwt>
<pdfrwt beam="1">  1        2 0.75990909E-01 0.79622758E+02</pdfrwt>
<pdfrwt beam="2">  1       -1 0.49365789E-03 0.79622758E+02</pdfrwt>
<totfact> 0.30708789E+05</totfact>
</mgrwt>
</event>
<event>
 8    1  0.1627221E-013  0.8036733E+02  0.7818608E-02  0.1328012E+00
         -1   -1    0    0    0  501 -0.00000000000E+00  0.00000000000E+00  0.31851130739E+02  0.31851131138E+02  0.50400000000E-02 0.  1.
          2   -1    0    0  501    0  0.00000000000E+00 -0.00000000000E+00 -0.50696065195E+02  0.50696065259E+02  0.25500000000E-02 0. -1.
         24    2    1    2    0    0  0.00000000000E+00  0.00000000000E+00 -0.18844934456E+02  0.82547196396E+02  0.80367332158E+02 0.  0.
         66    2    3    3    0    0  0.35677614768E+02  0.10601906724E+02 -0.24918096944E+02  0.44835300549E+02  0.19999995654E+01 0.  0.
        -13    1    3    3    0    0 -0.35677614768E+02 -0.10601906724E+02  0.60731624889E+01  0.37711895847E+02  0.10566000000E+00 0.  1.
         13    1    4    4    0    0  0.19740700229E+02  0.64996274563E+01 -0.13975594348E+02  0.25045334975E+02  0.10566000000E+00 0. -1.
        -13    1    4    4    0    0  0.84850206194E+01  0.22387730359E+01 -0.64496994138E+01  0.10891164593E+02  0.10566000000E+00 0.  1.
         14    1    4    4    0    0  0.74518939203E+01  0.18635062315E+01 -0.44928031826E+01  0.88988009817E+01  0.00000000000E+00 0. -1.
<mgrwt>
<rscale>  0 0.80367332E+02</rscale>
<asrwt>0</asrwt>
<pdfrwt beam="1">  1        2 0.77993946E-02 0.80367332E+02</pdfrwt>
<pdfrwt beam="2">  1       -1 0.49001740E-02 0.80367332E+02</pdfrwt>
<totfact> 0.14801255E+05</totfact>
</mgrwt>
</event>
<event>
 8    1  0.1627221E-013  0.7860838E+02  0.7818608E-02  0.1333048E+00
         -1   -1    0    0    0  501 -0.00000000000E+00  0.00000000000E+00  0.83452333040E+01  0.83452348259E+01  0.50400000000E-02 0.  1.
          2   -1    0    0  501    0  0.00000000000E+00 -0.00000000000E+00 -0.18511394298E+03  0.18511394300E+03  0.25500000000E-02 0. -1.
         24    2    1    2    0    0  0.00000000000E+00  0.17520707107E-15 -0.17676870968E+03  0.19345917782E+03  0.78608375913E+02 0.  0.
         66    2    3    3    0    0  0.24522252812E+02  0.12124693907E-01 -0.16395489121E+03  0.16579067339E+03  0.20000003038E+01 0.  0.
        -13    1    3    3    0    0 -0.24522252812E+02 -0.12124693907E-01 -0.12813818468E+02  0.27668504437E+02  0.10566000000E+00 0.  1.
         13    1    4    4    0    0  0.63401380486E+01 -0.69515369216E+00 -0.40780490509E+02  0.41276387431E+02  0.10566000000E+00 0. -1.
        -13    1    4    4    0    0  0.37387378142E+01  0.19507064149E+00 -0.23090005078E+02  0.23391787267E+02  0.10566000000E+00 0. -1.
         14    1    4    4    0    0  0.14443376949E+02  0.51220774458E+00 -0.10008439562E+03  0.10112249869E+03  0.00000000000E+00 0. -1.
<mgrwt>
<rscale>  0 0.78608376E+02</rscale>
<asrwt>0</asrwt>
<pdfrwt beam="1">  1        2 0.28479065E-01 0.78608376E+02</pdfrwt>
<pdfrwt beam="2">  1       -1 0.12838823E-02 0.78608376E+02</pdfrwt>
<totfact> 0.22496845E+05</totfact>
</mgrwt>
</event>
<event>
 8    1  0.1627221E-013  0.7781926E+02  0.7818608E-02  0.1335356E+00
          2   -1    0    0  501    0  0.00000000000E+00  0.00000000000E+00  0.21105764680E+01  0.21105780085E+01  0.25500000000E-02 0. -1.
         -1   -1    0    0    0  501 -0.00000000000E+00 -0.00000000000E+00 -0.71731998006E+03  0.71731998008E+03  0.50400000000E-02 0.  1.
         24    2    1    2    0    0  0.00000000000E+00  0.71054273576E-14 -0.71520940360E+03  0.71943055809E+03  0.77819258040E+02 0.  0.
         66    2    3    3    0    0  0.62390566538E+01  0.34181539393E+02 -0.51920288596E+03  0.52036808151E+03  0.19999999692E+01 0.  0.
        -13    1    3    3    0    0 -0.62390566538E+01 -0.34181539393E+02 -0.19600651763E+03  0.19906247658E+03  0.10566000000E+00 0.  1.
         13    1    4    4    0    0  0.50749781637E+00  0.41363425264E+01 -0.65251568584E+02  0.65384594900E+02  0.10566000000E+00 0. -1.
        -13    1    4    4    0    0  0.20863009612E+01  0.84624300807E+01 -0.13769965075E+03  0.13797525269E+03  0.10566000000E+00 0.  1.
         14    1    4    4    0    0  0.36452578762E+01  0.21582766786E+02 -0.31625166663E+03  0.31700823392E+03  0.00000000000E+00 0. -1.
<mgrwt>
<rscale>  0 0.77819258E+02</rscale>
<asrwt>0</asrwt>
<pdfrwt beam="1">  1        2 0.32470476E-03 0.77819258E+02</pdfrwt>
<pdfrwt beam="2">  1       -1 0.11035673E+00 0.77819258E+02</pdfrwt>
<totfact> 0.54897884E+04</totfact>
</mgrwt>
</event>
<event>
 8    1  0.1627221E-013  0.7952152E+02  0.7818608E-02  0.1330415E+00
          2   -1    0    0  501    0  0.00000000000E+00  0.00000000000E+00  0.97902523576E+02  0.97902523609E+02  0.25500000000E-02 0. -1.
         -1   -1    0    0    0  501 -0.00000000000E+00 -0.00000000000E+00 -0.16147879103E+02  0.16147879889E+02  0.50400000000E-02 0.  1.
         24    2    1    2    0    0  0.00000000000E+00  0.00000000000E+00  0.81754644474E+02  0.11405040350E+03  0.79521523157E+02 0.  0.
         66    2    3    3    0    0 -0.25452186060E+02  0.29668838208E+02  0.51131279459E+02  0.64393023536E+02  0.20000013056E+01 0.  0.
        -13    1    3    3    0    0  0.25452186060E+02 -0.29668838208E+02  0.30623365015E+02  0.49657379962E+02  0.10566000000E+00 0.  1.
         13    1    4    4    0    0 -0.12392558938E+02  0.13526541176E+02  0.23788505730E+02  0.30040755685E+02  0.10566000000E+00 0. -1.
        -13    1    4    4    0    0 -0.19829673925E+01  0.25532440647E+01  0.36229428686E+01  0.48567575601E+01  0.10566000000E+00 0.  1.
        -14    1    4    4    0    0 -0.11076659730E+02  0.13589052967E+02  0.23719830860E+02  0.29495510291E+02  0.00000000000E+00 0.  1.
<mgrwt>
<rscale>  0 0.79521523E+02</rscale>
<asrwt>0</asrwt>
<pdfrwt beam="1">  1        2 0.15061927E-01 0.79521523E+02</pdfrwt>
<pdfrwt beam="2">  1       -1 0.24842892E-02 0.79521523E+02</pdfrwt>
<totfact> 0.17906931E+05</totfact>
</mgrwt>
</event>
<event>
 8    1  0.1627221E-013  0.7952914E+02  0.7818608E-02  0.1330393E+00
          2   -1    0    0  501    0  0.00000000000E+00  0.00000000000E+00  0.51421123842E+03  0.51421123842E+03  0.25500000000E-02 0. -1.
         -1   -1    0    0    0  501 -0.00000000000E+00 -0.00000000000E+00 -0.30750395021E+01  0.30750436324E+01  0.50400000000E-02 0.  1.
         24    2    1    2    0    0 -0.88817841970E-15  0.35527136788E-14  0.51113619891E+03  0.51728628206E+03  0.79529137816E+02 0.  0.
         66    2    3    3    0    0  0.58893802805E+01  0.25034262849E+02  0.45278211862E+03  0.45351631289E+03  0.19999994654E+01 0.  0.
        -13    1    3    3    0    0 -0.58893802805E+01 -0.25034262849E+02  0.58354080298E+02  0.63769969170E+02  0.10566000000E+00 0.  1.
         13    1    4    4    0    0  0.17771263963E+01  0.89292413960E+01  0.15896053577E+03  0.15922108097E+03  0.10566000000E+00 0. -1.
        -13    1    4    4    0    0 -0.93027850861E-01  0.59986972763E+00  0.91997138038E+01  0.92203251558E+01  0.10566000000E+00 0. -1.
        -14    1    4    4    0    0  0.42052817350E+01  0.15505151725E+02  0.28462186905E+03  0.28507490676E+03  0.00000000000E+00 0.  1.
<mgrwt>
<rscale>  0 0.79529138E+02</rscale>
<asrwt>0</asrwt>
<pdfrwt beam="1">  1        2 0.79109456E-01 0.79529138E+02</pdfrwt>
<pdfrwt beam="2">  1       -1 0.47308311E-03 0.79529138E+02</pdfrwt>
<totfact> 0.31198311E+05</totfact>
</mgrwt>
</event>
<event>
 8    1  0.1627221E-013  0.7985248E+02  0.7818608E-02  0.1329471E+00
          2   -1    0    0  501    0  0.00000000000E+00  0.00000000000E+00  0.12010420848E+04  0.12010420848E+04  0.25500000000E-02 0. -1.
         -1   -1    0    0    0  501 -0.00000000000E+00 -0.00000000000E+00 -0.13272632195E+01  0.13272727887E+01  0.50400000000E-02 0.  1.
         24    2    1    2    0    0  0.00000000000E+00  0.35527136788E-14  0.11997148215E+04  0.12023693576E+04  0.79852482458E+02 0.  0.
         66    2    3    3    0    0  0.87606763621E+01  0.21609882155E+02  0.10877671953E+04  0.10880189372E+04  0.20000019401E+01 0.  0.
        -13    1    3    3    0    0 -0.87606763621E+01 -0.21609882155E+02  0.11194762626E+03  0.11435042040E+03  0.10566000000E+00 0.  1.
         13    1    4    4    0    0  0.37196583526E+01  0.86652194949E+01  0.44881053262E+03  0.44890959807E+03  0.10566000000E+00 0. -1.
        -13    1    4    4    0    0  0.34096665934E+01  0.93281185030E+01  0.42650764035E+03  0.42662327416E+03  0.10566000000E+00 0.  1.
        -14    1    4    4    0    0  0.16313514161E+01  0.36165441571E+01  0.21244902232E+03  0.21248606492E+03  0.00000000000E+00 0.  1.
<mgrwt>
<rscale>  0 0.79852482E+02</rscale>
<asrwt>0</asrwt>
<pdfrwt beam="1">  1        2 0.18477609E+00 0.79852482E+02</pdfrwt>
<pdfrwt beam="2">  1       -1 0.20419465E-03 0.79852482E+02</pdfrwt>
<totfact> 0.35202965E+05</totfact>
</mgrwt>
</event>
<event>
 8    1  0.1627221E-013  0.7800028E+02  0.7818608E-02  0.1334824E+00
          2   -1    0    0  501    0  0.00000000000E+00  0.00000000000E+00  0.54868369798E+01  0.54868375723E+01  0.25500000000E-02 0. -1.
         -1   -1    0    0    0  501 -0.00000000000E+00 -0.00000000000E+00 -0.27721087044E+03  0.27721087049E+03  0.50400000000E-02 0.  1.
         24    2    1    2    0    0  0.00000000000E+00  0.00000000000E+00 -0.27172403346E+03  0.28269770806E+03  0.78000280650E+02 0.  0.
         66    2    3    3    0    0  0.26709194709E+01  0.38876332715E+02 -0.13852144887E+03  0.14391210808E+03  0.19999996025E+01 0.  0.
        -13    1    3    3    0    0 -0.26709194709E+01 -0.38876332715E+02 -0.13320258459E+03  0.13878559998E+03  0.10566000000E+00 0.  1.
         13    1    4    4    0    0  0.18214495085E+01  0.26794578383E+02 -0.97243036882E+02  0.10088352935E+03  0.10566000000E+00 0. -1.
        -13    1    4    4    0    0  0.27082406851E+00  0.46339637999E+01 -0.17407789687E+02  0.18016361230E+02  0.10566000000E+00 0.  1.
         14    1    4    4    0    0  0.57864589390E+00  0.74477905318E+01 -0.23870622304E+02  0.25012217496E+02  0.00000000000E+00 0. -1.
<mgrwt>
<rscale>  0 0.78000281E+02</rscale>
<asrwt>0</asrwt>
<pdfrwt beam="1">  1        2 0.84412903E-03 0.78000281E+02</pdfrwt>
<pdfrwt beam="2">  1       -1 0.42647816E-01 0.78000281E+02</pdfrwt>
<totfact> 0.95128072E+04</totfact>
</mgrwt>
</event>
<event>
 8    1  0.1627221E-013  0.8413383E+02  0.7818608E-02  0.1317713E+00
          2   -1    0    0  501    0  0.00000000000E+00  0.00000000000E+00  0.10445060750E+03  0.10445060753E+03  0.25500000000E-02 0. -1.
         -1   -1    0    0    0  501 -0.00000000000E+00 -0.00000000000E+00 -0.16942222824E+02  0.16942223574E+02  0.50400000000E-02 0.  1.
         24    2    1    2    0    0  0.00000000000E+00  0.00000000000E+00  0.87508384676E+02  0.12139283110E+03  0.84133834187E+02 0.  0.
         66    2    3    3    0    0  0.36007442328E+02 -0.21191475990E+02  0.37010354571E+02  0.55851418501E+02  0.20000113594E+01 0.  0.
        -13    1    3    3    0    0 -0.36007442328E+02  0.21191475990E+02  0.50498030105E+02  0.65541412604E+02  0.10566000000E+00 0.  1.
         13    1    4    4    0    0  0.97256227452E+01 -0.51364791845E+01  0.10391385924E+02  0.15131530711E+02  0.10566000000E+00 0. -1.
        -13    1    4    4    0    0  0.15721785041E+02 -0.90911975795E+01  0.16003158914E+02  0.24206128512E+02  0.10566000000E+00 0. -1.
         14    1    4    4    0    0  0.10560034541E+02 -0.69637992261E+01  0.10615809733E+02  0.16513759277E+02  0.00000000000E+00 0. -1.
<mgrwt>
<rscale>  0 0.84133834E+02</rscale>
<asrwt>0</asrwt>
<pdfrwt beam="1">  1        2 0.16069324E-01 0.84133834E+02</pdfrwt>
<pdfrwt beam="2">  1       -1 0.26064959E-02 0.84133834E+02</pdfrwt>
<totfact> 0.15675428E+05</totfact>
</mgrwt>
</event>
<event>
 8    1  0.1627221E-013  0.7902812E+02  0.7818608E-02  0.1331832E+00
          2   -1    0    0  501    0  0.00000000000E+00  0.00000000000E+00  0.18723006340E+04  0.18723006340E+04  0.25500000000E-02 0. -1.
         -1   -1    0    0    0  501 -0.00000000000E+00 -0.00000000000E+00 -0.83391882061E+00  0.83393405073E+00  0.50400000000E-02 0.  1.
         24    2    1    2    0    0  0.17763568394E-14  0.00000000000E+00  0.18714667152E+04  0.18731345680E+04  0.79028121632E+02 0.  0.
         66    2    3    3    0    0 -0.13099205917E+02  0.24975018494E+01  0.18173136833E+04  0.18173637088E+04  0.20000001498E+01 0.  0.
        -13    1    3    3    0    0  0.13099205917E+02 -0.24975018494E+01  0.54153031879E+02  0.55770859209E+02  0.10566000000E+00 0.  1.
         13    1    4    4    0    0 -0.57486708192E+01  0.13539298061E+01  0.72808981936E+03  0.72811377996E+03  0.10566000000E+00 0. -1.
        -13    1    4    4    0    0 -0.59929111848E+01  0.10886866096E+01  0.94622186365E+03  0.94624147375E+03  0.10566000000E+00 0.  1.
        -14    1    4    4    0    0 -0.13576239131E+01  0.54885433683E-01  0.14300200027E+03  0.14300845512E+03  0.00000000000E+00 0.  1.
<mgrwt>
<rscale>  0 0.79028122E+02</rscale>
<asrwt>0</asrwt>
<pdfrwt beam="1">  1        2 0.28804692E+00 0.79028122E+02</pdfrwt>
<pdfrwt beam="2">  1       -1 0.12829608E-03 0.79028122E+02</pdfrwt>
<totfact> 0.30310077E+05</totfact>
</mgrwt>
</event>
<event>
 8    1  0.1627221E-013  0.7550311E+02  0.7818608E-02  0.1342320E+00
          2   -1    0    0  501    0  0.00000000000E+00  0.00000000000E+00  0.87841123352E+02  0.87841123389E+02  0.25500000000E-02 0. -1.
         -1   -1    0    0    0  501 -0.00000000000E+00 -0.00000000000E+00 -0.16224518187E+02  0.16224518970E+02  0.50400000000E-02 0.  1.
         24    2    1    2    0    0  0.00000000000E+00  0.00000000000E+00  0.71616605164E+02  0.10406564236E+03  0.75503111090E+02 0.  0.
         66    2    3    3    0    0  0.12046561814E+02 -0.25287993460E+02  0.70662897147E+02  0.76038459344E+02  0.20000003508E+01 0.  0.
        -13    1    3    3    0    0 -0.12046561814E+02  0.25287993460E+02  0.95370801743E+00  0.28027183015E+02  0.10566000000E+00 0.  1.
         13    1    4    4    0    0  0.10163379615E+02 -0.21509307195E+02  0.59908182619E+02  0.64458871305E+02  0.10566000000E+00 0. -1.
        -13    1    4    4    0    0  0.18758697566E+01 -0.37932310288E+01  0.10455060825E+02  0.11279492448E+02  0.10566000000E+00 0.  1.
        -14    1    4    4    0    0  0.73124417905E-02  0.14544764078E-01  0.29965370264E+00  0.30009559056E+00  0.00000000000E+00 0.  1.
<mgrwt>
<rscale>  0 0.75503111E+02</rscale>
<asrwt>0</asrwt>
<pdfrwt beam="1">  1        2 0.13514019E-01 0.75503111E+02</pdfrwt>
<pdfrwt beam="2">  1       -1 0.24960798E-02 0.75503111E+02</pdfrwt>
<totfact> 0.19977107E+05</totfact>
</mgrwt>
</event>
<event>
 8    1  0.1627221E-013  0.8066949E+02  0.7818608E-02  0.1327162E+00
         -1   -1    0    0    0  501 -0.00000000000E+00  0.00000000000E+00  0.32778613830E+01  0.32778652577E+01  0.50400000000E-02 0.  1.
          2   -1    0    0  501    0  0.00000000000E+00 -0.00000000000E+00 -0.49632690760E+03  0.49632690761E+03  0.25500000000E-02 0. -1.
         24    2    1    2    0    0 -0.88817841970E-15  0.00000000000E+00 -0.49304904622E+03  0.49960477287E+03  0.80669492953E+02 0.  0.
         66    2    3    3    0    0 -0.53801008764E+01 -0.21009939476E+02 -0.45711097756E+03  0.45762955416E+03  0.19999989646E+01 0.  0.
        -13    1    3    3    0    0  0.53801008764E+01  0.21009939476E+02 -0.35938068662E+02  0.41975218706E+02  0.10566000000E+00 0.  1.
         13    1    4    4    0    0 -0.11628326544E+01 -0.33037678890E+01 -0.74602855268E+02  0.74685100524E+02  0.10566000000E+00 0. -1.
        -13    1    4    4    0    0 -0.91243426154E+00 -0.28229035433E+01 -0.51616704315E+02  0.51701998502E+02  0.10566000000E+00 0.  1.
        -14    1    4    4    0    0 -0.33048339604E+01 -0.14883268043E+02 -0.33089141798E+03  0.33124245514E+03  0.00000000000E+00 0.  1.
<mgrwt>
<rscale>  0 0.80669493E+02</rscale>
<asrwt>0</asrwt>
<pdfrwt beam="1">  1        2 0.76357926E-01 0.80669493E+02</pdfrwt>
<pdfrwt beam="2">  1       -1 0.50428706E-03 0.80669493E+02</pdfrwt>
<totfact> 0.29726685E+05</totfact>
</mgrwt>
</event>
<event>
 8    1  0.1627221E-013  0.8120697E+02  0.7818608E-02  0.1325661E+00
         -1   -1    0    0    0  501 -0.00000000000E+00  0.00000000000E+00  0.75533617463E+01  0.75533634278E+01  0.50400000000E-02 0.  1.
          2   -1    0    0  501    0  0.00000000000E+00 -0.00000000000E+00 -0.21826607374E+03  0.21826607376E+03  0.25500000000E-02 0. -1.
         24    2    1    2    0    0  0.71054273576E-14  0.00000000000E+00 -0.21071271200E+03  0.22581943718E+03  0.81206965304E+02 0.  0.
         66    2    3    3    0    0  0.38892537829E+02  0.22370972065E+01 -0.13700423001E+03  0.14244926516E+03  0.20000003083E+01 0.  0.
        -13    1    3    3    0    0 -0.38892537829E+02 -0.22370972065E+01 -0.73708481982E+02  0.83370172021E+02  0.10566000000E+00 0.  1.
         13    1    4    4    0    0  0.74688395770E+00  0.25730658458E+00 -0.29557207201E+01  0.30612891624E+01  0.10566000000E+00 0.  1.
        -13    1    4    4    0    0  0.31865654964E+02  0.19967109835E+01 -0.11249421363E+03  0.11693744518E+03  0.10566000000E+00 0. -1.
        -14    1    4    4    0    0  0.62799989080E+01 -0.16920361568E-01 -0.21554295666E+02  0.22450530824E+02  0.00000000000E+00 0.  1.
<mgrwt>
<rscale>  0 0.81206965E+02</rscale>
<asrwt>0</asrwt>
<pdfrwt beam="1">  1        2 0.33579391E-01 0.81206965E+02</pdfrwt>
<pdfrwt beam="2">  1       -1 0.11620560E-02 0.81206965E+02</pdfrwt>
<totfact> 0.21863153E+05</totfact>
</mgrwt>
</event>
<event>
 8    1  0.1627221E-013  0.7321952E+02  0.7818608E-02  0.1349475E+00
          2   -1    0    0  501    0  0.00000000000E+00  0.00000000000E+00  0.77744624131E+02  0.77744624172E+02  0.25500000000E-02 0. -1.
         -1   -1    0    0    0  501 -0.00000000000E+00 -0.00000000000E+00 -0.17239449497E+02  0.17239450234E+02  0.50400000000E-02 0.  1.
         24    2    1    2    0    0  0.00000000000E+00 -0.88817841970E-15  0.60505174633E+02  0.94984074406E+02  0.73219520850E+02 0.  0.
         66    2    3    3    0    0 -0.35871252275E+02  0.68352906220E+01  0.33117756666E+02  0.49338157124E+02  0.20000010301E+01 0.  0.
        -13    1    3    3    0    0  0.35871252275E+02 -0.68352906220E+01  0.27387417967E+02  0.45645917283E+02  0.10566000000E+00 0.  1.
         13    1    4    4    0    0 -0.20964374080E+02  0.47136021898E+01  0.19659172021E+02  0.29124169255E+02  0.10566000000E+00 0. -1.
        -13    1    4    4    0    0 -0.29028052525E+01  0.40193563878E+00  0.30768625640E+01  0.42504209045E+01  0.10566000000E+00 0.  1.
        -14    1    4    4    0    0 -0.12004072942E+02  0.17197527935E+01  0.10381722081E+02  0.15963566965E+02  0.00000000000E+00 0.  1.
<mgrwt>
<rscale>  0 0.73219521E+02</rscale>
<asrwt>0</asrwt>
<pdfrwt beam="1">  1        2 0.11960712E-01 0.73219521E+02</pdfrwt>
<pdfrwt beam="2">  1       -1 0.26522230E-02 0.73219521E+02</pdfrwt>
<totfact> 0.21016144E+05</totfact>
</mgrwt>
</event>
<event>
 8    1  0.1627221E-013  0.7958756E+02  0.7818608E-02  0.1330226E+00
          2   -1    0    0  501    0  0.00000000000E+00  0.00000000000E+00  0.14421464635E+02  0.14421464860E+02  0.25500000000E-02 0. -1.
         -1   -1    0    0    0  501 -0.00000000000E+00 -0.00000000000E+00 -0.10980472766E+03  0.10980472778E+03  0.50400000000E-02 0.  1.
         24    2    1    2    0    0  0.00000000000E+00  0.71054273576E-14 -0.95383263029E+02  0.12422619264E+03  0.79587562293E+02 0.  0.
         66    2    3    3    0    0  0.13866187030E+01  0.30918597482E+02 -0.87417293372E+01  0.32222666043E+02  0.19999983675E+01 0.  0.
        -13    1    3    3    0    0 -0.13866187030E+01 -0.30918597482E+02 -0.86641533692E+02  0.92003526597E+02  0.10566000000E+00 0.  1.
         13    1    4    4    0    0  0.12650621259E+01  0.25180124068E+02 -0.71399772468E+01  0.26203615579E+02  0.10566000000E+00 0. -1.
        -13    1    4    4    0    0  0.96268994997E-01  0.28877479367E+01 -0.37510596395E+00  0.29155144289E+01  0.10566000000E+00 0.  1.
        -14    1    4    4    0    0  0.25287582120E-01  0.28507254770E+01 -0.12266461264E+01  0.31035360359E+01  0.00000000000E+00 0.  1.
<mgrwt>
<rscale>  0 0.79587562E+02</rscale>
<asrwt>0</asrwt>
<pdfrwt beam="1">  1        2 0.22186870E-02 0.79587562E+02</pdfrwt>
<pdfrwt beam="2">  1       -1 0.16893035E-01 0.79587562E+02</pdfrwt>
<totfact> 0.11765332E+05</totfact>
</mgrwt>
</event>
<event>
 8    1  0.1627221E-013  0.8036884E+02  0.7818608E-02  0.1328008E+00
         -1   -1    0    0    0  501 -0.00000000000E+00  0.00000000000E+00  0.17532342444E+03  0.17532342451E+03  0.50400000000E-02 0.  1.
          2   -1    0    0  501    0  0.00000000000E+00 -0.00000000000E+00 -0.92103362181E+01  0.92103365711E+01  0.25500000000E-02 0. -1.
         24    2    1    2    0    0  0.00000000000E+00  0.00000000000E+00  0.16611308822E+03  0.18453376108E+03  0.80368842850E+02 0.  0.
         66    2    3    3    0    0 -0.19748788399E+02  0.26408730373E+02  0.30480509869E+02  0.44949939822E+02  0.19999812573E+01 0.  0.
        -13    1    3    3    0    0  0.19748788399E+02 -0.26408730373E+02  0.13563257835E+03  0.13958382126E+03  0.10566000000E+00 0.  1.
         13    1    4    4    0    0 -0.94489089748E+01  0.11718933571E+02  0.14362203215E+02  0.20806232962E+02  0.10566000000E+00 0. -1.
        -13    1    4    4    0    0 -0.76936984356E+01  0.11342441080E+02  0.12860069001E+02  0.18794587093E+02  0.10566000000E+00 0.  1.
        -14    1    4    4    0    0 -0.26061809882E+01  0.33473557223E+01  0.32582376533E+01  0.53491197668E+01  0.00000000000E+00 0.  1.
<mgrwt>
<rscale>  0 0.80368843E+02</rscale>
<asrwt>0</asrwt>
<pdfrwt beam="1">  1        2 0.14169749E-02 0.80368843E+02</pdfrwt>
<pdfrwt beam="2">  1       -1 0.26972833E-01 0.80368843E+02</pdfrwt>
<totfact> 0.10228493E+05</totfact>
</mgrwt>
</event>
<event>
 8    1  0.1627221E-013  0.8174221E+02  0.7818608E-02  0.1324179E+00
         -1   -1    0    0    0  501 -0.00000000000E+00  0.00000000000E+00  0.13328283638E+02  0.13328284591E+02  0.50400000000E-02 0.  1.
          2   -1    0    0  501    0  0.00000000000E+00 -0.00000000000E+00 -0.12533101434E+03  0.12533101437E+03  0.25500000000E-02 0. -1.
         24    2    1    2    0    0  0.00000000000E+00 -0.35527136788E-14 -0.11200273070E+03  0.13865929896E+03  0.81742213713E+02 0.  0.
         66    2    3    3    0    0  0.10228394517E+02 -0.27919431957E+02 -0.10354111427E+03  0.10774449907E+03  0.20000004181E+01 0.  0.
        -13    1    3    3    0    0 -0.10228394517E+02  0.27919431957E+02 -0.84616164355E+01  0.30914799885E+02  0.10566000000E+00 0.  1.
         13    1    4    4    0    0  0.47382363157E+01 -0.11509382218E+02 -0.40983665757E+02  0.42832099941E+02  0.10566000000E+00 0. -1.
        -13    1    4    4    0    0  0.45031993850E+01 -0.13421711480E+02 -0.49888006138E+02  0.51857935403E+02  0.10566000000E+00 0.  1.
         14    1    4    4    0    0  0.98695881669E+00 -0.29883382592E+01 -0.12669442371E+02  0.13054463729E+02  0.00000000000E+00 0. -1.
<mgrwt>
<rscale>  0 0.81742214E+02</rscale>
<asrwt>0</asrwt>
<pdfrwt beam="1">  1        2 0.19281694E-01 0.81742214E+02</pdfrwt>
<pdfrwt beam="2">  1       -1 0.20505053E-02 0.81742214E+02</pdfrwt>
<totfact> 0.17876024E+05</totfact>
</mgrwt>
</event>
<event>
 8    1  0.1627221E-013  0.8054159E+02  0.7818608E-02  0.1327521E+00
         -1   -1    0    0    0  501 -0.00000000000E+00  0.00000000000E+00  0.16140919942E+03  0.16140919950E+03  0.50400000000E-02 0.  1.
          2   -1    0    0  501    0  0.00000000000E+00 -0.00000000000E+00 -0.10047362250E+02  0.10047362574E+02  0.25500000000E-02 0. -1.
         24    2    1    2    0    0 -0.35527136788E-14  0.00000000000E+00  0.15136183717E+03  0.17145656207E+03  0.80541585074E+02 0.  0.
         66    2    3    3    0    0 -0.27015431230E+02  0.33508325489E+01  0.12624909528E+02  0.30074074265E+02  0.19999997497E+01 0.  0.
        -13    1    3    3    0    0  0.27015431230E+02 -0.33508325489E+01  0.13873692764E+03  0.14138248780E+03  0.10566000000E+00 0.  1.
         13    1    4    4    0    0 -0.34247853586E+01  0.53936448339E+00  0.10369631592E+01  0.36202935554E+01  0.10566000000E+00 0. -1.
        -13    1    4    4    0    0 -0.14387923973E+02  0.13085692406E+01  0.73845615233E+01  0.16225523802E+02  0.10566000000E+00 0.  1.
         14    1    4    4    0    0 -0.92027218977E+01  0.15028988249E+01  0.42033848456E+01  0.10228256907E+02  0.00000000000E+00 0. -1.
<mgrwt>
<rscale>  0 0.80541585E+02</rscale>
<asrwt>0</asrwt>
<pdfrwt beam="1">  1        2 0.15457481E-02 0.80541585E+02</pdfrwt>
<pdfrwt beam="2">  1       -1 0.24832183E-01 0.80541585E+02</pdfrwt>
<totfact> 0.10404297E+05</totfact>
</mgrwt>
</event>
<event>
 8    1  0.1627221E-013  0.7579902E+02  0.7818608E-02  0.1341414E+00
          2   -1    0    0  501    0  0.00000000000E+00  0.00000000000E+00  0.62756401008E+03  0.62756401009E+03  0.25500000000E-02 0. -1.
         -1   -1    0    0    0  501 -0.00000000000E+00 -0.00000000000E+00 -0.22888043115E+01  0.22888098606E+01  0.50400000000E-02 0.  1.
         24    2    1    2    0    0  0.00000000000E+00 -0.35527136788E-14  0.62527520577E+03  0.62985281995E+03  0.75799022716E+02 0.  0.
         66    2    3    3    0    0 -0.14377940972E+02  0.24740018007E+02  0.51902003593E+03  0.51981207313E+03  0.20000002504E+01 0.  0.
        -13    1    3    3    0    0  0.14377940972E+02 -0.24740018007E+02  0.10625516985E+03  0.11004074682E+03  0.10566000000E+00 0.  1.
         13    1    4    4    0    0 -0.36552669888E+01  0.65789448758E+01  0.12878771433E+03  0.12900748048E+03  0.10566000000E+00 0.  1.
        -13    1    4    4    0    0 -0.51269580696E+01  0.10107661105E+02  0.21095533980E+03  0.21125959638E+03  0.10566000000E+00 0. -1.
         14    1    4    4    0    0 -0.55957159138E+01  0.80534120266E+01  0.17927698180E+03  0.17954499627E+03  0.00000000000E+00 0. -1.
<mgrwt>
<rscale>  0 0.75799023E+02</rscale>
<asrwt>0</asrwt>
<pdfrwt beam="1">  1        2 0.96548250E-01 0.75799023E+02</pdfrwt>
<pdfrwt beam="2">  1       -1 0.35212439E-03 0.75799023E+02</pdfrwt>
<totfact> 0.37449230E+05</totfact>
</mgrwt>
</event>
<event>
 8    1  0.1627221E-013  0.8094210E+02  0.7818608E-02  0.1326399E+00
          2   -1    0    0  501    0  0.00000000000E+00  0.00000000000E+00  0.25843383562E+02  0.25843383688E+02  0.25500000000E-02 0. -1.
         -1   -1    0    0    0  501 -0.00000000000E+00 -0.00000000000E+00 -0.63378153142E+02  0.63378153342E+02  0.50400000000E-02 0.  1.
         24    2    1    2    0    0  0.35527136788E-14  0.00000000000E+00 -0.37534769580E+02  0.89221537030E+02  0.80942101175E+02 0.  0.
         66    2    3    3    0    0 -0.20550981633E+02 -0.26354993924E+02  0.63323828354E+01  0.34073855521E+02  0.20000017175E+01 0.  0.
        -13    1    3    3    0    0  0.20550981633E+02  0.26354993924E+02 -0.43867152415E+02  0.55147681509E+02  0.10566000000E+00 0.  1.
         13    1    4    4    0    0 -0.12787840386E+02 -0.16718895685E+02  0.43202222569E+01  0.21487806287E+02  0.10566000000E+00 0. -1.
        -13    1    4    4    0    0 -0.74216546917E+01 -0.93774631165E+01  0.17581093696E+01  0.12088005851E+02  0.10566000000E+00 0.  1.
         14    1    4    4    0    0 -0.34148655489E+00 -0.25863512272E+00  0.25405120892E+00  0.49804338228E+00  0.00000000000E+00 0. -1.
<mgrwt>
<rscale>  0 0.80942101E+02</rscale>
<asrwt>0</asrwt>
<pdfrwt beam="1">  1        2 0.39759052E-02 0.80942101E+02</pdfrwt>
<pdfrwt beam="2">  1       -1 0.97504851E-02 0.80942101E+02</pdfrwt>
<totfact> 0.12639914E+05</totfact>
</mgrwt>
</event>
<event>
 8    1  0.1627221E-013  0.7999306E+02  0.7818608E-02  0.1329071E+00
         -1   -1    0    0    0  501 -0.00000000000E+00  0.00000000000E+00  0.15953954003E+01  0.15954033612E+01  0.50400000000E-02 0.  1.
          2   -1    0    0  501    0  0.00000000000E+00 -0.00000000000E+00 -0.10027096318E+04  0.10027096318E+04  0.25500000000E-02 0. -1.
         24    2    1    2    0    0  0.00000000000E+00  0.88817841970E-15 -0.10011142364E+04  0.10043050351E+04  0.79993058039E+02 0.  0.
         66    2    3    3    0    0 -0.11357729426E+02  0.63379535449E+01 -0.97539624484E+03  0.97548500868E+03  0.20000065350E+01 0.  0.
        -13    1    3    3    0    0  0.11357729426E+02 -0.63379535449E+01 -0.25717991532E+02  0.28820026463E+02  0.10566000000E+00 0.  1.
         13    1    4    4    0    0 -0.24446040350E+01  0.20343338445E+01 -0.28354258740E+03  0.28356044265E+03  0.10566000000E+00 0. -1.
        -13    1    4    4    0    0 -0.98828435136E+00  0.40001980538E+00 -0.76043474576E+02  0.76051021765E+02  0.10566000000E+00 0. -1.
         14    1    4    4    0    0 -0.79248410401E+01  0.39035998950E+01 -0.61581018287E+03  0.61587354426E+03  0.00000000000E+00 0. -1.
<mgrwt>
<rscale>  0 0.79993058E+02</rscale>
<asrwt>0</asrwt>
<pdfrwt beam="1">  1        2 0.15426252E+00 0.79993058E+02</pdfrwt>
<pdfrwt beam="2">  1       -1 0.24544686E-03 0.79993058E+02</pdfrwt>
<totfact> 0.35243012E+05</totfact>
</mgrwt>
</event>
<event>
 8    1  0.1627221E-013  0.8381403E+02  0.7818608E-02  0.1318563E+00
         -1   -1    0    0    0  501 -0.00000000000E+00  0.00000000000E+00  0.13567866048E+03  0.13567866058E+03  0.50400000000E-02 0.  1.
          2   -1    0    0  501    0  0.00000000000E+00 -0.00000000000E+00 -0.12943802997E+02  0.12943803248E+02  0.25500000000E-02 0. -1.
         24    2    1    2    0    0  0.00000000000E+00  0.00000000000E+00  0.12273485748E+03  0.14862246382E+03  0.83814029321E+02 0.  0.
         66    2    3    3    0    0 -0.38650822417E+01 -0.38598437159E+02  0.33397717276E+02  0.51226806854E+02  0.20000023356E+01 0.  0.
        -13    1    3    3    0    0  0.38650822417E+01  0.38598437159E+02  0.89337140209E+02  0.97395656969E+02  0.10566000000E+00 0.  1.
         13    1    4    4    0    0 -0.34249379607E+00 -0.48965383164E+01  0.43563974148E+01  0.65637452690E+01  0.10566000000E+00 0. -1.
        -13    1    4    4    0    0 -0.22243107628E+01 -0.19904079405E+02  0.16025112300E+02  0.25650249971E+02  0.10566000000E+00 0.  1.
         14    1    4    4    0    0 -0.12982776828E+01 -0.13797819437E+02  0.13016207562E+02  0.19012811613E+02  0.00000000000E+00 0. -1.
<mgrwt>
<rscale>  0 0.83814029E+02</rscale>
<asrwt>0</asrwt>
<pdfrwt beam="1">  1        2 0.19913544E-02 0.83814029E+02</pdfrwt>
<pdfrwt beam="2">  1       -1 0.20873640E-01 0.83814029E+02</pdfrwt>
<totfact> 0.98346250E+04</totfact>
</mgrwt>
</event>
<event>
 8    1  0.1627221E-013  0.8095542E+02  0.7818608E-02  0.1326362E+00
          2   -1    0    0  501    0  0.00000000000E+00  0.00000000000E+00  0.86406291544E+02  0.86406291582E+02  0.25500000000E-02 0. -1.
         -1   -1    0    0    0  501 -0.00000000000E+00 -0.00000000000E+00 -0.18962103365E+02  0.18962104035E+02  0.50400000000E-02 0.  1.
         24    2    1    2    0    0  0.00000000000E+00 -0.17763568394E-14  0.67444188179E+02  0.10536839562E+03  0.80955421534E+02 0.  0.
         66    2    3    3    0    0  0.61228060416E+00  0.15427426195E+02  0.82408802162E+02  0.83866507275E+02  0.20000005420E+01 0.  0.
        -13    1    3    3    0    0 -0.61228060416E+00 -0.15427426195E+02 -0.14964613984E+02  0.21501888342E+02  0.10566000000E+00 0.  1.
         13    1    4    4    0    0 -0.43283152107E-01  0.67923045045E+01  0.40634478720E+02  0.41198413790E+02  0.10566000000E+00 0. -1.
        -13    1    4    4    0    0  0.13259214761E+00  0.34015326564E+01  0.14956806921E+02  0.15339662395E+02  0.10566000000E+00 0.  1.
        -14    1    4    4    0    0  0.52297160865E+00  0.52335890341E+01  0.26817516521E+02  0.27328431090E+02  0.00000000000E+00 0.  1.
<mgrwt>
<rscale>  0 0.80955422E+02</rscale>
<asrwt>0</asrwt>
<pdfrwt beam="1">  1        2 0.13293275E-01 0.80955422E+02</pdfrwt>
<pdfrwt beam="2">  1       -1 0.29172468E-02 0.80955422E+02</pdfrwt>
<totfact> 0.16498773E+05</totfact>
</mgrwt>
</event>
<event>
 8    1  0.1627221E-013  0.7835013E+02  0.7818608E-02  0.1333800E+00
          2   -1    0    0  501    0  0.00000000000E+00  0.00000000000E+00  0.74795546659E+03  0.74795546659E+03  0.25500000000E-02 0. -1.
         -1   -1    0    0    0  501 -0.00000000000E+00 -0.00000000000E+00 -0.20518379298E+01  0.20518441198E+01  0.50400000000E-02 0.  1.
         24    2    1    2    0    0  0.17763568394E-14  0.00000000000E+00  0.74590362866E+03  0.75000731071E+03  0.78350130033E+02 0.  0.
         66    2    3    3    0    0 -0.13519781602E+02  0.81615753549E+01  0.71610982052E+03  0.71628672391E+03  0.19999994236E+01 0.  0.
        -13    1    3    3    0    0  0.13519781602E+02 -0.81615753549E+01  0.29793808134E+02  0.33720586798E+02  0.10566000000E+00 0.  1.
         13    1    4    4    0    0 -0.40734760422E+01  0.22206710465E+01  0.20791332214E+03  0.20796510590E+03  0.10566000000E+00 0. -1.
        -13    1    4    4    0    0 -0.79075437058E+01  0.42016525055E+01  0.40196867548E+03  0.40206841503E+03  0.10566000000E+00 0.  1.
        -14    1    4    4    0    0 -0.15387618541E+01  0.17392518029E+01  0.10622782290E+03  0.10625320298E+03  0.00000000000E+00 0.  1.
<mgrwt>
<rscale>  0 0.78350130E+02</rscale>
<asrwt>0</asrwt>
<pdfrwt beam="1">  1        2 0.11507029E+00 0.78350130E+02</pdfrwt>
<pdfrwt beam="2">  1       -1 0.31566725E-03 0.78350130E+02</pdfrwt>
<totfact> 0.35820266E+05</totfact>
</mgrwt>
</event>
<event>
 8    1  0.1627221E-013  0.8147556E+02  0.7818608E-02  0.1324915E+00
         -1   -1    0    0    0  501 -0.00000000000E+00  0.00000000000E+00  0.24446626402E+02  0.24446626921E+02  0.50400000000E-02 0.  1.
          2   -1    0    0  501    0  0.00000000000E+00 -0.00000000000E+00 -0.67885313134E+02  0.67885313181E+02  0.25500000000E-02 0. -1.
         24    2    1    2    0    0  0.71054273576E-14 -0.17763568394E-14 -0.43438686732E+02  0.92331940103E+02  0.81475564792E+02 0.  0.
         66    2    3    3    0    0  0.27529077810E+02 -0.64744832495E+01 -0.54923047316E+02  0.61808657834E+02  0.19999995888E+01 0.  0.
        -13    1    3    3    0    0 -0.27529077810E+02  0.64744832495E+01  0.11484360584E+02  0.30523282269E+02  0.10566000000E+00 0.  1.
         13    1    4    4    0    0  0.13817673050E+02 -0.39080114684E+01 -0.27970640224E+02  0.31441509517E+02  0.10566000000E+00 0. -1.
        -13    1    4    4    0    0  0.10106035778E+01 -0.46262488036E+00 -0.21762225006E+01  0.24459046954E+01  0.10566000000E+00 0.  1.
        -14    1    4    4    0    0  0.12700801182E+02 -0.21038469008E+01 -0.24776184591E+02  0.27921243621E+02  0.00000000000E+00 0.  1.
<mgrwt>
<rscale>  0 0.81475565E+02</rscale>
<asrwt>0</asrwt>
<pdfrwt beam="1">  1        2 0.10443894E-01 0.81475565E+02</pdfrwt>
<pdfrwt beam="2">  1       -1 0.37610195E-02 0.81475565E+02</pdfrwt>
<totfact> 0.15251457E+05</totfact>
</mgrwt>
</event>
<event>
 8    1  0.1627221E-013  0.7943124E+02  0.7818608E-02  0.1330673E+00
          2   -1    0    0  501    0  0.00000000000E+00  0.00000000000E+00  0.12953575419E+04  0.12953575419E+04  0.25500000000E-02 0. -1.
         -1   -1    0    0    0  501 -0.00000000000E+00 -0.00000000000E+00 -0.12176744621E+01  0.12176848924E+01  0.50400000000E-02 0.  1.
         24    2    1    2    0    0 -0.35527136788E-14  0.17763568394E-14  0.12941398674E+04  0.12965752268E+04  0.79431242254E+02 0.  0.
         66    2    3    3    0    0 -0.19283704973E+02  0.13170441239E+02  0.11713517356E+04  0.11715861942E+04  0.20000008854E+01 0.  0.
        -13    1    3    3    0    0  0.19283704973E+02 -0.13170441239E+02  0.12278813181E+03  0.12498903263E+03  0.10566000000E+00 0.  1.
         13    1    4    4    0    0 -0.83356964823E+01  0.52743831719E+01  0.49492855658E+03  0.49502685810E+03  0.10566000000E+00 0. -1.
        -13    1    4    4    0    0 -0.99645861464E+01  0.75600258597E+01  0.61247329281E+03  0.61260100599E+03  0.10566000000E+00 0.  1.
        -14    1    4    4    0    0 -0.98342234444E+00  0.33603220733E+00  0.63949886232E+02  0.63958330077E+02  0.00000000000E+00 0.  1.
<mgrwt>
<rscale>  0 0.79431242E+02</rscale>
<asrwt>0</asrwt>
<pdfrwt beam="1">  1        2 0.19928490E+00 0.79431242E+02</pdfrwt>
<pdfrwt beam="2">  1       -1 0.18733616E-03 0.79431242E+02</pdfrwt>
<totfact> 0.35288362E+05</totfact>
</mgrwt>
</event>
<event>
 8    1  0.1627221E-013  0.8905522E+02  0.7818608E-02  0.1305156E+00
         -1   -1    0    0    0  501 -0.00000000000E+00  0.00000000000E+00  0.17952529358E+02  0.17952530066E+02  0.50400000000E-02 0.  1.
          2   -1    0    0  501    0  0.00000000000E+00 -0.00000000000E+00 -0.11044170844E+03  0.11044170847E+03  0.25500000000E-02 0. -1.
         24    2    1    2    0    0  0.00000000000E+00  0.00000000000E+00 -0.92489179082E+02  0.12839423854E+03  0.89055220183E+02 0.  0.
         66    2    3    3    0    0  0.27198140625E+02 -0.29337822606E+02 -0.74381959721E+02  0.84481492712E+02  0.19999975623E+01 0.  0.
        -13    1    3    3    0    0 -0.27198140625E+02  0.29337822606E+02 -0.18107219361E+02  0.43912745823E+02  0.10566000000E+00 0.  1.
         13    1    4    4    0    0  0.32035802611E+01 -0.32647687706E+01 -0.77536908163E+01  0.90029176896E+01  0.10566000000E+00 0. -1.
        -13    1    4    4    0    0  0.10784485068E+02 -0.10799123704E+02 -0.29455616549E+02  0.33174850433E+02  0.10566000000E+00 0.  1.
        -14    1    4    4    0    0  0.13210075295E+02 -0.15273930131E+02 -0.37172652356E+02  0.42303724589E+02  0.00000000000E+00 0.  1.
<mgrwt>
<rscale>  0 0.89055220E+02</rscale>
<asrwt>0</asrwt>
<pdfrwt beam="1">  1        2 0.16991032E-01 0.89055220E+02</pdfrwt>
<pdfrwt beam="2">  1       -1 0.27619277E-02 0.89055220E+02</pdfrwt>
<totfact> 0.13667277E+05</totfact>
</mgrwt>
</event>
<event>
 8    1  0.1627221E-013  0.8004826E+02  0.7818608E-02  0.1328915E+00
          2   -1    0    0  501    0  0.00000000000E+00  0.00000000000E+00  0.10409129877E+04  0.10409129877E+04  0.25500000000E-02 0. -1.
         -1   -1    0    0    0  501 -0.00000000000E+00 -0.00000000000E+00 -0.15389629108E+01  0.15389711636E+01  0.50400000000E-02 0.  1.
         24    2    1    2    0    0  0.00000000000E+00  0.00000000000E+00  0.10393740248E+04  0.10424519589E+04  0.80048255063E+02 0.  0.
         66    2    3    3    0    0 -0.20134431439E+02  0.18553057276E+01  0.96945511904E+03  0.96966801810E+03  0.19999996515E+01 0.  0.
        -13    1    3    3    0    0  0.20134431439E+02 -0.18553057276E+01  0.69918905740E+02  0.72783940761E+02  0.10566000000E+00 0.  1.
         13    1    4    4    0    0 -0.13080533403E+02  0.79870032406E+00  0.62772386899E+03  0.62786065742E+03  0.10566000000E+00 0. -1.
        -13    1    4    4    0    0 -0.35533008576E+01  0.10158947049E+01  0.18644190874E+03  0.18647856308E+03  0.10566000000E+00 0.  1.
        -14    1    4    4    0    0 -0.35005971789E+01  0.40710698584E-01  0.15528934131E+03  0.15532879760E+03  0.00000000000E+00 0.  1.
<mgrwt>
<rscale>  0 0.80048255E+02</rscale>
<asrwt>0</asrwt>
<pdfrwt beam="1">  1        2 0.16014053E+00 0.80048255E+02</pdfrwt>
<pdfrwt beam="2">  1       -1 0.23676406E-03 0.80048255E+02</pdfrwt>
<totfact> 0.35214671E+05</totfact>
</mgrwt>
</event>
<event>
 8    1  0.1627221E-013  0.6970630E+02  0.7818608E-02  0.1361095E+00
          2   -1    0    0  501    0  0.00000000000E+00  0.00000000000E+00  0.31390376336E+02  0.31390376440E+02  0.25500000000E-02 0. -1.
         -1   -1    0    0    0  501 -0.00000000000E+00 -0.00000000000E+00 -0.38697908572E+02  0.38697908900E+02  0.50400000000E-02 0.  1.
         24    2    1    2    0    0  0.00000000000E+00 -0.17763568394E-14 -0.73075322361E+01  0.70088285340E+02  0.69706296090E+02 0.  0.
         66    2    3    3    0    0  0.19000528365E+02  0.11528438634E+02  0.23300829325E+02  0.32262263385E+02  0.20000040053E+01 0.  0.
        -13    1    3    3    0    0 -0.19000528365E+02 -0.11528438634E+02 -0.30608361561E+02  0.37826021955E+02  0.10566000000E+00 0.  1.
         13    1    4    4    0    0  0.36182153546E+01  0.25351267548E+01  0.40294254301E+01  0.59804500957E+01  0.10566000000E+00 0.  1.
        -13    1    4    4    0    0  0.68609555408E+00  0.68172862074E+00  0.83003238854E+00  0.12789053223E+01  0.10566000000E+00 0.  1.
         14    1    4    4    0    0  0.14696217456E+02  0.83115832586E+01  0.18441371506E+02  0.25002907967E+02  0.00000000000E+00 0. -1.
<mgrwt>
<rscale>  0 0.69706296E+02</rscale>
<asrwt>0</asrwt>
<pdfrwt beam="1">  1        2 0.48292886E-02 0.69706296E+02</pdfrwt>
<pdfrwt beam="2">  1       -1 0.59535245E-02 0.69706296E+02</pdfrwt>
<totfact> 0.19859406E+05</totfact>
</mgrwt>
</event>
<event>
 8    1  0.1627221E-013  0.7303856E+02  0.7818608E-02  0.1350055E+00
         -1   -1    0    0    0  501 -0.00000000000E+00  0.00000000000E+00  0.26622436038E+02  0.26622436515E+02  0.50400000000E-02 0.  1.
          2   -1    0    0  501    0  0.00000000000E+00 -0.00000000000E+00 -0.50095261433E+02  0.50095261498E+02  0.25500000000E-02 0. -1.
         24    2    1    2    0    0  0.00000000000E+00  0.00000000000E+00 -0.23472825395E+02  0.76717698012E+02  0.73038562803E+02 0.  0.
         66    2    3    3    0    0  0.14416597701E+02 -0.33148518375E+02 -0.64943218705E+01  0.36780956712E+02  0.20000001016E+01 0.  0.
        -13    1    3    3    0    0 -0.14416597701E+02  0.33148518375E+02 -0.16978503525E+02  0.39936741300E+02  0.10566000000E+00 0.  1.
         13    1    4    4    0    0  0.12968507653E+02 -0.28770899945E+02 -0.57918040866E+01  0.32085869679E+02  0.10566000000E+00 0. -1.
        -13    1    4    4    0    0  0.17828141085E+00 -0.11107886686E+01 -0.28520152413E+00  0.11653924973E+01  0.10566000000E+00 0.  1.
        -14    1    4    4    0    0  0.12698086366E+01 -0.32668297606E+01 -0.41731625974E+00  0.35296945362E+01  0.00000000000E+00 0.  1.
<mgrwt>
<rscale>  0 0.73038563E+02</rscale>
<asrwt>0</asrwt>
<pdfrwt beam="1">  1        2 0.77069633E-02 0.73038563E+02</pdfrwt>
<pdfrwt beam="2">  1       -1 0.40957595E-02 0.73038563E+02</pdfrwt>
<totfact> 0.19148374E+05</totfact>
</mgrwt>
</event>
<event>
 8    1  0.1627221E-013  0.7643207E+02  0.7818608E-02  0.1339493E+00
          2   -1    0    0  501    0  0.00000000000E+00  0.00000000000E+00  0.56585611379E+02  0.56585611437E+02  0.25500000000E-02 0. -1.
         -1   -1    0    0    0  501 -0.00000000000E+00 -0.00000000000E+00 -0.25809835447E+02  0.25809835939E+02  0.50400000000E-02 0.  1.
         24    2    1    2    0    0  0.00000000000E+00  0.00000000000E+00  0.30775775933E+02  0.82395447375E+02  0.76432070258E+02 0.  0.
         66    2    3    3    0    0  0.10010803401E+01  0.30275215533E+02  0.40469523090E+02  0.50590247558E+02  0.20000028556E+01 0.  0.
        -13    1    3    3    0    0 -0.10010803401E+01 -0.30275215533E+02 -0.96937471577E+01  0.31805199817E+02  0.10566000000E+00 0.  1.
         13    1    4    4    0    0  0.22886392514E+00  0.11340882536E+02  0.15765302935E+02  0.19422253630E+02  0.10566000000E+00 0. -1.
        -13    1    4    4    0    0  0.10306772671E+00  0.12233821727E+02  0.15012518203E+02  0.19366566135E+02  0.10566000000E+00 0.  1.
        -14    1    4    4    0    0  0.66914868825E+00  0.67005112703E+01  0.96917019517E+01  0.11801427794E+02  0.00000000000E+00 0.  1.
<mgrwt>
<rscale>  0 0.76432070E+02</rscale>
<asrwt>0</asrwt>
<pdfrwt beam="1">  1        2 0.87054787E-02 0.76432070E+02</pdfrwt>
<pdfrwt beam="2">  1       -1 0.39707440E-02 0.76432070E+02</pdfrwt>
<totfact> 0.17386716E+05</totfact>
</mgrwt>
</event>
<event>
 8    1  0.1627221E-013  0.7925143E+02  0.7818608E-02  0.1331189E+00
         -1   -1    0    0    0  501 -0.00000000000E+00  0.00000000000E+00  0.37143296134E+01  0.37143330328E+01  0.50400000000E-02 0.  1.
          2   -1    0    0  501    0  0.00000000000E+00 -0.00000000000E+00 -0.42274018952E+03  0.42274018953E+03  0.25500000000E-02 0. -1.
         24    2    1    2    0    0  0.00000000000E+00  0.35527136788E-14 -0.41902585991E+03  0.42645452256E+03  0.79251426118E+02 0.  0.
         66    2    3    3    0    0 -0.10313342657E+02 -0.24187905635E+02 -0.36898021134E+03  0.36992136485E+03  0.19999998279E+01 0.  0.
        -13    1    3    3    0    0  0.10313342657E+02  0.24187905635E+02 -0.50045648570E+02  0.56533157709E+02  0.10566000000E+00 0.  1.
         13    1    4    4    0    0 -0.10066256421E+01 -0.37105856268E+01 -0.56296927531E+02  0.56428157460E+02  0.10566000000E+00 0. -1.
        -13    1    4    4    0    0 -0.13766275517E+01 -0.40476841480E+01 -0.59038541327E+02  0.59193237590E+02  0.10566000000E+00 0.  1.
         14    1    4    4    0    0 -0.79300894634E+01 -0.16429635861E+02 -0.25364474248E+03  0.25429996980E+03  0.00000000000E+00 0. -1.
<mgrwt>
<rscale>  0 0.79251426E+02</rscale>
<asrwt>0</asrwt>
<pdfrwt beam="1">  1        2 0.65036914E-01 0.79251426E+02</pdfrwt>
<pdfrwt beam="2">  1       -1 0.57143593E-03 0.79251426E+02</pdfrwt>
<totfact> 0.29515711E+05</totfact>
</mgrwt>
</event>
<event>
 8    1  0.1627221E-013  0.8053876E+02  0.7818608E-02  0.1327529E+00
         -1   -1    0    0    0  501 -0.00000000000E+00  0.00000000000E+00  0.23042107571E+01  0.23042162691E+01  0.50400000000E-02 0.  1.
          2   -1    0    0  501    0  0.00000000000E+00 -0.00000000000E+00 -0.70376422202E+03  0.70376422202E+03  0.25500000000E-02 0. -1.
         24    2    1    2    0    0  0.35527136788E-14  0.71054273576E-14 -0.70146001126E+03  0.70606843829E+03  0.80538761808E+02 0.  0.
         66    2    3    3    0    0  0.23515866251E+02  0.27731375165E+02 -0.50218097974E+03  0.50349951496E+03  0.20000031385E+01 0.  0.
        -13    1    3    3    0    0 -0.23515866251E+02 -0.27731375165E+02 -0.19927903151E+03  0.20256892333E+03  0.10566000000E+00 0.  1.
         13    1    4    4    0    0  0.42599752308E+00  0.48013956036E+00 -0.92797729679E+01  0.93025457945E+01  0.10566000000E+00 0. -1.
        -13    1    4    4    0    0  0.14920108459E+02  0.17653285032E+02 -0.33069208039E+03  0.33149888583E+03  0.10566000000E+00 0.  1.
        -14    1    4    4    0    0  0.81697602687E+01  0.95979505730E+01 -0.16220912638E+03  0.16269808333E+03  0.00000000000E+00 0.  1.
<mgrwt>
<rscale>  0 0.80538762E+02</rscale>
<asrwt>0</asrwt>
<pdfrwt beam="1">  1        2 0.10827125E+00 0.80538762E+02</pdfrwt>
<pdfrwt beam="2">  1       -1 0.35449495E-03 0.80538762E+02</pdfrwt>
<totfact> 0.32913114E+05</totfact>
</mgrwt>
</event>
<event>
 8    1  0.1627221E-013  0.7887537E+02  0.7818608E-02  0.1332274E+00
          2   -1    0    0  501    0  0.00000000000E+00  0.00000000000E+00  0.50788704058E+02  0.50788704122E+02  0.25500000000E-02 0. -1.
         -1   -1    0    0    0  501 -0.00000000000E+00 -0.00000000000E+00 -0.30623560126E+02  0.30623560540E+02  0.50400000000E-02 0.  1.
         24    2    1    2    0    0  0.35527136788E-14 -0.17763568394E-14  0.20165143933E+02  0.81412264663E+02  0.78875368827E+02 0.  0.
         66    2    3    3    0    0 -0.21205989076E+02  0.80545930332E+01  0.43355383587E+02  0.48972030063E+02  0.20000002113E+01 0.  0.
        -13    1    3    3    0    0  0.21205989076E+02 -0.80545930332E+01 -0.23190239655E+02  0.32440234600E+02  0.10566000000E+00 0.  1.
         13    1    4    4    0    0 -0.17909782797E+01  0.74178340312E+00  0.46685078633E+01  0.50560830215E+01  0.10566000000E+00 0. -1.
        -13    1    4    4    0    0 -0.17855472484E+02  0.68736768123E+01  0.36252442123E+02  0.40991658352E+02  0.10566000000E+00 0.  1.
        -14    1    4    4    0    0 -0.15595383122E+01  0.43913281775E+00  0.24344336014E+01  0.29242886893E+01  0.00000000000E+00 0.  1.
<mgrwt>
<rscale>  0 0.78875369E+02</rscale>
<asrwt>0</asrwt>
<pdfrwt beam="1">  1        2 0.78136468E-02 0.78875369E+02</pdfrwt>
<pdfrwt beam="2">  1       -1 0.47113170E-02 0.78875369E+02</pdfrwt>
<totfact> 0.15586064E+05</totfact>
</mgrwt>
</event>
<event>
 8    1  0.1627221E-013  0.7066316E+02  0.7818608E-02  0.1357852E+00
          2   -1    0    0  501    0  0.00000000000E+00  0.00000000000E+00  0.21847403065E+02  0.21847403214E+02  0.25500000000E-02 0. -1.
         -1   -1    0    0    0  501 -0.00000000000E+00 -0.00000000000E+00 -0.57138164930E+02  0.57138165153E+02  0.50400000000E-02 0.  1.
         24    2    1    2    0    0  0.00000000000E+00 -0.88817841970E-15 -0.35290761865E+02  0.78985568367E+02  0.70663159689E+02 0.  0.
         66    2    3    3    0    0  0.28027334973E+02 -0.77595721717E+01  0.47120528425E+01  0.29528730473E+02  0.20000038397E+01 0.  0.
        -13    1    3    3    0    0 -0.28027334973E+02  0.77595721717E+01 -0.40002814707E+02  0.49456837894E+02  0.10566000000E+00 0.  1.
         13    1    4    4    0    0  0.19956288243E+02 -0.57702247906E+01  0.33064419001E+01  0.21035509422E+02  0.10566000000E+00 0. -1.
        -13    1    4    4    0    0  0.16963394957E+01 -0.23033716135E-01  0.40681530864E+00  0.17477874492E+01  0.10566000000E+00 0.  1.
        -14    1    4    4    0    0  0.63747072340E+01 -0.19663136649E+01  0.99879563376E+00  0.67454336010E+01  0.00000000000E+00 0.  1.
<mgrwt>
<rscale>  0 0.70663160E+02</rscale>
<asrwt>0</asrwt>
<pdfrwt beam="1">  1        2 0.33611390E-02 0.70663160E+02</pdfrwt>
<pdfrwt beam="2">  1       -1 0.87904870E-02 0.70663160E+02</pdfrwt>
<totfact> 0.17930749E+05</totfact>
</mgrwt>
</event>
<event>
 8    1  0.1627221E-013  0.7782565E+02  0.7818608E-02  0.1335338E+00
         -1   -1    0    0    0  501 -0.00000000000E+00  0.00000000000E+00  0.38206174710E+03  0.38206174713E+03  0.50400000000E-02 0.  1.
          2   -1    0    0  501    0  0.00000000000E+00 -0.00000000000E+00 -0.39632537719E+01  0.39632545923E+01  0.25500000000E-02 0. -1.
         24    2    1    2    0    0  0.00000000000E+00 -0.71054273576E-14  0.37809849333E+03  0.38602500173E+03  0.77825646802E+02 0.  0.
         66    2    3    3    0    0 -0.42999677548E+01 -0.38608649510E+02  0.18046119429E+03  0.18460595924E+03  0.20000009010E+01 0.  0.
        -13    1    3    3    0    0  0.42999677548E+01  0.38608649510E+02  0.19763729904E+03  0.20141904248E+03  0.10566000000E+00 0.  1.
         13    1    4    4    0    0 -0.93315317768E+00 -0.14985125645E+02  0.70239977923E+02  0.71826808561E+02  0.10566000000E+00 0. -1.
        -13    1    4    4    0    0 -0.30976669753E+00 -0.32825647667E+01  0.13893654259E+02  0.14279915250E+02  0.10566000000E+00 0.  1.
         14    1    4    4    0    0 -0.30570478795E+01 -0.20340959098E+02  0.96327562110E+02  0.98499235433E+02  0.00000000000E+00 0. -1.
<mgrwt>
<rscale>  0 0.77825647E+02</rscale>
<asrwt>0</asrwt>
<pdfrwt beam="1">  1        2 0.60973115E-03 0.77825647E+02</pdfrwt>
<pdfrwt beam="2">  1       -1 0.58778756E-01 0.77825647E+02</pdfrwt>
<totfact> 0.83264820E+04</totfact>
</mgrwt>
</event>
<event>
 8    1  0.1627221E-013  0.7968219E+02  0.7818608E-02  0.1329956E+00
          2   -1    0    0  501    0  0.00000000000E+00  0.00000000000E+00  0.32952574218E+03  0.32952574218E+03  0.25500000000E-02 0. -1.
         -1   -1    0    0    0  501 -0.00000000000E+00 -0.00000000000E+00 -0.48169597457E+01  0.48169623824E+01  0.50400000000E-02 0.  1.
         24    2    1    2    0    0  0.00000000000E+00  0.17763568394E-14  0.32470878243E+03  0.33434270457E+03  0.79682185654E+02 0.  0.
         66    2    3    3    0    0  0.30760743349E+02 -0.11648588294E+02  0.25659872380E+03  0.25870604553E+03  0.19999985638E+01 0.  0.
        -13    1    3    3    0    0 -0.30760743349E+02  0.11648588294E+02  0.68110058625E+02  0.75636659039E+02  0.10566000000E+00 0.  1.
         13    1    4    4    0    0  0.68831583227E+01 -0.27402096948E+01  0.61737332612E+02  0.62180350752E+02  0.10566000000E+00 0. -1.
        -13    1    4    4    0    0  0.16124599713E+02 -0.53892815147E+01  0.13188195811E+03  0.13297333985E+03  0.10566000000E+00 0.  1.
        -14    1    4    4    0    0  0.77529853133E+01 -0.35190970842E+01  0.62979433079E+02  0.63552354925E+02  0.00000000000E+00 0.  1.
<mgrwt>
<rscale>  0 0.79682186E+02</rscale>
<asrwt>0</asrwt>
<pdfrwt beam="1">  1        2 0.50696262E-01 0.79682186E+02</pdfrwt>
<pdfrwt beam="2">  1       -1 0.74107103E-03 0.79682186E+02</pdfrwt>
<totfact> 0.26649756E+05</totfact>
</mgrwt>
</event>
<event>
 8    1  0.1627221E-013  0.8003315E+02  0.7818608E-02  0.1328957E+00
         -1   -1    0    0    0  501 -0.00000000000E+00  0.00000000000E+00  0.13036076523E+03  0.13036076532E+03  0.50400000000E-02 0.  1.
          2   -1    0    0  501    0  0.00000000000E+00 -0.00000000000E+00 -0.12283806081E+02  0.12283806346E+02  0.25500000000E-02 0. -1.
         24    2    1    2    0    0  0.00000000000E+00  0.00000000000E+00  0.11807695914E+03  0.14264457167E+03  0.80033152791E+02 0.  0.
         66    2    3    3    0    0  0.18552383222E+02  0.20718455500E+02  0.78548677580E+01  0.28967986942E+02  0.19999996179E+01 0.  0.
        -13    1    3    3    0    0 -0.18552383222E+02 -0.20718455500E+02  0.11022209139E+03  0.11367658473E+03  0.10566000000E+00 0.  1.
         13    1    4    4    0    0  0.63665430403E+01  0.83153574279E+01  0.27459577446E+01  0.10827256689E+02  0.10566000000E+00 0.  1.
        -13    1    4    4    0    0  0.57844259757E+01  0.58841636286E+01  0.28378658843E+01  0.87262599256E+01  0.10566000000E+00 0. -1.
         14    1    4    4    0    0  0.64014142056E+01  0.65189344433E+01  0.22710441290E+01  0.94144703273E+01  0.00000000000E+00 0. -1.
<mgrwt>
<rscale>  0 0.80033153E+02</rscale>
<asrwt>0</asrwt>
<pdfrwt beam="1">  1        2 0.18898164E-02 0.80033153E+02</pdfrwt>
<pdfrwt beam="2">  1       -1 0.20055502E-01 0.80033153E+02</pdfrwt>
<totfact> 0.11154758E+05</totfact>
</mgrwt>
</event>
<event>
 8    1  0.1627221E-013  0.8079726E+02  0.7818608E-02  0.1326804E+00
         -1   -1    0    0    0  501 -0.00000000000E+00  0.00000000000E+00  0.25208795579E+01  0.25208845962E+01  0.50400000000E-02 0.  1.
          2   -1    0    0  501    0  0.00000000000E+00 -0.00000000000E+00 -0.64741197082E+03  0.64741197082E+03  0.25500000000E-02 0. -1.
         24    2    1    2    0    0 -0.35527136788E-14 -0.17763568394E-14 -0.64489109126E+03  0.64993285542E+03  0.80797258411E+02 0.  0.
         66    2    3    3    0    0  0.13416421918E+02  0.91674908781E+01 -0.61994425410E+03  0.62016039979E+03  0.20000012667E+01 0.  0.
        -13    1    3    3    0    0 -0.13416421918E+02 -0.91674908781E+01 -0.24946837159E+02  0.29772455632E+02  0.10566000000E+00 0.  1.
         13    1    4    4    0    0  0.56336200234E+01  0.33252440494E+01 -0.26401181163E+03  0.26409286769E+03  0.10566000000E+00 0. -1.
        -13    1    4    4    0    0  0.17970997764E+01  0.11452300783E+01 -0.96271820479E+02  0.96295460443E+02  0.10566000000E+00 0.  1.
         14    1    4    4    0    0  0.59857021186E+01  0.46970167504E+01 -0.25966062199E+03  0.25977207165E+03  0.00000000000E+00 0. -1.
<mgrwt>
<rscale>  0 0.80797258E+02</rscale>
<asrwt>0</asrwt>
<pdfrwt beam="1">  1        2 0.99601709E-01 0.80797258E+02</pdfrwt>
<pdfrwt beam="2">  1       -1 0.38782853E-03 0.80797258E+02</pdfrwt>
<totfact> 0.31987792E+05</totfact>
</mgrwt>
</event>
<event>
 8    1  0.1627221E-013  0.8442736E+02  0.7818608E-02  0.1316937E+00
          2   -1    0    0  501    0  0.00000000000E+00  0.00000000000E+00  0.31520250491E+03  0.31520250492E+03  0.25500000000E-02 0. -1.
         -1   -1    0    0    0  501 -0.00000000000E+00 -0.00000000000E+00 -0.56534905629E+01  0.56534928095E+01  0.50400000000E-02 0.  1.
         24    2    1    2    0    0  0.44408920985E-15  0.35527136788E-14  0.30954901434E+03  0.32085599773E+03  0.84427359285E+02 0.  0.
         66    2    3    3    0    0 -0.32654884379E+01 -0.28884479194E+02  0.27106906432E+03  0.27263054521E+03  0.19999985662E+01 0.  0.
        -13    1    3    3    0    0  0.32654884379E+01  0.28884479194E+02  0.38479950023E+02  0.48225452521E+02  0.10566000000E+00 0.  1.
         13    1    4    4    0    0 -0.10586581577E+01 -0.16259707712E+02  0.14853857666E+03  0.14942964489E+03  0.10566000000E+00 0.  1.
        -13    1    4    4    0    0 -0.15467492330E+01 -0.10302583116E+02  0.98533124779E+02  0.99082407594E+02  0.10566000000E+00 0. -1.
        -14    1    4    4    0    0 -0.66008104722E+00 -0.23221883660E+01  0.23997362882E+02  0.24118492721E+02  0.00000000000E+00 0.  1.
<mgrwt>
<rscale>  0 0.84427359E+02</rscale>
<asrwt>0</asrwt>
<pdfrwt beam="1">  1        2 0.48492689E-01 0.84427359E+02</pdfrwt>
<pdfrwt beam="2">  1       -1 0.86976802E-03 0.84427359E+02</pdfrwt>
<totfact> 0.22529712E+05</totfact>
</mgrwt>
</event>
<event>
 8    1  0.1627221E-013  0.8003401E+02  0.7818608E-02  0.1328955E+00
          2   -1    0    0  501    0  0.00000000000E+00  0.00000000000E+00  0.19065756333E+03  0.19065756334E+03  0.25500000000E-02 0. -1.
         -1   -1    0    0    0  501 -0.00000000000E+00 -0.00000000000E+00 -0.83991460280E+01  0.83991475402E+01  0.50400000000E-02 0.  1.
         24    2    1    2    0    0  0.00000000000E+00  0.00000000000E+00  0.18225841730E+03  0.19905671089E+03  0.80034014467E+02 0.  0.
         66    2    3    3    0    0  0.38332611401E+02 -0.96303445351E+01  0.76011628417E+02  0.85696559400E+02  0.20000014411E+01 0.  0.
        -13    1    3    3    0    0 -0.38332611401E+02  0.96303445351E+01  0.10624678888E+03  0.11336015148E+03  0.10566000000E+00 0.  1.
         13    1    4    4    0    0  0.54442023297E+01 -0.16872836355E+01  0.10153916694E+02  0.11644717830E+02  0.10566000000E+00 0. -1.
        -13    1    4    4    0    0  0.16330838592E+02 -0.33279546141E+01  0.32956181632E+02  0.36930917168E+02  0.10566000000E+00 0.  1.
        -14    1    4    4    0    0  0.16557570480E+02 -0.46151062855E+01  0.32901530091E+02  0.37120924403E+02  0.00000000000E+00 0.  1.
<mgrwt>
<rscale>  0 0.80034014E+02</rscale>
<asrwt>0</asrwt>
<pdfrwt beam="1">  1        2 0.29331931E-01 0.80034014E+02</pdfrwt>
<pdfrwt beam="2">  1       -1 0.12921765E-02 0.80034014E+02</pdfrwt>
<totfact> 0.21672481E+05</totfact>
</mgrwt>
</event>
<event>
 8    1  0.1627221E-013  0.7960910E+02  0.7818608E-02  0.1330164E+00
         -1   -1    0    0    0  501 -0.00000000000E+00  0.00000000000E+00  0.60238936021E+02  0.60238936232E+02  0.50400000000E-02 0.  1.
          2   -1    0    0  501    0  0.00000000000E+00 -0.00000000000E+00 -0.26301960743E+02  0.26301960866E+02  0.25500000000E-02 0. -1.
         24    2    1    2    0    0  0.00000000000E+00  0.00000000000E+00  0.33936975278E+02  0.86540897098E+02  0.79609098598E+02 0.  0.
         66    2    3    3    0    0 -0.23690529791E+02 -0.19939302207E+01 -0.17691135901E+02  0.29701738171E+02  0.20000003487E+01 0.  0.
        -13    1    3    3    0    0  0.23690529791E+02  0.19939302207E+01  0.51628111180E+02  0.56839158927E+02  0.10566000000E+00 0.  1.
         13    1    4    4    0    0 -0.10544271370E+02 -0.14047992684E+01 -0.70033814701E+01  0.12736311702E+02  0.10566000000E+00 0. -1.
        -13    1    4    4    0    0 -0.16400309459E+01  0.43875202488E-01 -0.11437027201E+01  0.20027097854E+01  0.10566000000E+00 0.  1.
        -14    1    4    4    0    0 -0.11506227475E+02 -0.63300615483E+00 -0.95440517112E+01  0.14962716684E+02  0.00000000000E+00 0.  1.
<mgrwt>
<rscale>  0 0.79609099E+02</rscale>
<asrwt>0</asrwt>
<pdfrwt beam="1">  1        2 0.40464555E-02 0.79609099E+02</pdfrwt>
<pdfrwt beam="2">  1       -1 0.92675287E-02 0.79609099E+02</pdfrwt>
<totfact> 0.13293470E+05</totfact>
</mgrwt>
</event>
<event>
 8    1  0.1627221E-013  0.8329411E+02  0.7818608E-02  0.1319955E+00
          2   -1    0    0  501    0  0.00000000000E+00  0.00000000000E+00  0.50088740971E+02  0.50088741036E+02  0.25500000000E-02 0. -1.
         -1   -1    0    0    0  501 -0.00000000000E+00 -0.00000000000E+00 -0.34628081210E+02  0.34628081577E+02  0.50400000000E-02 0.  1.
         24    2    1    2    0    0  0.11102230246E-15 -0.71054273576E-14  0.15460659761E+02  0.84716822613E+02  0.83294105635E+02 0.  0.
         66    2    3    3    0    0 -0.69471142515E+00  0.37838909403E+02  0.25357184135E+02  0.45598821035E+02  0.20000009306E+01 0.  0.
        -13    1    3    3    0    0  0.69471142515E+00 -0.37838909403E+02 -0.98965243745E+01  0.39118001579E+02  0.10566000000E+00 0.  1.
         13    1    4    4    0    0 -0.72736751580E-01  0.17827240166E+02  0.11510341081E+02  0.21220624364E+02  0.10566000000E+00 0. -1.
        -13    1    4    4    0    0 -0.65388049515E+00  0.13327158392E+02  0.85311679486E+01  0.15837698731E+02  0.10566000000E+00 0.  1.
        -14    1    4    4    0    0  0.31905821582E-01  0.66845108456E+01  0.53156751060E+01  0.85404979398E+01  0.00000000000E+00 0.  1.
<mgrwt>
<rscale>  0 0.83294106E+02</rscale>
<asrwt>0</asrwt>
<pdfrwt beam="1">  1        2 0.77059601E-02 0.83294106E+02</pdfrwt>
<pdfrwt beam="2">  1       -1 0.53273972E-02 0.83294106E+02</pdfrwt>
<totfact> 0.13380291E+05</totfact>
</mgrwt>
</event>
<event>
 8    1  0.1627221E-013  0.7998591E+02  0.7818608E-02  0.1329091E+00
          2   -1    0    0  501    0  0.00000000000E+00  0.00000000000E+00  0.53128004358E+01  0.53128010477E+01  0.25500000000E-02 0. -1.
         -1   -1    0    0    0  501 -0.00000000000E+00 -0.00000000000E+00 -0.30105334035E+03  0.30105334039E+03  0.50400000000E-02 0.  1.
         24    2    1    2    0    0  0.00000000000E+00  0.00000000000E+00 -0.29574053991E+03  0.30636614144E+03  0.79985909209E+02 0.  0.
         66    2    3    3    0    0 -0.38807765030E+02  0.95182153791E+01 -0.15137204790E+03  0.15656990751E+03  0.19999999780E+01 0.  0.
        -13    1    3    3    0    0  0.38807765030E+02 -0.95182153791E+01 -0.14436849201E+03  0.14979623393E+03  0.10566000000E+00 0.  1.
         13    1    4    4    0    0 -0.18324012644E+02  0.49175762969E+01 -0.69406004983E+02  0.71952461304E+02  0.10566000000E+00 0. -1.
        -13    1    4    4    0    0 -0.12455765068E+02  0.32412536072E+01 -0.50888503446E+02  0.52490977847E+02  0.10566000000E+00 0.  1.
         14    1    4    4    0    0 -0.80279873185E+01  0.13593854751E+01 -0.31077539475E+02  0.32126468357E+02  0.00000000000E+00 0. -1.
<mgrwt>
<rscale>  0 0.79985909E+02</rscale>
<asrwt>0</asrwt>
<pdfrwt beam="1">  1        2 0.81735420E-03 0.79985909E+02</pdfrwt>
<pdfrwt beam="2">  1       -1 0.46315885E-01 0.79985909E+02</pdfrwt>
<totfact> 0.86348597E+04</totfact>
</mgrwt>
</event>
<event>
 8    1  0.1627221E-013  0.8024842E+02  0.7818608E-02  0.1328348E+00
          2   -1    0    0  501    0  0.00000000000E+00  0.00000000000E+00  0.71531504294E+01  0.71531508839E+01  0.25500000000E-02 0. -1.
         -1   -1    0    0    0  501 -0.00000000000E+00 -0.00000000000E+00 -0.22506898833E+03  0.22506898839E+03  0.50400000000E-02 0.  1.
         24    2    1    2    0    0  0.00000000000E+00  0.00000000000E+00 -0.21791583790E+03  0.23222213927E+03  0.80248424030E+02 0.  0.
         66    2    3    3    0    0 -0.29305910950E+01 -0.36930040412E+02 -0.15343648533E+03  0.15785807321E+03  0.19999995856E+01 0.  0.
        -13    1    3    3    0    0  0.29305910950E+01  0.36930040412E+02 -0.64479352571E+02  0.74364066060E+02  0.10566000000E+00 0.  1.
         13    1    4    4    0    0 -0.23568988382E+01 -0.22737441340E+02 -0.93179395572E+02  0.95942467834E+02  0.10566000000E+00 0. -1.
        -13    1    4    4    0    0 -0.39806845261E+00 -0.13728343817E+02 -0.57878701850E+02  0.59485974602E+02  0.10566000000E+00 0.  1.
         14    1    4    4    0    0 -0.17562380425E+00 -0.46425525540E+00 -0.23783879070E+01  0.24296307742E+01  0.00000000000E+00 0. -1.
<mgrwt>
<rscale>  0 0.80248424E+02</rscale>
<asrwt>0</asrwt>
<pdfrwt beam="1">  1        2 0.11004849E-02 0.80248424E+02</pdfrwt>
<pdfrwt beam="2">  1       -1 0.34625993E-01 0.80248424E+02</pdfrwt>
<totfact> 0.95214596E+04</totfact>
</mgrwt>
</event>
<event>
 8    1  0.1627221E-013  0.7942910E+02  0.7818608E-02  0.1330679E+00
          2   -1    0    0  501    0  0.00000000000E+00  0.00000000000E+00  0.90989269816E+01  0.90989273390E+01  0.25500000000E-02 0. -1.
         -1   -1    0    0    0  501 -0.00000000000E+00 -0.00000000000E+00 -0.17334410649E+03  0.17334410657E+03  0.50400000000E-02 0.  1.
         24    2    1    2    0    0  0.00000000000E+00  0.00000000000E+00 -0.16424517951E+03  0.18244303391E+03  0.79429098118E+02 0.  0.
         66    2    3    3    0    0  0.10050197918E+01  0.39584243511E+02 -0.75960879408E+02  0.85685340630E+02  0.19999998314E+01 0.  0.
        -13    1    3    3    0    0 -0.10050197918E+01 -0.39584243511E+02 -0.88284300105E+02  0.96757693276E+02  0.10566000000E+00 0.  1.
         13    1    4    4    0    0  0.97116909124E+00  0.28780626475E+02 -0.54208096240E+02  0.61382379326E+02  0.10566000000E+00 0. -1.
        -13    1    4    4    0    0  0.60076505937E-01  0.17742746844E+01 -0.29518454204E+01  0.34461885125E+01  0.10566000000E+00 0.  1.
         14    1    4    4    0    0 -0.26225805372E-01  0.90293423518E+01 -0.18800937748E+02  0.20856772792E+02  0.00000000000E+00 0. -1.
<mgrwt>
<rscale>  0 0.79429098E+02</rscale>
<asrwt>0</asrwt>
<pdfrwt beam="1">  1        2 0.13998351E-02 0.79429098E+02</pdfrwt>
<pdfrwt beam="2">  1       -1 0.26668322E-01 0.79429098E+02</pdfrwt>
<totfact> 0.10571577E+05</totfact>
</mgrwt>
</event>
<event>
 8    1  0.1627221E-013  0.8111080E+02  0.7818608E-02  0.1325928E+00
         -1   -1    0    0    0  501 -0.00000000000E+00  0.00000000000E+00  0.18164634883E+03  0.18164634890E+03  0.50400000000E-02 0.  1.
          2   -1    0    0  501    0  0.00000000000E+00 -0.00000000000E+00 -0.90546287253E+01  0.90546290844E+01  0.25500000000E-02 0. -1.
         24    2    1    2    0    0  0.88817841970E-15  0.00000000000E+00  0.17259172011E+03  0.19070097799E+03  0.81110795555E+02 0.  0.
         66    2    3    3    0    0  0.73064602008E+01  0.33217488361E+02  0.34519543863E+02  0.48501389695E+02  0.20000000342E+01 0.  0.
        -13    1    3    3    0    0 -0.73064602008E+01 -0.33217488361E+02  0.13807217624E+03  0.14219958829E+03  0.10566000000E+00 0.  1.
         13    1    4    4    0    0  0.76814400687E+00  0.45050381670E+01  0.45341740035E+01  0.64385799701E+01  0.10566000000E+00 0. -1.
        -13    1    4    4    0    0  0.82732235280E+00  0.24267520241E+01  0.32050966695E+01  0.41057759752E+01  0.10566000000E+00 0.  1.
         14    1    4    4    0    0  0.57109938412E+01  0.26285698170E+02  0.26780273190E+02  0.37957033750E+02  0.00000000000E+00 0. -1.
<mgrwt>
<rscale>  0 0.81110796E+02</rscale>
<asrwt>0</asrwt>
<pdfrwt beam="1">  1        2 0.13930199E-02 0.81110796E+02</pdfrwt>
<pdfrwt beam="2">  1       -1 0.27945590E-01 0.81110796E+02</pdfrwt>
<totfact> 0.98931476E+04</totfact>
</mgrwt>
</event>
<event>
 8    1  0.1627221E-013  0.7941041E+02  0.7818608E-02  0.1330733E+00
          2   -1    0    0  501    0  0.00000000000E+00  0.00000000000E+00  0.10557732168E+04  0.10557732168E+04  0.25500000000E-02 0. -1.
         -1   -1    0    0    0  501 -0.00000000000E+00 -0.00000000000E+00 -0.14932173521E+01  0.14932258577E+01  0.50400000000E-02 0.  1.
         24    2    1    2    0    0 -0.88817841970E-15  0.00000000000E+00  0.10542799995E+04  0.10572664427E+04  0.79410412044E+02 0.  0.
         66    2    3    3    0    0  0.62008781986E+01  0.25044167030E+02  0.92884819675E+03  0.92920860618E+03  0.19999994288E+01 0.  0.
        -13    1    3    3    0    0 -0.62008781986E+01 -0.25044167030E+02  0.12543180273E+03  0.12805783651E+03  0.10566000000E+00 0.  1.
         13    1    4    4    0    0  0.54101046129E+00  0.44511399895E+01  0.15148592381E+03  0.15155230653E+03  0.10566000000E+00 0. -1.
        -13    1    4    4    0    0  0.14229544901E+00  0.89288593922E+00  0.39305625247E+02  0.39316165039E+02  0.10566000000E+00 0.  1.
        -14    1    4    4    0    0  0.55175722883E+01  0.19700141101E+02  0.73805664769E+03  0.73834013461E+03  0.00000000000E+00 0.  1.
<mgrwt>
<rscale>  0 0.79410412E+02</rscale>
<asrwt>0</asrwt>
<pdfrwt beam="1">  1        2 0.16242670E+00 0.79410412E+02</pdfrwt>
<pdfrwt beam="2">  1       -1 0.22972633E-03 0.79410412E+02</pdfrwt>
<totfact> 0.35957032E+05</totfact>
</mgrwt>
</event>
<event>
 8    1  0.1627221E-013  0.7880628E+02  0.7818608E-02  0.1332474E+00
         -1   -1    0    0    0  501 -0.00000000000E+00  0.00000000000E+00  0.91827358998E+01  0.91827372829E+01  0.50400000000E-02 0.  1.
          2   -1    0    0  501    0  0.00000000000E+00 -0.00000000000E+00 -0.16907894786E+03  0.16907894788E+03  0.25500000000E-02 0. -1.
         24    2    1    2    0    0  0.00000000000E+00  0.88817841970E-15 -0.15989621196E+03  0.17826168516E+03  0.78806280191E+02 0.  0.
         66    2    3    3    0    0 -0.28504120426E+02  0.71576885427E+01 -0.13928369194E+03  0.14236454695E+03  0.19999999215E+01 0.  0.
        -13    1    3    3    0    0  0.28504120426E+02 -0.71576885427E+01 -0.20612520017E+02  0.35897138215E+02  0.10566000000E+00 0.  1.
         13    1    4    4    0    0 -0.26421393766E+02  0.64550221943E+01 -0.12676814411E+03  0.12965311753E+03  0.10566000000E+00 0. -1.
        -13    1    4    4    0    0 -0.18202568436E+01  0.52658200512E+00 -0.11094960125E+02  0.11256106244E+02  0.10566000000E+00 0. -1.
         14    1    4    4    0    0 -0.26246981581E+00  0.17608434324E+00 -0.14205877057E+01  0.14553231702E+01  0.00000000000E+00 0. -1.
<mgrwt>
<rscale>  0 0.78806280E+02</rscale>
<asrwt>0</asrwt>
<pdfrwt beam="1">  1        2 0.26012144E-01 0.78806280E+02</pdfrwt>
<pdfrwt beam="2">  1       -1 0.14127288E-02 0.78806280E+02</pdfrwt>
<totfact> 0.21676633E+05</totfact>
</mgrwt>
</event>
<event>
 8    1  0.1627221E-013  0.8101002E+02  0.7818608E-02  0.1326209E+00
          2   -1    0    0  501    0  0.00000000000E+00  0.00000000000E+00  0.13298488363E+03  0.13298488366E+03  0.25500000000E-02 0. -1.
         -1   -1    0    0    0  501 -0.00000000000E+00 -0.00000000000E+00 -0.12337158912E+02  0.12337159941E+02  0.50400000000E-02 0.  1.
         24    2    1    2    0    0  0.00000000000E+00 -0.55511151231E-16  0.12064772472E+03  0.14532204360E+03  0.81010017129E+02 0.  0.
         66    2    3    3    0    0 -0.13931172506E+02 -0.27758334737E+00  0.12853958061E+03  0.12930807553E+03  0.19999984509E+01 0.  0.
        -13    1    3    3    0    0  0.13931172506E+02  0.27758334737E+00 -0.78918558891E+01  0.16013968069E+02  0.10566000000E+00 0.  1.
         13    1    4    4    0    0 -0.94359353404E+01 -0.10143856251E+00  0.79742050845E+02  0.80298524286E+02  0.10566000000E+00 0. -1.
        -13    1    4    4    0    0 -0.16627086475E+01 -0.47556788100E-01  0.21764112702E+02  0.21827840649E+02  0.10566000000E+00 0.  1.
        -14    1    4    4    0    0 -0.28325285177E+01 -0.12858799675E+00  0.27033417065E+02  0.27181710596E+02  0.00000000000E+00 0.  1.
<mgrwt>
<rscale>  0 0.81010017E+02</rscale>
<asrwt>0</asrwt>
<pdfrwt beam="1">  1        2 0.20459211E-01 0.81010017E+02</pdfrwt>
<pdfrwt beam="2">  1       -1 0.18980247E-02 0.81010017E+02</pdfrwt>
<totfact> 0.18648056E+05</totfact>
</mgrwt>
</event>
<event>
 8    1  0.1627221E-013  0.8215185E+02  0.7818608E-02  0.1323053E+00
         -1   -1    0    0    0  501 -0.00000000000E+00  0.00000000000E+00  0.44243547649E+01  0.44243576355E+01  0.50400000000E-02 0.  1.
          2   -1    0    0  501    0  0.00000000000E+00 -0.00000000000E+00 -0.38135074513E+03  0.38135074514E+03  0.25500000000E-02 0. -1.
         24    2    1    2    0    0  0.00000000000E+00  0.00000000000E+00 -0.37692639037E+03  0.38577510277E+03  0.82151848224E+02 0.  0.
         66    2    3    3    0    0  0.87393337141E+01 -0.21036577653E+02 -0.34894505773E+03  0.34969353278E+03  0.20000004091E+01 0.  0.
        -13    1    3    3    0    0 -0.87393337141E+01  0.21036577653E+02 -0.27981332638E+02  0.36081569996E+02  0.10566000000E+00 0.  1.
         13    1    4    4    0    0  0.55039581086E+00 -0.18624604902E+01 -0.28986065285E+02  0.29051245057E+02  0.10566000000E+00 0. -1.
        -13    1    4    4    0    0  0.12523957629E+01 -0.17691593502E+01 -0.37144620114E+02  0.37207961344E+02  0.10566000000E+00 0.  1.
        -14    1    4    4    0    0  0.69365421403E+01 -0.17404957813E+02 -0.28281437233E+03  0.28343432638E+03  0.00000000000E+00 0.  1.
<mgrwt>
<rscale>  0 0.82151848E+02</rscale>
<asrwt>0</asrwt>
<pdfrwt beam="1">  1        2 0.58669320E-01 0.82151848E+02</pdfrwt>
<pdfrwt beam="2">  1       -1 0.68067049E-03 0.82151848E+02</pdfrwt>
<totfact> 0.25918695E+05</totfact>
</mgrwt>
</event>
<event>
 8    1  0.1627221E-013  0.7983038E+02  0.7818608E-02  0.1329533E+00
         -1   -1    0    0    0  501 -0.00000000000E+00  0.00000000000E+00  0.74359153510E+02  0.74359153681E+02  0.50400000000E-02 0.  1.
          2   -1    0    0  501    0  0.00000000000E+00 -0.00000000000E+00 -0.21426044628E+02  0.21426044780E+02  0.25500000000E-02 0. -1.
         24    2    1    2    0    0  0.00000000000E+00 -0.17763568394E-14  0.52933108881E+02  0.95785198461E+02  0.79830384117E+02 0.  0.
         66    2    3    3    0    0  0.10689705855E+02 -0.13237998444E+02 -0.16806738633E+02  0.23999601650E+02  0.20000004596E+01 0.  0.
        -13    1    3    3    0    0 -0.10689705855E+02  0.13237998444E+02  0.69739847514E+02  0.71785596810E+02  0.10566000000E+00 0.  1.
         13    1    4    4    0    0  0.19294494765E+01 -0.18846310319E+01 -0.20817535299E+01  0.34087345458E+01  0.10566000000E+00 0. -1.
        -13    1    4    4    0    0  0.52736681236E+01 -0.63573957037E+01 -0.92269902313E+01  0.12384529397E+02  0.10566000000E+00 0.  1.
        -14    1    4    4    0    0  0.34865882547E+01 -0.49959717083E+01 -0.54979948717E+01  0.82063377079E+01  0.00000000000E+00 0.  1.
<mgrwt>
<rscale>  0 0.79830384E+02</rscale>
<asrwt>0</asrwt>
<pdfrwt beam="1">  1        2 0.32963146E-02 0.79830384E+02</pdfrwt>
<pdfrwt beam="2">  1       -1 0.11439870E-01 0.79830384E+02</pdfrwt>
<totfact> 0.12665551E+05</totfact>
</mgrwt>
</event>
<event>
 8    1  0.1627221E-013  0.7898860E+02  0.7818608E-02  0.1331946E+00
          2   -1    0    0  501    0  0.00000000000E+00  0.00000000000E+00  0.69010258100E+01  0.69010262811E+01  0.25500000000E-02 0. -1.
         -1   -1    0    0    0  501 -0.00000000000E+00 -0.00000000000E+00 -0.22602432999E+03  0.22602433005E+03  0.50400000000E-02 0.  1.
         24    2    1    2    0    0  0.35527136788E-14  0.17763568394E-14 -0.21912330418E+03  0.23292535633E+03  0.78988601617E+02 0.  0.
         66    2    3    3    0    0  0.26255698988E+02  0.15828352637E+02 -0.36330650455E+02  0.47579560863E+02  0.19999932145E+01 0.  0.
        -13    1    3    3    0    0 -0.26255698988E+02 -0.15828352637E+02 -0.18279265373E+03  0.18534579546E+03  0.10566000000E+00 0.  1.
         13    1    4    4    0    0  0.92361113695E+01  0.49950648038E+01 -0.12802665749E+02  0.16558255945E+02  0.10566000000E+00 0. -1.
        -13    1    4    4    0    0  0.10664021589E+02  0.71804881382E+01 -0.15795287793E+02  0.20366223185E+02  0.10566000000E+00 0.  1.
        -14    1    4    4    0    0  0.63555660295E+01  0.36527996952E+01 -0.77326969139E+01  0.10655081733E+02  0.00000000000E+00 0.  1.
<mgrwt>
<rscale>  0 0.78988602E+02</rscale>
<asrwt>0</asrwt>
<pdfrwt beam="1">  1        2 0.10616965E-02 0.78988602E+02</pdfrwt>
<pdfrwt beam="2">  1       -1 0.34772968E-01 0.78988602E+02</pdfrwt>
<totfact> 0.98999466E+04</totfact>
</mgrwt>
</event>
<event>
 8    1  0.1627221E-013  0.8341128E+02  0.7818608E-02  0.1319640E+00
          2   -1    0    0  501    0  0.00000000000E+00  0.00000000000E+00  0.13475163341E+03  0.13475163343E+03  0.25500000000E-02 0. -1.
         -1   -1    0    0    0  501 -0.00000000000E+00 -0.00000000000E+00 -0.12907898561E+02  0.12907899545E+02  0.50400000000E-02 0.  1.
         24    2    1    2    0    0 -0.35527136788E-14  0.35527136788E-14  0.12184373485E+03  0.14765953298E+03  0.83411281956E+02 0.  0.
         66    2    3    3    0    0  0.18624929078E+02  0.17847657576E+02  0.11891562729E+03  0.12169779494E+03  0.20000035942E+01 0.  0.
        -13    1    3    3    0    0 -0.18624929078E+02 -0.17847657576E+02  0.29281075547E+01  0.25961738039E+02  0.10566000000E+00 0.  1.
         13    1    4    4    0    0  0.64632468911E+00  0.66061609702E+00  0.55407090489E+01  0.56182532901E+01  0.10566000000E+00 0. -1.
        -13    1    4    4    0    0  0.47237809600E+01  0.53366274624E+01  0.31510692096E+02  0.32306788445E+02  0.10566000000E+00 0.  1.
         14    1    4    4    0    0  0.13254823429E+02  0.11850414016E+02  0.81864226147E+02  0.83772753202E+02  0.00000000000E+00 0. -1.
<mgrwt>
<rscale>  0 0.83411282E+02</rscale>
<asrwt>0</asrwt>
<pdfrwt beam="1">  1        2 0.20731020E-01 0.83411282E+02</pdfrwt>
<pdfrwt beam="2">  1       -1 0.19858307E-02 0.83411282E+02</pdfrwt>
<totfact> 0.17321281E+05</totfact>
</mgrwt>
</event>
<event>
 8    1  0.1627221E-013  0.7927664E+02  0.7818608E-02  0.1331117E+00
         -1   -1    0    0    0  501 -0.00000000000E+00  0.00000000000E+00  0.92671518082E+02  0.92671518219E+02  0.50400000000E-02 0.  1.
          2   -1    0    0  501    0  0.00000000000E+00 -0.00000000000E+00 -0.16954467382E+02  0.16954467573E+02  0.25500000000E-02 0. -1.
         24    2    1    2    0    0  0.00000000000E+00  0.71054273576E-14  0.75717050700E+02  0.10962598579E+03  0.79276635866E+02 0.  0.
         66    2    3    3    0    0 -0.24517846703E+01  0.38256709255E+02  0.51683448370E+02  0.64379856056E+02  0.19999948393E+01 0.  0.
        -13    1    3    3    0    0  0.24517846703E+01 -0.38256709255E+02  0.24033602330E+02  0.45246129736E+02  0.10566000000E+00 0.  1.
         13    1    4    4    0    0 -0.17949621495E+00  0.45274790367E+01  0.58408631857E+01  0.73930461996E+01  0.10566000000E+00 0. -1.
        -13    1    4    4    0    0 -0.11833790957E+01  0.26423871132E+02  0.35116161916E+02  0.43963363650E+02  0.10566000000E+00 0.  1.
        -14    1    4    4    0    0 -0.10889093597E+01  0.73053590858E+01  0.10726423268E+02  0.13023446206E+02  0.00000000000E+00 0.  1.
<mgrwt>
<rscale>  0 0.79276636E+02</rscale>
<asrwt>0</asrwt>
<pdfrwt beam="1">  1        2 0.26083796E-02 0.79276636E+02</pdfrwt>
<pdfrwt beam="2">  1       -1 0.14257157E-01 0.79276636E+02</pdfrwt>
<totfact> 0.12320617E+05</totfact>
</mgrwt>
</event>
<event>
 8    1  0.1627221E-013  0.7980720E+02  0.7818608E-02  0.1329599E+00
          2   -1    0    0  501    0  0.00000000000E+00  0.00000000000E+00  0.32427870664E+04  0.32427870665E+04  0.25500000000E-02 0. -1.
         -1   -1    0    0    0  501 -0.00000000000E+00 -0.00000000000E+00 -0.49101444393E+00  0.49104030970E+00  0.50400000000E-02 0.  1.
         24    2    1    2    0    0  0.00000000000E+00  0.00000000000E+00  0.32422960520E+04  0.32432781068E+04  0.79807198542E+02 0.  0.
         66    2    3    3    0    0 -0.20932622593E+01 -0.10383480283E+02  0.31845665471E+04  0.31845847911E+04  0.19999986384E+01 0.  0.
        -13    1    3    3    0    0  0.20932622593E+01  0.10383480283E+02  0.57729504871E+02  0.58693315687E+02  0.10566000000E+00 0.  1.
         13    1    4    4    0    0 -0.12646465910E+01 -0.90775544131E+01  0.26130222496E+04  0.26130383253E+04  0.10566000000E+00 0. -1.
        -13    1    4    4    0    0 -0.12940230107E+00 -0.33860632135E+00  0.15349123851E+03  0.15349170291E+03  0.10566000000E+00 0.  1.
         14    1    4    4    0    0 -0.69921336724E+00 -0.96731954889E+00  0.41805305900E+03  0.41805476285E+03  0.00000000000E+00 0. -1.
<mgrwt>
<rscale>  0 0.79807199E+02</rscale>
<asrwt>0</asrwt>
<pdfrwt beam="1">  1        2 0.49888145E+00 0.79807199E+02</pdfrwt>
<pdfrwt beam="2">  1       -1 0.75544017E-04 0.79807199E+02</pdfrwt>
<totfact> 0.11673925E+05</totfact>
</mgrwt>
</event>
<event>
 8    1  0.1627221E-013  0.7977478E+02  0.7818608E-02  0.1329692E+00
          2   -1    0    0  501    0  0.00000000000E+00  0.00000000000E+00  0.68445757234E+02  0.68445757282E+02  0.25500000000E-02 0. -1.
         -1   -1    0    0    0  501 -0.00000000000E+00 -0.00000000000E+00 -0.23244741536E+02  0.23244742082E+02  0.50400000000E-02 0.  1.
         24    2    1    2    0    0  0.00000000000E+00  0.00000000000E+00  0.45201015698E+02  0.91690499364E+02  0.79774782064E+02 0.  0.
         66    2    3    3    0    0  0.74879695048E+01 -0.25687414544E+02  0.56576202523E+02  0.62616129335E+02  0.20000019269E+01 0.  0.
        -13    1    3    3    0    0 -0.74879695048E+01  0.25687414544E+02 -0.11375186825E+02  0.29074370029E+02  0.10566000000E+00 0.  1.
         13    1    4    4    0    0  0.45135576421E+01 -0.14708111937E+02  0.33214617214E+02  0.36604954856E+02  0.10566000000E+00 0. -1.
        -13    1    4    4    0    0  0.26071888383E+01 -0.77276244453E+01  0.17129280795E+02  0.18972006689E+02  0.10566000000E+00 0.  1.
        -14    1    4    4    0    0  0.36722302448E+00 -0.32516781616E+01  0.62323045139E+01  0.70391677896E+01  0.00000000000E+00 0.  1.
<mgrwt>
<rscale>  0 0.79774782E+02</rscale>
<asrwt>0</asrwt>
<pdfrwt beam="1">  1        2 0.10530117E-01 0.79774782E+02</pdfrwt>
<pdfrwt beam="2">  1       -1 0.35761141E-02 0.79774782E+02</pdfrwt>
<totfact> 0.16181657E+05</totfact>
</mgrwt>
</event>
<event>
 8    1  0.1627221E-013  0.8055013E+02  0.7818608E-02  0.1327497E+00
         -1   -1    0    0    0  501 -0.00000000000E+00  0.00000000000E+00  0.54002109939E+01  0.54002133458E+01  0.50400000000E-02 0.  1.
          2   -1    0    0  501    0  0.00000000000E+00 -0.00000000000E+00 -0.30037356508E+03  0.30037356509E+03  0.25500000000E-02 0. -1.
         24    2    1    2    0    0  0.00000000000E+00  0.22204460493E-15 -0.29497335408E+03  0.30577377843E+03  0.80550133200E+02 0.  0.
         66    2    3    3    0    0 -0.21223545402E+02 -0.17543032247E+01 -0.27723180017E+03  0.27805572730E+03  0.20000004745E+01 0.  0.
        -13    1    3    3    0    0  0.21223545402E+02  0.17543032247E+01 -0.17741553917E+02  0.27718051134E+02  0.10566000000E+00 0.  1.
         13    1    4    4    0    0 -0.70491702979E+01 -0.79878175181E+00 -0.91513263003E+02  0.91787893121E+02  0.10566000000E+00 0. -1.
        -13    1    4    4    0    0 -0.70287362983E+01  0.25208779379E+00 -0.95512832874E+02  0.95771494141E+02  0.10566000000E+00 0.  1.
        -14    1    4    4    0    0 -0.71456388055E+01 -0.12076092667E+01 -0.90205704290E+02  0.90496340039E+02  0.00000000000E+00 0.  1.
<mgrwt>
<rscale>  0 0.80550133E+02</rscale>
<asrwt>0</asrwt>
<pdfrwt beam="1">  1        2 0.46211305E-01 0.80550133E+02</pdfrwt>
<pdfrwt beam="2">  1       -1 0.83080211E-03 0.80550133E+02</pdfrwt>
<totfact> 0.25051644E+05</totfact>
</mgrwt>
</event>
<event>
 8    1  0.1627221E-013  0.8174191E+02  0.7818608E-02  0.1324180E+00
         -1   -1    0    0    0  501 -0.00000000000E+00  0.00000000000E+00  0.82478610631E+01  0.82478626029E+01  0.50400000000E-02 0.  1.
          2   -1    0    0  501    0  0.00000000000E+00 -0.00000000000E+00 -0.20252946627E+03  0.20252946628E+03  0.25500000000E-02 0. -1.
         24    2    1    2    0    0 -0.44408920985E-15  0.00000000000E+00 -0.19428160520E+03  0.21077732889E+03  0.81741912454E+02 0.  0.
         66    2    3    3    0    0  0.39221120390E+01 -0.18304036100E+02 -0.19081226511E+03  0.19173873164E+03  0.19999983979E+01 0.  0.
        -13    1    3    3    0    0 -0.39221120390E+01  0.18304036100E+02 -0.34693400937E+01  0.19038597247E+02  0.10566000000E+00 0.  1.
         13    1    4    4    0    0  0.81605145899E+00 -0.51289243107E+01 -0.55484079030E+02  0.55726708089E+02  0.10566000000E+00 0. -1.
        -13    1    4    4    0    0  0.15225571575E+01 -0.35082781038E+01 -0.38357071904E+02  0.38547403604E+02  0.10566000000E+00 0.  1.
        -14    1    4    4    0    0  0.15835034225E+01 -0.96668336860E+01 -0.96971114175E+02  0.97464619945E+02  0.00000000000E+00 0.  1.
<mgrwt>
<rscale>  0 0.81741912E+02</rscale>
<asrwt>0</asrwt>
<pdfrwt beam="1">  1        2 0.31158376E-01 0.81741912E+02</pdfrwt>
<pdfrwt beam="2">  1       -1 0.12689020E-02 0.81741912E+02</pdfrwt>
<totfact> 0.20929965E+05</totfact>
</mgrwt>
</event>
<event>
 8    1  0.1627221E-013  0.7961414E+02  0.7818608E-02  0.1330150E+00
         -1   -1    0    0    0  501 -0.00000000000E+00  0.00000000000E+00  0.20486820519E+02  0.20486821139E+02  0.50400000000E-02 0.  1.
          2   -1    0    0  501    0  0.00000000000E+00 -0.00000000000E+00 -0.77347418240E+02  0.77347418282E+02  0.25500000000E-02 0. -1.
         24    2    1    2    0    0 -0.17763568394E-14  0.00000000000E+00 -0.56860597721E+02  0.97834239421E+02  0.79614137123E+02 0.  0.
         66    2    3    3    0    0  0.13998853024E+02 -0.37177839744E+02 -0.25859386042E+02  0.47443308256E+02  0.19999994458E+01 0.  0.
        -13    1    3    3    0    0 -0.13998853024E+02  0.37177839744E+02 -0.31001211680E+02  0.50390931165E+02  0.10566000000E+00 0.  1.
         13    1    4    4    0    0  0.24008469122E+01 -0.67751808197E+01 -0.53548107066E+01  0.89639445990E+01  0.10566000000E+00 0. -1.
        -13    1    4    4    0    0  0.59801398096E+00 -0.21654104707E+01 -0.12048844047E+01  0.25513787826E+01  0.10566000000E+00 0.  1.
        -14    1    4    4    0    0  0.10999992131E+02 -0.28237248454E+02 -0.19299690930E+02  0.35927984874E+02  0.00000000000E+00 0.  1.
<mgrwt>
<rscale>  0 0.79614137E+02</rscale>
<asrwt>0</asrwt>
<pdfrwt beam="1">  1        2 0.11899603E-01 0.79614137E+02</pdfrwt>
<pdfrwt beam="2">  1       -1 0.31518186E-02 0.79614137E+02</pdfrwt>
<totfact> 0.16769901E+05</totfact>
</mgrwt>
</event>
<event>
 8    1  0.1627221E-013  0.7894081E+02  0.7818608E-02  0.1332084E+00
          2   -1    0    0  501    0  0.00000000000E+00  0.00000000000E+00  0.19146599244E+03  0.19146599246E+03  0.25500000000E-02 0. -1.
         -1   -1    0    0    0  501 -0.00000000000E+00 -0.00000000000E+00 -0.81367599507E+01  0.81367615116E+01  0.50400000000E-02 0.  1.
         24    2    1    2    0    0 -0.17763568394E-14  0.00000000000E+00  0.18332923249E+03  0.19960275397E+03  0.78940812681E+02 0.  0.
         66    2    3    3    0    0 -0.10055920973E+02 -0.37714844159E+02  0.10611072427E+03  0.11307969235E+03  0.19999999546E+01 0.  0.
        -13    1    3    3    0    0  0.10055920973E+02  0.37714844159E+02  0.77218508218E+02  0.86523061619E+02  0.10566000000E+00 0.  1.
         13    1    4    4    0    0 -0.52349539288E+01 -0.17851831784E+02  0.50770568292E+02  0.54071752417E+02  0.10566000000E+00 0. -1.
        -13    1    4    4    0    0 -0.55337620999E+00 -0.13393417864E+01  0.33432948813E+01  0.36453869958E+01  0.10566000000E+00 0.  1.
        -14    1    4    4    0    0 -0.42675908340E+01 -0.18523670589E+02  0.51996861098E+02  0.55362552937E+02  0.00000000000E+00 0.  1.
<mgrwt>
<rscale>  0 0.78940813E+02</rscale>
<asrwt>0</asrwt>
<pdfrwt beam="1">  1        2 0.29456306E-01 0.78940813E+02</pdfrwt>
<pdfrwt beam="2">  1       -1 0.12518094E-02 0.78940813E+02</pdfrwt>
<totfact> 0.22506263E+05</totfact>
</mgrwt>
</event>
<event>
 8    1  0.1627221E-013  0.7814926E+02  0.7818608E-02  0.1334387E+00
          2   -1    0    0  501    0  0.00000000000E+00  0.00000000000E+00  0.59273952737E+03  0.59273952738E+03  0.25500000000E-02 0. -1.
         -1   -1    0    0    0  501 -0.00000000000E+00 -0.00000000000E+00 -0.25758787273E+01  0.25758836579E+01  0.50400000000E-02 0.  1.
         24    2    1    2    0    0  0.00000000000E+00  0.44408920985E-15  0.59016364864E+03  0.59531541103E+03  0.78149257415E+02 0.  0.
         66    2    3    3    0    0  0.12170986004E+02  0.37140005401E+01  0.57649925180E+03  0.57664314268E+03  0.19999935379E+01 0.  0.
        -13    1    3    3    0    0 -0.12170986004E+02 -0.37140005401E+01  0.13664396843E+02  0.18672268353E+02  0.10566000000E+00 0.  1.
         13    1    4    4    0    0  0.56433980325E+01  0.21047149317E+01  0.26498616824E+03  0.26505463265E+03  0.10566000000E+00 0. -1.
        -13    1    4    4    0    0  0.73176771029E+00  0.47673465333E+00  0.57888114154E+02  0.57894798421E+02  0.10566000000E+00 0.  1.
        -14    1    4    4    0    0  0.57958202616E+01  0.11325509551E+01  0.25362496940E+03  0.25369371161E+03  0.00000000000E+00 0.  1.
<mgrwt>
<rscale>  0 0.78149257E+02</rscale>
<asrwt>0</asrwt>
<pdfrwt beam="1">  1        2 0.91190704E-01 0.78149257E+02</pdfrwt>
<pdfrwt beam="2">  1       -1 0.39628938E-03 0.78149257E+02</pdfrwt>
<totfact> 0.34064839E+05</totfact>
</mgrwt>
</event>
<event>
 8    1  0.1627221E-013  0.7965858E+02  0.7818608E-02  0.1330023E+00
         -1   -1    0    0    0  501 -0.00000000000E+00  0.00000000000E+00  0.39643741104E+03  0.39643741107E+03  0.50400000000E-02 0.  1.
          2   -1    0    0  501    0  0.00000000000E+00 -0.00000000000E+00 -0.40015703558E+01  0.40015711683E+01  0.25500000000E-02 0. -1.
         24    2    1    2    0    0 -0.17763568394E-14  0.00000000000E+00  0.39243584068E+03  0.40043898224E+03  0.79658580480E+02 0.  0.
         66    2    3    3    0    0  0.15735820452E+02 -0.32901443266E+02  0.27649636935E+03  0.27889848203E+03  0.20000000005E+01 0.  0.
        -13    1    3    3    0    0 -0.15735820452E+02  0.32901443266E+02  0.11593947133E+03  0.12154050020E+03  0.10566000000E+00 0.  1.
         13    1    4    4    0    0  0.82408620409E+00 -0.15570402841E+01  0.11130430095E+02  0.11269477834E+02  0.10566000000E+00 0.  1.
        -13    1    4    4    0    0  0.46504361516E+01 -0.87598504522E+01  0.73615624182E+02  0.74280770218E+02  0.10566000000E+00 0. -1.
        -14    1    4    4    0    0  0.10261298096E+02 -0.22584552530E+02  0.19175031508E+03  0.19334823398E+03  0.00000000000E+00 0.  1.
<mgrwt>
<rscale>  0 0.79658580E+02</rscale>
<asrwt>0</asrwt>
<pdfrwt beam="1">  1        2 0.61562636E-03 0.79658580E+02</pdfrwt>
<pdfrwt beam="2">  1       -1 0.60990362E-01 0.79658580E+02</pdfrwt>
<totfact> 0.76989007E+04</totfact>
</mgrwt>
</event>
<event>
 8    1  0.1627221E-013  0.8065862E+02  0.7818608E-02  0.1327193E+00
         -1   -1    0    0    0  501 -0.00000000000E+00  0.00000000000E+00  0.14112662625E+01  0.14112752620E+01  0.50400000000E-02 0.  1.
          2   -1    0    0  501    0  0.00000000000E+00 -0.00000000000E+00 -0.11524743191E+04  0.11524743191E+04  0.25500000000E-02 0. -1.
         24    2    1    2    0    0  0.35527136788E-14  0.00000000000E+00 -0.11510630529E+04  0.11538855944E+04  0.80658621828E+02 0.  0.
         66    2    3    3    0    0 -0.24803257749E+02  0.15982444666E+01 -0.10297845625E+04  0.10300864047E+04  0.19999993409E+01 0.  0.
        -13    1    3    3    0    0  0.24803257749E+02 -0.15982444666E+01 -0.12127849043E+03  0.12379918976E+03  0.10566000000E+00 0.  1.
         13    1    4    4    0    0 -0.19387160457E+02  0.74204838702E+00 -0.77945748006E+03  0.77969890792E+03  0.10566000000E+00 0. -1.
        -13    1    4    4    0    0 -0.17437502374E+01  0.10142195566E+00 -0.81935255937E+02  0.81953939996E+02  0.10566000000E+00 0.  1.
        -14    1    4    4    0    0 -0.36723470545E+01  0.75477412388E+00 -0.16839182645E+03  0.16843355673E+03  0.00000000000E+00 0.  1.
<mgrwt>
<rscale>  0 0.80658622E+02</rscale>
<asrwt>0</asrwt>
<pdfrwt beam="1">  1        2 0.17730299E+00 0.80658622E+02</pdfrwt>
<pdfrwt beam="2">  1       -1 0.21711950E-03 0.80658622E+02</pdfrwt>
<totfact> 0.34426241E+05</totfact>
</mgrwt>
</event>
<event>
 8    1  0.1627221E-013  0.7463562E+02  0.7818608E-02  0.1345003E+00
         -1   -1    0    0    0  501 -0.00000000000E+00  0.00000000000E+00  0.12580555530E+02  0.12580556540E+02  0.50400000000E-02 0.  1.
          2   -1    0    0  501    0  0.00000000000E+00 -0.00000000000E+00 -0.11069612919E+03  0.11069612922E+03  0.25500000000E-02 0. -1.
         24    2    1    2    0    0 -0.35527136788E-14  0.00000000000E+00 -0.98115573661E+02  0.12327668576E+03  0.74635617886E+02 0.  0.
         66    2    3    3    0    0 -0.28325934377E+02 -0.12871908237E+02 -0.83046360722E+02  0.88705933344E+02  0.20000003310E+01 0.  0.
        -13    1    3    3    0    0  0.28325934377E+02  0.12871908237E+02 -0.15069212939E+02  0.34570752416E+02  0.10566000000E+00 0.  1.
         13    1    4    4    0    0 -0.38003645810E+01 -0.16735045735E+01 -0.11023296110E+02  0.11779966454E+02  0.10566000000E+00 0. -1.
        -13    1    4    4    0    0 -0.16116234201E+02 -0.68041163765E+01 -0.48698623742E+02  0.51745493744E+02  0.10566000000E+00 0.  1.
        -14    1    4    4    0    0 -0.84093355945E+01 -0.43942872866E+01 -0.23324440871E+02  0.25180473145E+02  0.00000000000E+00 0.  1.
<mgrwt>
<rscale>  0 0.74635618E+02</rscale>
<asrwt>0</asrwt>
<pdfrwt beam="1">  1        2 0.17030173E-01 0.74635618E+02</pdfrwt>
<pdfrwt beam="2">  1       -1 0.19354702E-02 0.74635618E+02</pdfrwt>
<totfact> 0.21947853E+05</totfact>
</mgrwt>
</event>
<event>
 8    1  0.1627221E-013  0.7454866E+02  0.7818608E-02  0.1345274E+00
          2   -1    0    0  501    0  0.00000000000E+00  0.00000000000E+00  0.17715090487E+02  0.17715090671E+02  0.25500000000E-02 0. -1.
         -1   -1    0    0    0  501 -0.00000000000E+00 -0.00000000000E+00 -0.78428942886E+02  0.78428943048E+02  0.50400000000E-02 0.  1.
         24    2    1    2    0    0  0.00000000000E+00  0.00000000000E+00 -0.60713852399E+02  0.96144033719E+02  0.74548664285E+02 0.  0.
         66    2    3    3    0    0 -0.16524115950E+02  0.13071830827E+02  0.92347050100E+01  0.23091100741E+02  0.19999969293E+01 0.  0.
        -13    1    3    3    0    0  0.16524115950E+02 -0.13071830827E+02 -0.69948557409E+02  0.73052932978E+02  0.10566000000E+00 0.  1.
         13    1    4    4    0    0 -0.13412976235E+02  0.10886102012E+02  0.68937868189E+01  0.18599747558E+02  0.10566000000E+00 0. -1.
        -13    1    4    4    0    0 -0.25708866029E+01  0.16072036071E+01  0.17380790763E+01  0.34963758766E+01  0.10566000000E+00 0.  1.
         14    1    4    4    0    0 -0.54025311210E+00  0.57852520825E+00  0.60283911482E+00  0.99497730631E+00  0.00000000000E+00 0. -1.
<mgrwt>
<rscale>  0 0.74548664E+02</rscale>
<asrwt>0</asrwt>
<pdfrwt beam="1">  1        2 0.27253986E-02 0.74548664E+02</pdfrwt>
<pdfrwt beam="2">  1       -1 0.12065991E-01 0.74548664E+02</pdfrwt>
<totfact> 0.14834943E+05</totfact>
</mgrwt>
</event>
<event>
 8    1  0.1627221E-013  0.7910536E+02  0.7818608E-02  0.1331610E+00
          2   -1    0    0  501    0  0.00000000000E+00  0.00000000000E+00  0.39103004497E+02  0.39103004580E+02  0.25500000000E-02 0. -1.
         -1   -1    0    0    0  501 -0.00000000000E+00 -0.00000000000E+00 -0.40007524202E+02  0.40007524520E+02  0.50400000000E-02 0.  1.
         24    2    1    2    0    0 -0.35527136788E-14  0.00000000000E+00 -0.90451970506E+00  0.79110529100E+02  0.79105357964E+02 0.  0.
         66    2    3    3    0    0 -0.30834863760E+02 -0.12020934508E+02  0.21161772369E+02  0.39333348462E+02  0.20000004876E+01 0.  0.
        -13    1    3    3    0    0  0.30834863760E+02  0.12020934508E+02 -0.22066292074E+02  0.39777180637E+02  0.10566000000E+00 0.  1.
         13    1    4    4    0    0 -0.13437709404E+02 -0.50961591834E+01  0.91087746554E+01  0.17015399266E+02  0.10566000000E+00 0. -1.
        -13    1    4    4    0    0 -0.11571654251E+02 -0.47322075054E+01  0.72186183412E+01  0.14436640356E+02  0.10566000000E+00 0.  1.
        -14    1    4    4    0    0 -0.58255001058E+01 -0.21925678192E+01  0.48343793719E+01  0.78813088403E+01  0.00000000000E+00 0.  1.
<mgrwt>
<rscale>  0 0.79105358E+02</rscale>
<asrwt>0</asrwt>
<pdfrwt beam="1">  1        2 0.60158469E-02 0.79105358E+02</pdfrwt>
<pdfrwt beam="2">  1       -1 0.61550038E-02 0.79105358E+02</pdfrwt>
<totfact> 0.14637232E+05</totfact>
</mgrwt>
</event>
<event>
 8    1  0.1627221E-013  0.7673135E+02  0.7818608E-02  0.1338592E+00
         -1   -1    0    0    0  501 -0.00000000000E+00  0.00000000000E+00  0.10106672251E+01  0.10106797918E+01  0.50400000000E-02 0.  1.
          2   -1    0    0  501    0  0.00000000000E+00 -0.00000000000E+00 -0.14563803953E+04  0.14563803953E+04  0.25500000000E-02 0. -1.
         24    2    1    2    0    0  0.00000000000E+00  0.00000000000E+00 -0.14553697281E+04  0.14573910751E+04  0.76731351916E+02 0.  0.
         66    2    3    3    0    0  0.69950581420E+01  0.18710215970E+02 -0.13497351950E+04  0.13498844764E+04  0.19999982859E+01 0.  0.
        -13    1    3    3    0    0 -0.69950581420E+01 -0.18710215970E+02 -0.10563453308E+03  0.10750659869E+03  0.10566000000E+00 0.  1.
         13    1    4    4    0    0  0.14788423835E+01  0.54254257762E+01 -0.42780937968E+03  0.42784634944E+03  0.10566000000E+00 0. -1.
        -13    1    4    4    0    0  0.10067719729E+01  0.21732132636E+01 -0.14832384534E+03  0.14834321927E+03  0.10566000000E+00 0.  1.
         14    1    4    4    0    0  0.45094437856E+01  0.11111576930E+02 -0.77360196998E+03  0.77369490769E+03  0.00000000000E+00 0. -1.
<mgrwt>
<rscale>  0 0.76731352E+02</rscale>
<asrwt>0</asrwt>
<pdfrwt beam="1">  1        2 0.22405684E+00 0.76731352E+02</pdfrwt>
<pdfrwt beam="2">  1       -1 0.15548940E-03 0.76731352E+02</pdfrwt>
<totfact> 0.37440948E+05</totfact>
</mgrwt>
</event>
<event>
 8    1  0.1627221E-013  0.8025487E+02  0.7818608E-02  0.1328330E+00
         -1   -1    0    0    0  501 -0.00000000000E+00  0.00000000000E+00  0.19900199580E+03  0.19900199586E+03  0.50400000000E-02 0.  1.
          2   -1    0    0  501    0  0.00000000000E+00 -0.00000000000E+00 -0.80914314886E+01  0.80914318904E+01  0.25500000000E-02 0. -1.
         24    2    1    2    0    0  0.35527136788E-14  0.00000000000E+00  0.19091056431E+03  0.20709342775E+03  0.80254870589E+02 0.  0.
         66    2    3    3    0    0 -0.30637798670E+02  0.14100488012E+02  0.39529545616E+02  0.52000802350E+02  0.19999997305E+01 0.  0.
        -13    1    3    3    0    0  0.30637798670E+02 -0.14100488012E+02  0.15138101869E+03  0.15509262540E+03  0.10566000000E+00 0.  1.
         13    1    4    4    0    0 -0.34373291227E+01  0.17550813369E+01  0.54062212106E+01  0.66433375505E+01  0.10566000000E+00 0.  1.
        -13    1    4    4    0    0 -0.18282677893E+02  0.83975285351E+01  0.23516242874E+02  0.30948338233E+02  0.10566000000E+00 0. -1.
        -14    1    4    4    0    0 -0.89177916538E+01  0.39478781399E+01  0.10607081532E+02  0.14409126566E+02  0.00000000000E+00 0.  1.
<mgrwt>
<rscale>  0 0.80254871E+02</rscale>
<asrwt>0</asrwt>
<pdfrwt beam="1">  1        2 0.12448357E-02 0.80254871E+02</pdfrwt>
<pdfrwt beam="2">  1       -1 0.30615691E-01 0.80254871E+02</pdfrwt>
<totfact> 0.98950154E+04</totfact>
</mgrwt>
</event>
<event>
 8    1  0.1627221E-013  0.8101170E+02  0.7818608E-02  0.1326205E+00
          2   -1    0    0  501    0  0.00000000000E+00  0.00000000000E+00  0.47959909835E+03  0.47959909836E+03  0.25500000000E-02 0. -1.
         -1   -1    0    0    0  501 -0.00000000000E+00 -0.00000000000E+00 -0.34210303295E+01  0.34210340421E+01  0.50400000000E-02 0.  1.
         24    2    1    2    0    0 -0.44408920985E-15  0.00000000000E+00  0.47617806802E+03  0.48302013240E+03  0.81011701864E+02 0.  0.
         66    2    3    3    0    0  0.23538965394E+01 -0.15830302207E+02  0.45993214323E+03  0.46021485816E+03  0.19999991503E+01 0.  0.
        -13    1    3    3    0    0 -0.23538965394E+01  0.15830302207E+02  0.16245924792E+02  0.22805274243E+02  0.10566000000E+00 0.  1.
         13    1    4    4    0    0  0.34510682352E+00 -0.61257354367E+01  0.19262580780E+03  0.19272352406E+03  0.10566000000E+00 0. -1.
        -13    1    4    4    0    0  0.18525785872E-01 -0.43303940115E+00  0.91013942230E+01  0.91123217220E+01  0.10566000000E+00 0.  1.
         14    1    4    4    0    0  0.19902639300E+01 -0.92715273692E+01  0.25820494121E+03  0.25837901237E+03  0.00000000000E+00 0. -1.
<mgrwt>
<rscale>  0 0.81011702E+02</rscale>
<asrwt>0</asrwt>
<pdfrwt beam="1">  1        2 0.73784437E-01 0.81011702E+02</pdfrwt>
<pdfrwt beam="2">  1       -1 0.52631293E-03 0.81011702E+02</pdfrwt>
<totfact> 0.29076113E+05</totfact>
</mgrwt>
</event>
<event>
 8    1  0.1627221E-013  0.8027925E+02  0.7818608E-02  0.1328261E+00
         -1   -1    0    0    0  501 -0.00000000000E+00  0.00000000000E+00  0.13100699249E+01  0.13100796197E+01  0.50400000000E-02 0.  1.
          2   -1    0    0  501    0  0.00000000000E+00 -0.00000000000E+00 -0.12298454399E+04  0.12298454399E+04  0.25500000000E-02 0. -1.
         24    2    1    2    0    0  0.00000000000E+00  0.00000000000E+00 -0.12285353699E+04  0.12311555195E+04  0.80279249936E+02 0.  0.
         66    2    3    3    0    0  0.18304273615E+02  0.34385032412E+01 -0.11595185607E+04  0.11596698506E+04  0.20000001747E+01 0.  0.
        -13    1    3    3    0    0 -0.18304273615E+02 -0.34385032412E+01 -0.69016809194E+02  0.71485668860E+02  0.10566000000E+00 0.  1.
         13    1    4    4    0    0  0.10771653303E+02  0.20512827222E+01 -0.72463707702E+03  0.72472004307E+03  0.10566000000E+00 0. -1.
        -13    1    4    4    0    0  0.18699707211E+01 -0.40144616463E-02 -0.11265532046E+03  0.11267088887E+03  0.10566000000E+00 0.  1.
         14    1    4    4    0    0  0.56626495901E+01  0.13912349807E+01 -0.32222616326E+03  0.32227891868E+03  0.00000000000E+00 0. -1.
<mgrwt>
<rscale>  0 0.80279250E+02</rscale>
<asrwt>0</asrwt>
<pdfrwt beam="1">  1        2 0.18920607E+00 0.80279250E+02</pdfrwt>
<pdfrwt beam="2">  1       -1 0.20155095E-03 0.80279250E+02</pdfrwt>
<totfact> 0.34618198E+05</totfact>
</mgrwt>
</event>
<event>
 8    1  0.1627221E-013  0.8130214E+02  0.7818608E-02  0.1325396E+00
          2   -1    0    0  501    0  0.00000000000E+00  0.00000000000E+00  0.55942401913E+03  0.55942401914E+03  0.25500000000E-02 0. -1.
         -1   -1    0    0    0  501 -0.00000000000E+00 -0.00000000000E+00 -0.29539456123E+01  0.29539499119E+01  0.50400000000E-02 0.  1.
         24    2    1    2    0    0  0.00000000000E+00  0.00000000000E+00  0.55647007352E+03  0.56237796905E+03  0.81302136193E+02 0.  0.
         66    2    3    3    0    0  0.22807138697E+02 -0.63644269813E+01  0.50675571075E+03  0.50731254854E+03  0.20000055293E+01 0.  0.
        -13    1    3    3    0    0 -0.22807138697E+02  0.63644269813E+01  0.49714362775E+02  0.55065420515E+02  0.10566000000E+00 0.  1.
         13    1    4    4    0    0  0.15494892207E+02 -0.52420445308E+01  0.34692578321E+03  0.34731121625E+03  0.10566000000E+00 0. -1.
        -13    1    4    4    0    0  0.34814168398E+01 -0.60243152133E+00  0.73918581763E+02  0.74003047780E+02  0.10566000000E+00 0. -1.
         14    1    4    4    0    0  0.38308296497E+01 -0.51995092920E+00  0.85911345775E+02  0.85998284504E+02  0.00000000000E+00 0. -1.
<mgrwt>
<rscale>  0 0.81302136E+02</rscale>
<asrwt>0</asrwt>
<pdfrwt beam="1">  1        2 0.86065232E-01 0.81302136E+02</pdfrwt>
<pdfrwt beam="2">  1       -1 0.45445351E-03 0.81302136E+02</pdfrwt>
<totfact> 0.30223799E+05</totfact>
</mgrwt>
</event>
<event>
 8    1  0.1627221E-013  0.7923239E+02  0.7818608E-02  0.1331244E+00
         -1   -1    0    0    0  501 -0.00000000000E+00  0.00000000000E+00  0.92523165595E+02  0.92523165733E+02  0.50400000000E-02 0.  1.
          2   -1    0    0  501    0  0.00000000000E+00 -0.00000000000E+00 -0.16962703981E+02  0.16962704172E+02  0.25500000000E-02 0. -1.
         24    2    1    2    0    0  0.88817841970E-15  0.00000000000E+00  0.75560461615E+02  0.10948586991E+03  0.79232394571E+02 0.  0.
         66    2    3    3    0    0  0.73190807242E+01  0.18490200966E+02 -0.95017066612E+01  0.22130045198E+02  0.19999991436E+01 0.  0.
        -13    1    3    3    0    0 -0.73190807242E+01 -0.18490200966E+02  0.85062168276E+02  0.87355824707E+02  0.10566000000E+00 0.  1.
         13    1    4    4    0    0  0.36826794047E+01  0.89646799147E+01 -0.36147247917E+01  0.10344322739E+02  0.10566000000E+00 0. -1.
        -13    1    4    4    0    0  0.34879932069E+01  0.88355039904E+01 -0.53868849064E+01  0.10920710618E+02  0.10566000000E+00 0.  1.
        -14    1    4    4    0    0  0.14840811253E+00  0.69001706113E+00 -0.50009696318E+00  0.86501184102E+00  0.00000000000E+00 0.  1.
<mgrwt>
<rscale>  0 0.79232395E+02</rscale>
<asrwt>0</asrwt>
<pdfrwt beam="1">  1        2 0.26096468E-02 0.79232395E+02</pdfrwt>
<pdfrwt beam="2">  1       -1 0.14234333E-01 0.79232395E+02</pdfrwt>
<totfact> 0.12341839E+05</totfact>
</mgrwt>
</event>
<event>
 8    1  0.1627221E-013  0.8027293E+02  0.7818608E-02  0.1328279E+00
         -1   -1    0    0    0  501 -0.00000000000E+00  0.00000000000E+00  0.25413794739E+01  0.25413844715E+01  0.50400000000E-02 0.  1.
          2   -1    0    0  501    0  0.00000000000E+00 -0.00000000000E+00 -0.63388183929E+03  0.63388183930E+03  0.25500000000E-02 0. -1.
         24    2    1    2    0    0  0.00000000000E+00  0.00000000000E+00 -0.63134045982E+03  0.63642322377E+03  0.80272931607E+02 0.  0.
         66    2    3    3    0    0 -0.26397882769E+02 -0.61179153217E+00 -0.55525501642E+03  0.55588609963E+03  0.19999994170E+01 0.  0.
        -13    1    3    3    0    0  0.26397882769E+02  0.61179153217E+00 -0.76085443396E+02  0.80537124138E+02  0.10566000000E+00 0.  1.
         13    1    4    4    0    0 -0.29059526501E+01  0.54548182553E-02 -0.66812700734E+02  0.66875950341E+02  0.10566000000E+00 0. -1.
        -13    1    4    4    0    0 -0.20700778783E+02 -0.31866545619E+00 -0.43955790015E+03  0.44004520511E+03  0.10566000000E+00 0.  1.
        -14    1    4    4    0    0 -0.27911513357E+01 -0.29858089423E+00 -0.48884415533E+02  0.48964944177E+02  0.00000000000E+00 0.  1.
<mgrwt>
<rscale>  0 0.80272932E+02</rscale>
<asrwt>0</asrwt>
<pdfrwt beam="1">  1        2 0.97520157E-01 0.80272932E+02</pdfrwt>
<pdfrwt beam="2">  1       -1 0.39098235E-03 0.80272932E+02</pdfrwt>
<totfact> 0.32356902E+05</totfact>
</mgrwt>
</event>
<event>
 8    1  0.1627221E-013  0.7981621E+02  0.7818608E-02  0.1329574E+00
          2   -1    0    0  501    0  0.00000000000E+00  0.00000000000E+00  0.15419057107E+02  0.15419057318E+02  0.25500000000E-02 0. -1.
         -1   -1    0    0    0  501 -0.00000000000E+00 -0.00000000000E+00 -0.10329144692E+03  0.10329144704E+03  0.50400000000E-02 0.  1.
         24    2    1    2    0    0  0.88817841970E-15  0.35527136788E-14 -0.87872389810E+02  0.11871050436E+03  0.79816207338E+02 0.  0.
         66    2    3    3    0    0 -0.78933818086E+01 -0.17844323700E+02  0.77704720461E+01  0.21097525954E+02  0.20000002169E+01 0.  0.
        -13    1    3    3    0    0  0.78933818086E+01  0.17844323700E+02 -0.95642861856E+02  0.97612978403E+02  0.10566000000E+00 0.  1.
         13    1    4    4    0    0 -0.54110859709E+01 -0.12808819029E+02  0.54874889103E+01  0.14948892764E+02  0.10566000000E+00 0. -1.
        -13    1    4    4    0    0 -0.15542604148E+01 -0.20285184277E+01  0.11446162359E+01  0.28021282646E+01  0.10566000000E+00 0.  1.
        -14    1    4    4    0    0 -0.92803542288E+00 -0.30069862434E+01  0.11383668999E+01  0.33465049250E+01  0.00000000000E+00 0.  1.
<mgrwt>
<rscale>  0 0.79816207E+02</rscale>
<asrwt>0</asrwt>
<pdfrwt beam="1">  1        2 0.23721627E-02 0.79816207E+02</pdfrwt>
<pdfrwt beam="2">  1       -1 0.15890992E-01 0.79816207E+02</pdfrwt>
<totfact> 0.11838374E+05</totfact>
</mgrwt>
</event>
<event>
 8    1  0.1627221E-013  0.7966351E+02  0.7818608E-02  0.1330009E+00
         -1   -1    0    0    0  501 -0.00000000000E+00  0.00000000000E+00  0.21628680821E+01  0.21628739543E+01  0.50400000000E-02 0.  1.
          2   -1    0    0  501    0  0.00000000000E+00 -0.00000000000E+00 -0.73354759170E+03  0.73354759171E+03  0.25500000000E-02 0. -1.
         24    2    1    2    0    0  0.00000000000E+00  0.00000000000E+00 -0.73138472362E+03  0.73571046566E+03  0.79663513218E+02 0.  0.
         66    2    3    3    0    0 -0.19849623209E+01  0.33554626685E+02 -0.56285368379E+03  0.56386002022E+03  0.20000002996E+01 0.  0.
        -13    1    3    3    0    0  0.19849623209E+01 -0.33554626685E+02 -0.16853103983E+03  0.17185044544E+03  0.10566000000E+00 0.  1.
         13    1    4    4    0    0 -0.14960924419E+01  0.24020895144E+02 -0.41548043379E+03  0.41617693800E+03  0.10566000000E+00 0. -1.
        -13    1    4    4    0    0 -0.25848482712E+00  0.83612893874E+01 -0.12942886391E+03  0.12969895894E+03  0.10566000000E+00 0.  1.
         14    1    4    4    0    0 -0.23038505185E+00  0.11724421533E+01 -0.17944386091E+02  0.17984123278E+02  0.00000000000E+00 0. -1.
<mgrwt>
<rscale>  0 0.79663513E+02</rscale>
<asrwt>0</asrwt>
<pdfrwt beam="1">  1        2 0.11285328E+00 0.79663513E+02</pdfrwt>
<pdfrwt beam="2">  1       -1 0.33274997E-03 0.79663513E+02</pdfrwt>
<totfact> 0.34170016E+05</totfact>
</mgrwt>
</event>
<event>
 8    1  0.1627221E-013  0.8304288E+02  0.7818608E-02  0.1320631E+00
          2   -1    0    0  501    0  0.00000000000E+00  0.00000000000E+00  0.61522210609E+03  0.61522210609E+03  0.25500000000E-02 0. -1.
         -1   -1    0    0    0  501 -0.00000000000E+00 -0.00000000000E+00 -0.28022861685E+01  0.28022907008E+01  0.50400000000E-02 0.  1.
         24    2    1    2    0    0  0.71054273576E-14  0.00000000000E+00  0.61241981992E+03  0.61802439679E+03  0.83042875687E+02 0.  0.
         66    2    3    3    0    0 -0.36351278590E+02 -0.76732215661E+01  0.44396390062E+03  0.44552018904E+03  0.19999993934E+01 0.  0.
        -13    1    3    3    0    0  0.36351278590E+02  0.76732215661E+01  0.16845591930E+03  0.17250420776E+03  0.10566000000E+00 0.  1.
         13    1    4    4    0    0 -0.17420738940E+02 -0.42551447422E+01  0.22260285238E+03  0.22332404585E+03  0.10566000000E+00 0. -1.
        -13    1    4    4    0    0 -0.29741187774E+01 -0.37205208521E+00  0.35786278917E+02  0.35911735241E+02  0.10566000000E+00 0.  1.
         14    1    4    4    0    0 -0.15956420872E+02 -0.30460247388E+01  0.18557476933E+03  0.18628440795E+03  0.00000000000E+00 0. -1.
<mgrwt>
<rscale>  0 0.83042876E+02</rscale>
<asrwt>0</asrwt>
<pdfrwt beam="1">  1        2 0.94649678E-01 0.83042876E+02</pdfrwt>
<pdfrwt beam="2">  1       -1 0.43112074E-03 0.83042876E+02</pdfrwt>
<totfact> 0.29383017E+05</totfact>
</mgrwt>
</event>
<event>
 8    1  0.1627221E-013  0.8071489E+02  0.7818608E-02  0.1327035E+00
         -1   -1    0    0    0  501 -0.00000000000E+00  0.00000000000E+00  0.81031915320E+01  0.81031930994E+01  0.50400000000E-02 0.  1.
          2   -1    0    0  501    0  0.00000000000E+00 -0.00000000000E+00 -0.20099772546E+03  0.20099772548E+03  0.25500000000E-02 0. -1.
         24    2    1    2    0    0  0.00000000000E+00  0.00000000000E+00 -0.19289453393E+03  0.20910091858E+03  0.80714886669E+02 0.  0.
         66    2    3    3    0    0 -0.30749299468E+02 -0.38715365922E+01 -0.16337270993E+03  0.16629837812E+03  0.20000005676E+01 0.  0.
        -13    1    3    3    0    0  0.30749299468E+02  0.38715365922E+01 -0.29521824003E+02  0.42802540460E+02  0.10566000000E+00 0.  1.
         13    1    4    4    0    0 -0.13307918263E+02 -0.13865260086E+01 -0.70321388188E+02  0.71583042291E+02  0.10566000000E+00 0. -1.
        -13    1    4    4    0    0 -0.71232444765E+01 -0.10159385844E+01 -0.34297832112E+02  0.35044617200E+02  0.10566000000E+00 0.  1.
         14    1    4    4    0    0 -0.10318136728E+02 -0.14690719991E+01 -0.58753489627E+02  0.59670718627E+02  0.00000000000E+00 0. -1.
<mgrwt>
<rscale>  0 0.80714887E+02</rscale>
<asrwt>0</asrwt>
<pdfrwt beam="1">  1        2 0.30922723E-01 0.80714887E+02</pdfrwt>
<pdfrwt beam="2">  1       -1 0.12466451E-02 0.80714887E+02</pdfrwt>
<totfact> 0.21583868E+05</totfact>
</mgrwt>
</event>
<event>
 8    1  0.1627221E-013  0.8277120E+02  0.7818608E-02  0.1321366E+00
         -1   -1    0    0    0  501 -0.00000000000E+00  0.00000000000E+00  0.69767230813E+01  0.69767249017E+01  0.50400000000E-02 0.  1.
          2   -1    0    0  501    0  0.00000000000E+00 -0.00000000000E+00 -0.24549745646E+03  0.24549745647E+03  0.25500000000E-02 0. -1.
         24    2    1    2    0    0  0.00000000000E+00  0.00000000000E+00 -0.23852073338E+03  0.25247418138E+03  0.82771202779E+02 0.  0.
         66    2    3    3    0    0  0.16709600766E+02  0.85374180102E+01 -0.23176281796E+03  0.23252978746E+03  0.19999997472E+01 0.  0.
        -13    1    3    3    0    0 -0.16709600766E+02 -0.85374180102E+01 -0.67579154142E+01  0.19944393920E+02  0.10566000000E+00 0.  1.
         13    1    4    4    0    0  0.82240115877E+01  0.45521360769E+01 -0.12084912904E+03  0.12121418838E+03  0.10566000000E+00 0. -1.
        -13    1    4    4    0    0  0.15431863458E+01  0.12408420919E+01 -0.24348890623E+02  0.24429505762E+02  0.10566000000E+00 0.  1.
         14    1    4    4    0    0  0.69424028328E+01  0.27444398414E+01 -0.86564798298E+02  0.86886093315E+02  0.00000000000E+00 0. -1.
<mgrwt>
<rscale>  0 0.82771203E+02</rscale>
<asrwt>0</asrwt>
<pdfrwt beam="1">  1        2 0.37768833E-01 0.82771203E+02</pdfrwt>
<pdfrwt beam="2">  1       -1 0.10733423E-02 0.82771203E+02</pdfrwt>
<totfact> 0.21678981E+05</totfact>
</mgrwt>
</event>
<event>
 8    1  0.1627221E-013  0.8797934E+02  0.7818608E-02  0.1307820E+00
          2   -1    0    0  501    0  0.00000000000E+00  0.00000000000E+00  0.96871063228E+02  0.96871063261E+02  0.25500000000E-02 0. -1.
         -1   -1    0    0    0  501 -0.00000000000E+00 -0.00000000000E+00 -0.19975944459E+02  0.19975945095E+02  0.50400000000E-02 0.  1.
         24    2    1    2    0    0  0.00000000000E+00  0.00000000000E+00  0.76895118769E+02  0.11684700836E+03  0.87979338889E+02 0.  0.
         66    2    3    3    0    0 -0.43103763357E+01  0.31858576414E+02  0.78300700515E+02  0.84667277789E+02  0.19999979356E+01 0.  0.
        -13    1    3    3    0    0  0.43103763357E+01 -0.31858576414E+02 -0.14055817465E+01  0.32179730567E+02  0.10566000000E+00 0.  1.
         13    1    4    4    0    0 -0.33572387919E+01  0.24719129135E+02  0.60493066861E+02  0.65434919575E+02  0.10566000000E+00 0. -1.
        -13    1    4    4    0    0 -0.58570985872E+00  0.15146577944E+01  0.40561296319E+01  0.43704228513E+01  0.10566000000E+00 0.  1.
         14    1    4    4    0    0 -0.36742768511E+00  0.56247894849E+01  0.13751504022E+02  0.14861935363E+02  0.00000000000E+00 0. -1.
<mgrwt>
<rscale>  0 0.87979339E+02</rscale>
<asrwt>0</asrwt>
<pdfrwt beam="1">  1        2 0.14903241E-01 0.87979339E+02</pdfrwt>
<pdfrwt beam="2">  1       -1 0.30732223E-02 0.87979339E+02</pdfrwt>
<totfact> 0.13596312E+05</totfact>
</mgrwt>
</event>
<event>
 8    1  0.1627221E-013  0.7918422E+02  0.7818608E-02  0.1331383E+00
          2   -1    0    0  501    0  0.00000000000E+00  0.00000000000E+00  0.70791181572E+03  0.70791181573E+03  0.25500000000E-02 0. -1.
         -1   -1    0    0    0  501 -0.00000000000E+00 -0.00000000000E+00 -0.22143057618E+01  0.22143114975E+01  0.50400000000E-02 0.  1.
         24    2    1    2    0    0 -0.88817841970E-15 -0.35527136788E-14  0.70569750996E+03  0.71012612723E+03  0.79184221928E+02 0.  0.
         66    2    3    3    0    0 -0.57550563407E+01  0.18237726150E+02  0.66370820315E+03  0.66398668229E+03  0.19999995635E+01 0.  0.
        -13    1    3    3    0    0  0.57550563407E+01 -0.18237726150E+02  0.41989306810E+02  0.46139444936E+02  0.10566000000E+00 0.  1.
         13    1    4    4    0    0 -0.23712574550E+01  0.89144022894E+01  0.31949072095E+03  0.31962387484E+03  0.10566000000E+00 0. -1.
        -13    1    4    4    0    0  0.41429994653E-01  0.79816938063E+00  0.23911371507E+02  0.23924958562E+02  0.10566000000E+00 0.  1.
        -14    1    4    4    0    0 -0.34252288804E+01  0.85251544797E+01  0.32030611069E+03  0.32043784888E+03  0.00000000000E+00 0.  1.
<mgrwt>
<rscale>  0 0.79184222E+02</rscale>
<asrwt>0</asrwt>
<pdfrwt beam="1">  1        2 0.10890948E+00 0.79184222E+02</pdfrwt>
<pdfrwt beam="2">  1       -1 0.34066296E-03 0.79184222E+02</pdfrwt>
<totfact> 0.34442096E+05</totfact>
</mgrwt>
</event>
<event>
 8    1  0.1627221E-013  0.8200151E+02  0.7818608E-02  0.1323466E+00
         -1   -1    0    0    0  501 -0.00000000000E+00  0.00000000000E+00  0.26872874194E+02  0.26872874667E+02  0.50400000000E-02 0.  1.
          2   -1    0    0  501    0  0.00000000000E+00 -0.00000000000E+00 -0.62556088224E+02  0.62556088276E+02  0.25500000000E-02 0. -1.
         24    2    1    2    0    0  0.00000000000E+00  0.00000000000E+00 -0.35683214030E+02  0.89428962943E+02  0.82001510044E+02 0.  0.
         66    2    3    3    0    0  0.20584279662E+02 -0.26254863239E+02 -0.43798448710E+02  0.55093869950E+02  0.19999959343E+01 0.  0.
        -13    1    3    3    0    0 -0.20584279662E+02  0.26254863239E+02  0.81152346800E+01  0.34335092993E+02  0.10566000000E+00 0.  1.
         13    1    4    4    0    0  0.20356284976E+01 -0.30233503373E+01 -0.41831117437E+01  0.55492358517E+01  0.10566000000E+00 0. -1.
        -13    1    4    4    0    0  0.62638664740E+01 -0.79453524515E+01 -0.12530372351E+02  0.16105466279E+02  0.10566000000E+00 0.  1.
         14    1    4    4    0    0  0.12284784690E+02 -0.15286160451E+02 -0.27084964615E+02  0.33439167819E+02  0.00000000000E+00 0. -1.
<mgrwt>
<rscale>  0 0.82001510E+02</rscale>
<asrwt>0</asrwt>
<pdfrwt beam="1">  1        2 0.96240135E-02 0.82001510E+02</pdfrwt>
<pdfrwt beam="2">  1       -1 0.41342884E-02 0.82001510E+02</pdfrwt>
<totfact> 0.14695787E+05</totfact>
</mgrwt>
</event>
<event>
 8    1  0.1627221E-013  0.8136803E+02  0.7818608E-02  0.1325213E+00
         -1   -1    0    0    0  501 -0.00000000000E+00  0.00000000000E+00  0.48396873479E+02  0.48396873742E+02  0.50400000000E-02 0.  1.
          2   -1    0    0  501    0  0.00000000000E+00 -0.00000000000E+00 -0.34200329001E+02  0.34200329096E+02  0.25500000000E-02 0. -1.
         24    2    1    2    0    0 -0.35527136788E-14  0.00000000000E+00  0.14196544479E+02  0.82597202837E+02  0.81368028374E+02 0.  0.
         66    2    3    3    0    0 -0.30274447343E+02  0.56754288031E+01 -0.19839517051E+02  0.36692766206E+02  0.20000002474E+01 0.  0.
        -13    1    3    3    0    0  0.30274447343E+02 -0.56754288031E+01  0.34036061529E+02  0.45904436632E+02  0.10566000000E+00 0.  1.
         13    1    4    4    0    0 -0.21929060411E+02  0.47415819189E+01 -0.13872399735E+02  0.26378417846E+02  0.10566000000E+00 0. -1.
        -13    1    4    4    0    0 -0.35215553853E+01  0.20793837610E+00 -0.23193656647E+01  0.42231755614E+01  0.10566000000E+00 0.  1.
         14    1    4    4    0    0 -0.48238315467E+01  0.72590850812E+00 -0.36477516510E+01  0.60911727985E+01  0.00000000000E+00 0. -1.
<mgrwt>
<rscale>  0 0.81368028E+02</rscale>
<asrwt>0</asrwt>
<pdfrwt beam="1">  1        2 0.52615891E-02 0.81368028E+02</pdfrwt>
<pdfrwt beam="2">  1       -1 0.74456728E-02 0.81368028E+02</pdfrwt>
<totfact> 0.13172168E+05</totfact>
</mgrwt>
</event>
<event>
 8    1  0.1627221E-013  0.7869462E+02  0.7818608E-02  0.1332797E+00
          2   -1    0    0  501    0  0.00000000000E+00  0.00000000000E+00  0.60366758024E+02  0.60366758078E+02  0.25500000000E-02 0. -1.
         -1   -1    0    0    0  501 -0.00000000000E+00 -0.00000000000E+00 -0.25646742063E+02  0.25646742559E+02  0.50400000000E-02 0.  1.
         24    2    1    2    0    0  0.00000000000E+00  0.35527136788E-14  0.34720015961E+02  0.86013500637E+02  0.78694617246E+02 0.  0.
         66    2    3    3    0    0  0.12576547389E+02 -0.29379605580E+02  0.42412066625E+02  0.53142395153E+02  0.19999997248E+01 0.  0.
        -13    1    3    3    0    0 -0.12576547389E+02  0.29379605580E+02 -0.76920506645E+01  0.32871105484E+02  0.10566000000E+00 0.  1.
         13    1    4    4    0    0  0.28820922787E+01 -0.88061643116E+01  0.12033874732E+02  0.15188162854E+02  0.10566000000E+00 0. -1.
        -13    1    4    4    0    0  0.44398358744E+01 -0.87520915405E+01  0.13341252025E+02  0.16562349428E+02  0.10566000000E+00 0.  1.
         14    1    4    4    0    0  0.52546192362E+01 -0.11821349728E+02  0.17036939868E+02  0.21391882871E+02  0.00000000000E+00 0. -1.
<mgrwt>
<rscale>  0 0.78694617E+02</rscale>
<asrwt>0</asrwt>
<pdfrwt beam="1">  1        2 0.92871934E-02 0.78694617E+02</pdfrwt>
<pdfrwt beam="2">  1       -1 0.39456527E-02 0.78694617E+02</pdfrwt>
<totfact> 0.16300758E+05</totfact>
</mgrwt>
</event>
<event>
 8    1  0.1627221E-013  0.7892333E+02  0.7818608E-02  0.1332135E+00
         -1   -1    0    0    0  501 -0.00000000000E+00  0.00000000000E+00  0.70013028568E+01  0.70013046709E+01  0.50400000000E-02 0.  1.
          2   -1    0    0  501    0  0.00000000000E+00 -0.00000000000E+00 -0.22241900889E+03  0.22241900891E+03  0.25500000000E-02 0. -1.
         24    2    1    2    0    0 -0.35527136788E-14  0.00000000000E+00 -0.21541770604E+03  0.22942031358E+03  0.78923331206E+02 0.  0.
         66    2    3    3    0    0  0.24099564827E+02  0.26446178610E+01 -0.19819217985E+03  0.19967955123E+03  0.19999998253E+01 0.  0.
        -13    1    3    3    0    0 -0.24099564827E+02 -0.26446178610E+01 -0.17225526191E+02  0.29740762348E+02  0.10566000000E+00 0.  1.
         13    1    4    4    0    0  0.43768811523E+01  0.69150861957E+00 -0.39719454609E+02  0.39966004444E+02  0.10566000000E+00 0. -1.
        -13    1    4    4    0    0  0.19526836853E+01  0.51796289672E+00 -0.18389696327E+02  0.18500631183E+02  0.10566000000E+00 0.  1.
        -14    1    4    4    0    0  0.17769999989E+02  0.14351463447E+01 -0.14008302891E+03  0.14121291560E+03  0.00000000000E+00 0.  1.
<mgrwt>
<rscale>  0 0.78923331E+02</rscale>
<asrwt>0</asrwt>
<pdfrwt beam="1">  1        2 0.34218304E-01 0.78923331E+02</pdfrwt>
<pdfrwt beam="2">  1       -1 0.10771238E-02 0.78923331E+02</pdfrwt>
<totfact> 0.23726752E+05</totfact>
</mgrwt>
</event>
<event>
 8    1  0.1627221E-013  0.7899688E+02  0.7818608E-02  0.1331922E+00
          2   -1    0    0  501    0  0.00000000000E+00  0.00000000000E+00  0.41964459559E+02  0.41964459637E+02  0.25500000000E-02 0. -1.
         -1   -1    0    0    0  501 -0.00000000000E+00 -0.00000000000E+00 -0.37177337522E+02  0.37177337863E+02  0.50400000000E-02 0.  1.
         24    2    1    2    0    0 -0.71054273576E-14  0.00000000000E+00  0.47871220376E+01  0.79141797500E+02  0.78996883319E+02 0.  0.
         66    2    3    3    0    0 -0.28620811905E+02 -0.70058874998E+01  0.28709004380E+02  0.41187865522E+02  0.19999999980E+01 0.  0.
        -13    1    3    3    0    0  0.28620811905E+02  0.70058874998E+01 -0.23921882343E+02  0.37953931978E+02  0.10566000000E+00 0.  1.
         13    1    4    4    0    0 -0.96887322246E+01 -0.22461653513E+01  0.96823190145E+01  0.13880751292E+02  0.10566000000E+00 0. -1.
        -13    1    4    4    0    0 -0.65410164068E+00  0.67582896829E-01  0.86764196796E+00  0.10937929532E+01  0.10566000000E+00 0.  1.
        -14    1    4    4    0    0 -0.18277978039E+02 -0.48273050453E+01  0.18159043398E+02  0.26213321276E+02  0.00000000000E+00 0.  1.
<mgrwt>
<rscale>  0 0.78996883E+02</rscale>
<asrwt>0</asrwt>
<pdfrwt beam="1">  1        2 0.64560707E-02 0.78996883E+02</pdfrwt>
<pdfrwt beam="2">  1       -1 0.57195905E-02 0.78996883E+02</pdfrwt>
<totfact> 0.14906586E+05</totfact>
</mgrwt>
</event>
<event>
 8    1  0.1627221E-013  0.8088069E+02  0.7818608E-02  0.1326571E+00
         -1   -1    0    0    0  501 -0.00000000000E+00  0.00000000000E+00  0.12817728470E+02  0.12817729461E+02  0.50400000000E-02 0.  1.
          2   -1    0    0  501    0  0.00000000000E+00 -0.00000000000E+00 -0.12759057130E+03  0.12759057133E+03  0.25500000000E-02 0. -1.
         24    2    1    2    0    0  0.17763568394E-14  0.00000000000E+00 -0.11477284283E+03  0.14040830079E+03  0.80880686685E+02 0.  0.
         66    2    3    3    0    0  0.93890369190E+01  0.37031267910E+02 -0.34525542776E+02  0.51531368193E+02  0.19999966567E+01 0.  0.
        -13    1    3    3    0    0 -0.93890369190E+01 -0.37031267910E+02 -0.80247300054E+02  0.88876932593E+02  0.10566000000E+00 0.  1.
         13    1    4    4    0    0  0.25072288209E+01  0.78247486138E+01 -0.76276570816E+01  0.11211833205E+02  0.10566000000E+00 0. -1.
        -13    1    4    4    0    0  0.31598854663E+01  0.14194975677E+02 -0.13894001918E+02  0.20113096827E+02  0.10566000000E+00 0.  1.
        -14    1    4    4    0    0  0.37219226318E+01  0.15011543619E+02 -0.13003883777E+02  0.20206438162E+02  0.00000000000E+00 0.  1.
<mgrwt>
<rscale>  0 0.80880687E+02</rscale>
<asrwt>0</asrwt>
<pdfrwt beam="1">  1        2 0.19629318E-01 0.80880687E+02</pdfrwt>
<pdfrwt beam="2">  1       -1 0.19719584E-02 0.80880687E+02</pdfrwt>
<totfact> 0.18489551E+05</totfact>
</mgrwt>
</event>
<event>
 8    1  0.1627221E-013  0.7813659E+02  0.7818608E-02  0.1334424E+00
         -1   -1    0    0    0  501 -0.00000000000E+00  0.00000000000E+00  0.14895379711E+01  0.14895464977E+01  0.50400000000E-02 0.  1.
          2   -1    0    0  501    0  0.00000000000E+00 -0.00000000000E+00 -0.10246984707E+04  0.10246984707E+04  0.25500000000E-02 0. -1.
         24    2    1    2    0    0  0.44408920985E-15  0.00000000000E+00 -0.10232089327E+04  0.10261880172E+04  0.78136589575E+02 0.  0.
         66    2    3    3    0    0 -0.38470028520E+01 -0.20481973856E+02 -0.94553837608E+03  0.94577012604E+03  0.19999980147E+01 0.  0.
        -13    1    3    3    0    0  0.38470028520E+01  0.20481973856E+02 -0.77670556641E+02  0.80417891150E+02  0.10566000000E+00 0.  1.
         13    1    4    4    0    0 -0.30336785712E+01 -0.15183261876E+02 -0.67028976411E+03  0.67046857769E+03  0.10566000000E+00 0. -1.
        -13    1    4    4    0    0  0.70585201201E-01 -0.42791724877E+00 -0.24801990449E+02  0.24806007130E+02  0.10566000000E+00 0. -1.
         14    1    4    4    0    0 -0.88390948200E+00 -0.48707947317E+01 -0.25044662152E+03  0.25049554122E+03  0.00000000000E+00 0. -1.
<mgrwt>
<rscale>  0 0.78136590E+02</rscale>
<asrwt>0</asrwt>
<pdfrwt beam="1">  1        2 0.15764535E+00 0.78136590E+02</pdfrwt>
<pdfrwt beam="2">  1       -1 0.22916116E-03 0.78136590E+02</pdfrwt>
<totfact> 0.37481653E+05</totfact>
</mgrwt>
</event>
<event>
 8    1  0.1627221E-013  0.7062474E+02  0.7818608E-02  0.1357981E+00
         -1   -1    0    0    0  501 -0.00000000000E+00  0.00000000000E+00  0.14303238372E+02  0.14303239260E+02  0.50400000000E-02 0.  1.
          2   -1    0    0  501    0  0.00000000000E+00 -0.00000000000E+00 -0.87180498938E+02  0.87180498975E+02  0.25500000000E-02 0. -1.
         24    2    1    2    0    0 -0.22204460493E-15  0.00000000000E+00 -0.72877260566E+02  0.10148373824E+03  0.70624740839E+02 0.  0.
         66    2    3    3    0    0  0.10645676404E+01  0.16479141641E+02 -0.81273292081E+02  0.82958082438E+02  0.20000056213E+01 0.  0.
        -13    1    3    3    0    0 -0.10645676404E+01 -0.16479141641E+02  0.83960315149E+01  0.18525655798E+02  0.10566000000E+00 0.  1.
         13    1    4    4    0    0 -0.10895080166E-01  0.13763314928E+01 -0.71350522076E+01  0.72673613589E+01  0.10566000000E+00 0. -1.
        -13    1    4    4    0    0  0.11829590263E+01  0.82493611810E+01 -0.37238823930E+02  0.38160090719E+02  0.10566000000E+00 0.  1.
        -14    1    4    4    0    0 -0.10749630573E+00  0.68534489677E+01 -0.36899415944E+02  0.37530630360E+02  0.00000000000E+00 0.  1.
<mgrwt>
<rscale>  0 0.70624741E+02</rscale>
<asrwt>0</asrwt>
<pdfrwt beam="1">  1        2 0.13412384E-01 0.70624741E+02</pdfrwt>
<pdfrwt beam="2">  1       -1 0.22004983E-02 0.70624741E+02</pdfrwt>
<totfact> 0.23804200E+05</totfact>
</mgrwt>
</event>
<event>
 8    1  0.1627221E-013  0.7988551E+02  0.7818608E-02  0.1329377E+00
         -1   -1    0    0    0  501 -0.00000000000E+00  0.00000000000E+00  0.30475202083E+01  0.30475243758E+01  0.50400000000E-02 0.  1.
          2   -1    0    0  501    0  0.00000000000E+00 -0.00000000000E+00 -0.52351500981E+03  0.52351500981E+03  0.25500000000E-02 0. -1.
         24    2    1    2    0    0 -0.35527136788E-14  0.11102230246E-15 -0.52046748960E+03  0.52656253419E+03  0.79885509840E+02 0.  0.
         66    2    3    3    0    0  0.31141133839E+02  0.90856909046E+00 -0.42489578136E+03  0.42604110217E+03  0.20000024812E+01 0.  0.
        -13    1    3    3    0    0 -0.31141133839E+02 -0.90856909046E+00 -0.95571708239E+02  0.10052143202E+03  0.10566000000E+00 0.  1.
         13    1    4    4    0    0  0.20082767912E+02 -0.20335698943E-01 -0.28151272228E+03  0.28222817356E+03  0.10566000000E+00 0. -1.
        -13    1    4    4    0    0  0.95930890744E+01  0.62713652054E+00 -0.12470461340E+03  0.12507466741E+03  0.10566000000E+00 0.  1.
        -14    1    4    4    0    0  0.14652768522E+01  0.30176826886E+00 -0.18678445675E+02  0.18738261210E+02  0.00000000000E+00 0.  1.
<mgrwt>
<rscale>  0 0.79885510E+02</rscale>
<asrwt>0</asrwt>
<pdfrwt beam="1">  1        2 0.80540700E-01 0.79885510E+02</pdfrwt>
<pdfrwt beam="2">  1       -1 0.46885000E-03 0.79885510E+02</pdfrwt>
<totfact> 0.31009867E+05</totfact>
</mgrwt>
</event>
<event>
 8    1  0.1627221E-013  0.7803580E+02  0.7818608E-02  0.1334720E+00
         -1   -1    0    0    0  501 -0.00000000000E+00  0.00000000000E+00  0.20479824029E+01  0.20479886045E+01  0.50400000000E-02 0.  1.
          2   -1    0    0  501    0  0.00000000000E+00 -0.00000000000E+00 -0.74336290389E+03  0.74336290389E+03  0.25500000000E-02 0. -1.
         24    2    1    2    0    0  0.00000000000E+00  0.88817841970E-15 -0.74131492148E+03  0.74541089249E+03  0.78035798429E+02 0.  0.
         66    2    3    3    0    0 -0.17031679716E+02 -0.78831013821E+01 -0.69737899035E+03  0.69763434375E+03  0.19999992577E+01 0.  0.
        -13    1    3    3    0    0  0.17031679716E+02  0.78831013821E+01 -0.43935931129E+02  0.47776548741E+02  0.10566000000E+00 0.  1.
         13    1    4    4    0    0 -0.85084701783E+01 -0.38112095307E+01 -0.34810954456E+03  0.34823438308E+03  0.10566000000E+00 0. -1.
        -13    1    4    4    0    0 -0.34598207495E+01 -0.14577037599E+01 -0.16351868448E+03  0.16356181277E+03  0.10566000000E+00 0.  1.
         14    1    4    4    0    0 -0.50633887880E+01 -0.26141880915E+01 -0.18575076132E+03  0.18583814790E+03  0.00000000000E+00 0. -1.
<mgrwt>
<rscale>  0 0.78035798E+02</rscale>
<asrwt>0</asrwt>
<pdfrwt beam="1">  1        2 0.11436331E+00 0.78035798E+02</pdfrwt>
<pdfrwt beam="2">  1       -1 0.31507529E-03 0.78035798E+02</pdfrwt>
<totfact> 0.36150138E+05</totfact>
</mgrwt>
</event>
<event>
 8    1  0.1627221E-013  0.8066870E+02  0.7818608E-02  0.1327164E+00
         -1   -1    0    0    0  501 -0.00000000000E+00  0.00000000000E+00  0.62594246265E+02  0.62594246468E+02  0.50400000000E-02 0.  1.
          2   -1    0    0  501    0  0.00000000000E+00 -0.00000000000E+00 -0.25990561690E+02  0.25990561815E+02  0.25500000000E-02 0. -1.
         24    2    1    2    0    0  0.00000000000E+00  0.88817841970E-15  0.36603684575E+02  0.88584808283E+02  0.80668696122E+02 0.  0.
         66    2    3    3    0    0  0.19038326626E+02  0.76713698381E+01 -0.19783495587E+02  0.28577866630E+02  0.19999918942E+01 0.  0.
        -13    1    3    3    0    0 -0.19038326626E+02 -0.76713698381E+01  0.56387180162E+02  0.60006941653E+02  0.10566000000E+00 0.  1.
         13    1    4    4    0    0  0.39497880734E+01  0.11368144550E+01 -0.39329171503E+01  0.56896550227E+01  0.10566000000E+00 0.  1.
        -13    1    4    4    0    0  0.99452884084E+01  0.45642346043E+01 -0.11449769374E+02  0.15838225337E+02  0.10566000000E+00 0. -1.
        -14    1    4    4    0    0  0.51432501443E+01  0.19703207789E+01 -0.44008090623E+01  0.70499862710E+01  0.00000000000E+00 0.  1.
<mgrwt>
<rscale>  0 0.80668696E+02</rscale>
<asrwt>0</asrwt>
<pdfrwt beam="1">  1        2 0.39985480E-02 0.80668696E+02</pdfrwt>
<pdfrwt beam="2">  1       -1 0.96298840E-02 0.80668696E+02</pdfrwt>
<totfact> 0.12775979E+05</totfact>
</mgrwt>
</event>
<event>
 8    1  0.1627221E-013  0.7982080E+02  0.7818608E-02  0.1329561E+00
         -1   -1    0    0    0  501 -0.00000000000E+00  0.00000000000E+00  0.28317414073E+02  0.28317414521E+02  0.50400000000E-02 0.  1.
          2   -1    0    0  501    0  0.00000000000E+00 -0.00000000000E+00 -0.56249484826E+02  0.56249484883E+02  0.25500000000E-02 0. -1.
         24    2    1    2    0    0 -0.22204460493E-15  0.00000000000E+00 -0.27932070753E+02  0.84566899405E+02  0.79820798658E+02 0.  0.
         66    2    3    3    0    0  0.11120665349E+01 -0.33176316529E+02 -0.37401301900E+02  0.50047597949E+02  0.20000015602E+01 0.  0.
        -13    1    3    3    0    0 -0.11120665349E+01  0.33176316529E+02  0.94692311477E+01  0.34519301455E+02  0.10566000000E+00 0.  1.
         13    1    4    4    0    0  0.29245086924E+00 -0.20264401468E+02 -0.22654792547E+02  0.30397076895E+02  0.10566000000E+00 0. -1.
        -13    1    4    4    0    0 -0.12041294160E+00 -0.32283031788E+00 -0.33997541871E+00  0.49544526598E+00  0.10566000000E+00 0.  1.
         14    1    4    4    0    0  0.94002860725E+00 -0.12589084743E+02 -0.14406533935E+02  0.19155075788E+02  0.00000000000E+00 0. -1.
<mgrwt>
<rscale>  0 0.79820799E+02</rscale>
<asrwt>0</asrwt>
<pdfrwt beam="1">  1        2 0.86537669E-02 0.79820799E+02</pdfrwt>
<pdfrwt beam="2">  1       -1 0.43565253E-02 0.79820799E+02</pdfrwt>
<totfact> 0.15432430E+05</totfact>
</mgrwt>
</event>
<event>
 8    1  0.1627221E-013  0.7914895E+02  0.7818608E-02  0.1331484E+00
          2   -1    0    0  501    0  0.00000000000E+00  0.00000000000E+00  0.16292361694E+03  0.16292361696E+03  0.25500000000E-02 0. -1.
         -1   -1    0    0    0  501 -0.00000000000E+00 -0.00000000000E+00 -0.96127199915E+01  0.96127213127E+01  0.50400000000E-02 0.  1.
         24    2    1    2    0    0  0.00000000000E+00  0.00000000000E+00  0.15331089695E+03  0.17253633827E+03  0.79148953887E+02 0.  0.
         66    2    3    3    0    0  0.32021274917E+02  0.11972901170E+02  0.12005192547E+03  0.12484060725E+03  0.20000001586E+01 0.  0.
        -13    1    3    3    0    0 -0.32021274917E+02 -0.11972901170E+02  0.33258971483E+02  0.47695731023E+02  0.10566000000E+00 0.  1.
         13    1    4    4    0    0  0.47527639678E+01  0.18208458151E+01  0.16038443349E+02  0.16826974592E+02  0.10566000000E+00 0. -1.
        -13    1    4    4    0    0  0.20277112726E+02  0.71170105119E+01  0.75458103382E+02  0.78458585695E+02  0.10566000000E+00 0.  1.
        -14    1    4    4    0    0  0.69913982229E+01  0.30350448435E+01  0.28555378734E+02  0.29555046962E+02  0.00000000000E+00 0.  1.
<mgrwt>
<rscale>  0 0.79148954E+02</rscale>
<asrwt>0</asrwt>
<pdfrwt beam="1">  1        2 0.25065170E-01 0.79148954E+02</pdfrwt>
<pdfrwt beam="2">  1       -1 0.14788802E-02 0.79148954E+02</pdfrwt>
<totfact> 0.21168073E+05</totfact>
</mgrwt>
</event>
<event>
 8    1  0.1627221E-013  0.7911209E+02  0.7818608E-02  0.1331590E+00
         -1   -1    0    0    0  501 -0.00000000000E+00  0.00000000000E+00  0.24876119862E+02  0.24876120373E+02  0.50400000000E-02 0.  1.
          2   -1    0    0  501    0  0.00000000000E+00 -0.00000000000E+00 -0.62898911336E+02  0.62898911388E+02  0.25500000000E-02 0. -1.
         24    2    1    2    0    0  0.00000000000E+00  0.00000000000E+00 -0.38022791474E+02  0.87775031761E+02  0.79112094708E+02 0.  0.
         66    2    3    3    0    0 -0.11294432863E+02  0.29076510543E+02 -0.45965645801E+02  0.55586403677E+02  0.20000001885E+01 0.  0.
        -13    1    3    3    0    0  0.11294432863E+02 -0.29076510543E+02  0.79428543265E+01  0.32188628084E+02  0.10566000000E+00 0.  1.
         13    1    4    4    0    0 -0.73684111397E+01  0.18327505599E+02 -0.29462713997E+02  0.35471870888E+02  0.10566000000E+00 0. -1.
        -13    1    4    4    0    0 -0.72436954105E+00  0.32818626061E+01 -0.44064704702E+01  0.55428764588E+01  0.10566000000E+00 0. -1.
        -14    1    4    4    0    0 -0.32016521824E+01  0.74671423375E+01 -0.12096461334E+02  0.14571656329E+02  0.00000000000E+00 0.  1.
<mgrwt>
<rscale>  0 0.79112095E+02</rscale>
<asrwt>0</asrwt>
<pdfrwt beam="1">  1        2 0.96767555E-02 0.79112095E+02</pdfrwt>
<pdfrwt beam="2">  1       -1 0.38270954E-02 0.79112095E+02</pdfrwt>
<totfact> 0.16222245E+05</totfact>
</mgrwt>
</event>
<event>
 8    1  0.1627221E-013  0.7943711E+02  0.7818608E-02  0.1330656E+00
         -1   -1    0    0    0  501 -0.00000000000E+00  0.00000000000E+00  0.15525972403E+02  0.15525973221E+02  0.50400000000E-02 0.  1.
          2   -1    0    0  501    0  0.00000000000E+00 -0.00000000000E+00 -0.10160804507E+03  0.10160804510E+03  0.25500000000E-02 0. -1.
         24    2    1    2    0    0  0.00000000000E+00 -0.17763568394E-14 -0.86082072664E+02  0.11713401832E+03  0.79437113579E+02 0.  0.
         66    2    3    3    0    0  0.80029887734E+01 -0.13218508617E+02 -0.96980794408E+02  0.98224494291E+02  0.19999988213E+01 0.  0.
        -13    1    3    3    0    0 -0.80029887734E+01  0.13218508617E+02  0.10898721744E+02  0.18909524030E+02  0.10566000000E+00 0.  1.
         13    1    4    4    0    0  0.36527639222E+01 -0.45478658187E+01 -0.36228253303E+02  0.36695003328E+02  0.10566000000E+00 0.  1.
        -13    1    4    4    0    0  0.34309254365E+01 -0.58993429105E+01 -0.43124539662E+02  0.43661316760E+02  0.10566000000E+00 0. -1.
        -14    1    4    4    0    0  0.91929941467E+00 -0.27712998877E+01 -0.17628001443E+02  0.17868174203E+02  0.00000000000E+00 0.  1.
<mgrwt>
<rscale>  0 0.79437114E+02</rscale>
<asrwt>0</asrwt>
<pdfrwt beam="1">  1        2 0.15632007E-01 0.79437114E+02</pdfrwt>
<pdfrwt beam="2">  1       -1 0.23886113E-02 0.79437114E+02</pdfrwt>
<totfact> 0.18145130E+05</totfact>
</mgrwt>
</event>
<event>
 8    1  0.1756977E-013  0.8104736E+02  0.7818608E-02  0.1326105E+00
         -1   -1    0    0    0  501 -0.00000000000E+00  0.00000000000E+00  0.10140609537E+02  0.10140610789E+02  0.50400000000E-02 0.  1.
          2   -1    0    0  501    0  0.00000000000E+00 -0.00000000000E+00 -0.16193984281E+03  0.16193984283E+03  0.25500000000E-02 0. -1.
         24    2    1    2    0    0  0.00000000000E+00  0.00000000000E+00 -0.15179923327E+03  0.17208045362E+03  0.81047364518E+02 0.  0.
         66    2    3    3    0    0  0.17859234951E+02 -0.10610816791E+02 -0.14975956698E+03  0.15120671153E+03  0.20000012124E+01 0.  0.
        -13    1    3    3    0    0 -0.17859234951E+02  0.10610816791E+02 -0.20396662923E+01  0.20873742084E+02  0.10566000000E+00 0.  1.
         13    1    4    4    0    0  0.89059242055E+01 -0.54394691736E+01 -0.73537712480E+02  0.74274555749E+02  0.10566000000E+00 0. -1.
        -13    1    4    4    0    0  0.85778153357E+01 -0.50627634488E+01 -0.70949154685E+02  0.71644987293E+02  0.10566000000E+00 0.  1.
        -14    1    4    4    0    0  0.37549540931E+00 -0.10858416819E+00 -0.52726998123E+01  0.52871684893E+01  0.00000000000E+00 0.  1.
<mgrwt>
<rscale>  0 0.81047365E+02</rscale>
<asrwt>0</asrwt>
<pdfrwt beam="1">  1        2 0.24913820E-01 0.81047365E+02</pdfrwt>
<pdfrwt beam="2">  1       -1 0.15600940E-02 0.81047365E+02</pdfrwt>
<totfact> 0.19839955E+05</totfact>
</mgrwt>
</event>
<event>
 8    1  0.1627221E-013  0.7750576E+02  0.7818608E-02  0.1336283E+00
          2   -1    0    0  501    0  0.00000000000E+00  0.00000000000E+00  0.10562650608E+03  0.10562650611E+03  0.25500000000E-02 0. -1.
         -1   -1    0    0    0  501 -0.00000000000E+00 -0.00000000000E+00 -0.14217885272E+02  0.14217886165E+02  0.50400000000E-02 0.  1.
         24    2    1    2    0    0 -0.17763568394E-14  0.00000000000E+00  0.91408620807E+02  0.11984439228E+03  0.77505757218E+02 0.  0.
         66    2    3    3    0    0  0.13268473184E+02  0.36323173623E+02  0.42507683358E+02  0.57500682328E+02  0.20000002549E+01 0.  0.
        -13    1    3    3    0    0 -0.13268473184E+02 -0.36323173623E+02  0.48900937449E+02  0.62343709948E+02  0.10566000000E+00 0.  1.
         13    1    4    4    0    0  0.23543353283E+01  0.86556098764E+01  0.97774175596E+01  0.13269194977E+02  0.10566000000E+00 0. -1.
        -13    1    4    4    0    0  0.40618068795E+00  0.11620351591E+01  0.12260161560E+01  0.17405712029E+01  0.10566000000E+00 0. -1.
        -14    1    4    4    0    0  0.10507957167E+02  0.26505528587E+02  0.31504249643E+02  0.42490916148E+02  0.00000000000E+00 0.  1.
<mgrwt>
<rscale>  0 0.77505757E+02</rscale>
<asrwt>0</asrwt>
<pdfrwt beam="1">  1        2 0.16250232E-01 0.77505757E+02</pdfrwt>
<pdfrwt beam="2">  1       -1 0.21873671E-02 0.77505757E+02</pdfrwt>
<totfact> 0.19591189E+05</totfact>
</mgrwt>
</event>
<event>
 8    1  0.1627221E-013  0.7844843E+02  0.7818608E-02  0.1333513E+00
         -1   -1    0    0    0  501 -0.00000000000E+00  0.00000000000E+00  0.53196030384E+02  0.53196030622E+02  0.50400000000E-02 0.  1.
          2   -1    0    0  501    0  0.00000000000E+00 -0.00000000000E+00 -0.28922067322E+02  0.28922067434E+02  0.25500000000E-02 0. -1.
         24    2    1    2    0    0 -0.35527136788E-14  0.00000000000E+00  0.24273963062E+02  0.82118098057E+02  0.78448433673E+02 0.  0.
         66    2    3    3    0    0 -0.22490318961E+02  0.25006941243E+02 -0.89308442181E+01  0.34855724567E+02  0.19999998341E+01 0.  0.
        -13    1    3    3    0    0  0.22490318961E+02 -0.25006941243E+02  0.33204807280E+02  0.47262373489E+02  0.10566000000E+00 0.  1.
         13    1    4    4    0    0 -0.16185102700E+02  0.16833110438E+02 -0.65738774706E+01  0.24259805965E+02  0.10566000000E+00 0. -1.
        -13    1    4    4    0    0 -0.22485811124E+01  0.31848488286E+01 -0.92748640323E+00  0.40088370064E+01  0.10566000000E+00 0.  1.
         14    1    4    4    0    0 -0.40566351484E+01  0.49889819773E+01 -0.14294803443E+01  0.65870815959E+01  0.00000000000E+00 0. -1.
<mgrwt>
<rscale>  0 0.78448434E+02</rscale>
<asrwt>0</asrwt>
<pdfrwt beam="1">  1        2 0.44495489E-02 0.78448434E+02</pdfrwt>
<pdfrwt beam="2">  1       -1 0.81840046E-02 0.78448434E+02</pdfrwt>
<totfact> 0.14112473E+05</totfact>
</mgrwt>
</event>
<event>
 8    1  0.1627221E-013  0.8227326E+02  0.7818608E-02  0.1322721E+00
         -1   -1    0    0    0  501 -0.00000000000E+00  0.00000000000E+00  0.34088794892E+02  0.34088795265E+02  0.50400000000E-02 0.  1.
          2   -1    0    0  501    0  0.00000000000E+00 -0.00000000000E+00 -0.49641599804E+02  0.49641599870E+02  0.25500000000E-02 0. -1.
         24    2    1    2    0    0  0.00000000000E+00  0.00000000000E+00 -0.15552804912E+02  0.83730395134E+02  0.82273260108E+02 0.  0.
         66    2    3    3    0    0 -0.39119783002E+02  0.11547022299E+02 -0.25394091789E+01  0.40916252860E+02  0.20000007650E+01 0.  0.
        -13    1    3    3    0    0  0.39119783002E+02 -0.11547022299E+02 -0.13013395734E+02  0.42814142274E+02  0.10566000000E+00 0.  1.
         13    1    4    4    0    0 -0.95331613104E+01  0.25039641934E+01 -0.80592901484E+00  0.98899791135E+01  0.10566000000E+00 0. -1.
        -13    1    4    4    0    0 -0.28138596550E+01  0.57943960591E+00 -0.51901558127E+00  0.29213177890E+01  0.10566000000E+00 0.  1.
        -14    1    4    4    0    0 -0.26772762037E+02  0.84636184995E+01 -0.12144645828E+01  0.28104955958E+02  0.00000000000E+00 0.  1.
<mgrwt>
<rscale>  0 0.82273260E+02</rscale>
<asrwt>0</asrwt>
<pdfrwt beam="1">  1        2 0.76371692E-02 0.82273260E+02</pdfrwt>
<pdfrwt beam="2">  1       -1 0.52444301E-02 0.82273260E+02</pdfrwt>
<totfact> 0.13814926E+05</totfact>
</mgrwt>
</event>
<event>
 8    1  0.1627221E-013  0.7467696E+02  0.7818608E-02  0.1344874E+00
         -1   -1    0    0    0  501 -0.00000000000E+00  0.00000000000E+00  0.13944281397E+02  0.13944282308E+02  0.50400000000E-02 0.  1.
          2   -1    0    0  501    0  0.00000000000E+00 -0.00000000000E+00 -0.99980905058E+02  0.99980905090E+02  0.25500000000E-02 0. -1.
         24    2    1    2    0    0  0.00000000000E+00  0.00000000000E+00 -0.86036623660E+02  0.11392518740E+03  0.74676955701E+02 0.  0.
         66    2    3    3    0    0  0.35790871711E+02  0.91522510181E+01 -0.51035698059E+02  0.63034852819E+02  0.19999992691E+01 0.  0.
        -13    1    3    3    0    0 -0.35790871711E+02 -0.91522510181E+01 -0.35000925602E+02  0.50890334579E+02  0.10566000000E+00 0.  1.
         13    1    4    4    0    0  0.60047112042E+01  0.16829652304E+01 -0.79892486942E+01  0.10135491470E+02  0.10566000000E+00 0. -1.
        -13    1    4    4    0    0  0.67647240970E+01  0.19095322026E+01 -0.88429900120E+01  0.11296789001E+02  0.10566000000E+00 0.  1.
         14    1    4    4    0    0  0.23021436410E+02  0.55597535850E+01 -0.34203459353E+02  0.41602572348E+02  0.00000000000E+00 0. -1.
<mgrwt>
<rscale>  0 0.74676956E+02</rscale>
<asrwt>0</asrwt>
<pdfrwt beam="1">  1        2 0.15381677E-01 0.74676956E+02</pdfrwt>
<pdfrwt beam="2">  1       -1 0.21452742E-02 0.74676956E+02</pdfrwt>
<totfact> 0.21298251E+05</totfact>
</mgrwt>
</event>
<event>
 8    1  0.1627221E-013  0.8211290E+02  0.7818608E-02  0.1323160E+00
          2   -1    0    0  501    0  0.00000000000E+00  0.00000000000E+00  0.14922833173E+03  0.14922833175E+03  0.25500000000E-02 0. -1.
         -1   -1    0    0    0  501 -0.00000000000E+00 -0.00000000000E+00 -0.11295655973E+02  0.11295657098E+02  0.50400000000E-02 0.  1.
         24    2    1    2    0    0  0.35527136788E-14 -0.35527136788E-14  0.13793267576E+03  0.16052398885E+03  0.82112897615E+02 0.  0.
         66    2    3    3    0    0 -0.25675218837E+02  0.30638338899E+02  0.87104899565E+02  0.95860253499E+02  0.19999999773E+01 0.  0.
        -13    1    3    3    0    0  0.25675218837E+02 -0.30638338899E+02  0.50827776193E+02  0.64663735351E+02  0.10566000000E+00 0.  1.
         13    1    4    4    0    0 -0.14806319359E+02  0.17172290619E+02  0.50587834715E+02  0.55436944750E+02  0.10566000000E+00 0. -1.
        -13    1    4    4    0    0 -0.79390346578E+00  0.11237765474E+01  0.23746744038E+01  0.27465248954E+01  0.10566000000E+00 0.  1.
        -14    1    4    4    0    0 -0.10074996012E+02  0.12342271733E+02  0.34142390446E+02  0.37676783853E+02  0.00000000000E+00 0.  1.
<mgrwt>
<rscale>  0 0.82112898E+02</rscale>
<asrwt>0</asrwt>
<pdfrwt beam="1">  1        2 0.22958204E-01 0.82112898E+02</pdfrwt>
<pdfrwt beam="2">  1       -1 0.17377934E-02 0.82112898E+02</pdfrwt>
<totfact> 0.18658349E+05</totfact>
</mgrwt>
</event>
<event>
 8    1  0.1627221E-013  0.8006733E+02  0.7818608E-02  0.1328860E+00
          2   -1    0    0  501    0  0.00000000000E+00  0.00000000000E+00  0.91440052881E+01  0.91440056436E+01  0.25500000000E-02 0. -1.
         -1   -1    0    0    0  501 -0.00000000000E+00 -0.00000000000E+00 -0.17527265812E+03  0.17527265820E+03  0.50400000000E-02 0.  1.
         24    2    1    2    0    0  0.17763568394E-14 -0.35527136788E-14 -0.16612865284E+03  0.18441666384E+03  0.80067325476E+02 0.  0.
         66    2    3    3    0    0 -0.99927655660E+01  0.27252995720E+02 -0.19698324436E+02  0.35136948612E+02  0.20000081967E+01 0.  0.
        -13    1    3    3    0    0  0.99927655660E+01 -0.27252995720E+02 -0.14643032840E+03  0.14927971523E+03  0.10566000000E+00 0.  1.
         13    1    4    4    0    0 -0.26619741219E+01  0.74791421301E+01 -0.55528498638E+01  0.96886004601E+01  0.10566000000E+00 0. -1.
        -13    1    4    4    0    0 -0.67962714693E+01  0.17131869067E+02 -0.12766028288E+02  0.22420367657E+02  0.10566000000E+00 0.  1.
        -14    1    4    4    0    0 -0.53451997477E+00  0.26419845228E+01 -0.13794462846E+01  0.30279804944E+01  0.00000000000E+00 0.  1.
<mgrwt>
<rscale>  0 0.80067325E+02</rscale>
<asrwt>0</asrwt>
<pdfrwt beam="1">  1        2 0.14067702E-02 0.80067325E+02</pdfrwt>
<pdfrwt beam="2">  1       -1 0.26965022E-01 0.80067325E+02</pdfrwt>
<totfact> 0.10327373E+05</totfact>
</mgrwt>
</event>
<event>
 8    1  0.1627221E-013  0.7989045E+02  0.7818608E-02  0.1329363E+00
         -1   -1    0    0    0  501 -0.00000000000E+00  0.00000000000E+00  0.90445423773E+01  0.90445437815E+01  0.50400000000E-02 0.  1.
          2   -1    0    0  501    0  0.00000000000E+00 -0.00000000000E+00 -0.17641807456E+03  0.17641807458E+03  0.25500000000E-02 0. -1.
         24    2    1    2    0    0  0.00000000000E+00  0.00000000000E+00 -0.16737353218E+03  0.18546261836E+03  0.79890447074E+02 0.  0.
         66    2    3    3    0    0 -0.37913413717E+02 -0.11088771556E+02 -0.97120865734E+02  0.10486586842E+03  0.20000008526E+01 0.  0.
        -13    1    3    3    0    0  0.37913413717E+02  0.11088771556E+02 -0.70252666449E+02  0.80596749944E+02  0.10566000000E+00 0.  1.
         13    1    4    4    0    0 -0.77908414811E+01 -0.26196987237E+01 -0.21715493138E+02  0.23219255773E+02  0.10566000000E+00 0. -1.
        -13    1    4    4    0    0 -0.68854422179E+01 -0.16264304233E+01 -0.17865611804E+02  0.19215770597E+02  0.10566000000E+00 0.  1.
         14    1    4    4    0    0 -0.23237130018E+02 -0.68426424088E+01 -0.57539760791E+02  0.62430842046E+02  0.00000000000E+00 0. -1.
<mgrwt>
<rscale>  0 0.79890447E+02</rscale>
<asrwt>0</asrwt>
<pdfrwt beam="1">  1        2 0.27141240E-01 0.79890447E+02</pdfrwt>
<pdfrwt beam="2">  1       -1 0.13914683E-02 0.79890447E+02</pdfrwt>
<totfact> 0.21206829E+05</totfact>
</mgrwt>
</event>
<event>
 8    1  0.1627221E-013  0.7929811E+02  0.7818608E-02  0.1331055E+00
         -1   -1    0    0    0  501 -0.00000000000E+00  0.00000000000E+00  0.10398617993E+02  0.10398619214E+02  0.50400000000E-02 0.  1.
          2   -1    0    0  501    0  0.00000000000E+00 -0.00000000000E+00 -0.15117851667E+03  0.15117851669E+03  0.25500000000E-02 0. -1.
         24    2    1    2    0    0  0.00000000000E+00  0.17763568394E-14 -0.14077989868E+03  0.16157713591E+03  0.79298114580E+02 0.  0.
         66    2    3    3    0    0  0.14179705190E+02  0.98046604152E+01 -0.14312971269E+03  0.14417804986E+03  0.20000009474E+01 0.  0.
        -13    1    3    3    0    0 -0.14179705190E+02 -0.98046604152E+01  0.23498140101E+01  0.17399086041E+02  0.10566000000E+00 0.  1.
         13    1    4    4    0    0  0.82796153692E+01  0.61599155505E+01 -0.79533268694E+02  0.80200053513E+02  0.10566000000E+00 0. -1.
        -13    1    4    4    0    0  0.20979875063E+01  0.10178439976E+01 -0.23764512841E+02  0.23878877541E+02  0.10566000000E+00 0.  1.
         14    1    4    4    0    0  0.38021023148E+01  0.26269008672E+01 -0.39831931151E+02  0.40099118810E+02  0.00000000000E+00 0. -1.
<mgrwt>
<rscale>  0 0.79298115E+02</rscale>
<asrwt>0</asrwt>
<pdfrwt beam="1">  1        2 0.23258232E-01 0.79298115E+02</pdfrwt>
<pdfrwt beam="2">  1       -1 0.15997876E-02 0.79298115E+02</pdfrwt>
<totfact> 0.20555417E+05</totfact>
</mgrwt>
</event>
<event>
 8    1  0.1627221E-013  0.7835420E+02  0.7818608E-02  0.1333788E+00
          2   -1    0    0  501    0  0.00000000000E+00  0.00000000000E+00  0.25809185656E+03  0.25809185657E+03  0.25500000000E-02 0. -1.
         -1   -1    0    0    0  501 -0.00000000000E+00 -0.00000000000E+00 -0.59468931948E+01  0.59468953305E+01  0.50400000000E-02 0.  1.
         24    2    1    2    0    0 -0.35527136788E-14  0.35527136788E-14  0.25214496336E+03  0.26403875190E+03  0.78354195523E+02 0.  0.
         66    2    3    3    0    0 -0.12985152612E+02  0.26400167494E+02  0.21320102859E+03  0.21523071720E+03  0.20000002944E+01 0.  0.
        -13    1    3    3    0    0  0.12985152612E+02 -0.26400167494E+02  0.38943934775E+02  0.48808034706E+02  0.10566000000E+00 0.  1.
         13    1    4    4    0    0 -0.27887389385E+01  0.53179450236E+01  0.47818399084E+02  0.48194066638E+02  0.10566000000E+00 0. -1.
        -13    1    4    4    0    0 -0.37532549493E+01  0.66359265618E+01  0.55553735873E+02  0.56074514510E+02  0.10566000000E+00 0.  1.
        -14    1    4    4    0    0 -0.64431587245E+01  0.14446295908E+02  0.10982889363E+03  0.11096213605E+03  0.00000000000E+00 0.  1.
<mgrwt>
<rscale>  0 0.78354196E+02</rscale>
<asrwt>0</asrwt>
<pdfrwt beam="1">  1        2 0.39706438E-01 0.78354196E+02</pdfrwt>
<pdfrwt beam="2">  1       -1 0.91490684E-03 0.78354196E+02</pdfrwt>
<totfact> 0.25496806E+05</totfact>
</mgrwt>
</event>
<event>
 8    1  0.1627221E-013  0.8133849E+02  0.7818608E-02  0.1325295E+00
         -1   -1    0    0    0  501 -0.00000000000E+00  0.00000000000E+00  0.51616277384E+02  0.51616277630E+02  0.50400000000E-02 0.  1.
          2   -1    0    0  501    0  0.00000000000E+00 -0.00000000000E+00 -0.32043910240E+02  0.32043910341E+02  0.25500000000E-02 0. -1.
         24    2    1    2    0    0  0.00000000000E+00 -0.35527136788E-14  0.19572367144E+02  0.83660187971E+02  0.81338487174E+02 0.  0.
         66    2    3    3    0    0  0.15399179679E+02  0.30163598062E+02 -0.13321675350E+02  0.36447831766E+02  0.20000058696E+01 0.  0.
        -13    1    3    3    0    0 -0.15399179679E+02 -0.30163598062E+02  0.32894042494E+02  0.47212356205E+02  0.10566000000E+00 0.  1.
         13    1    4    4    0    0  0.85385541136E+01  0.17780295066E+02 -0.85895604428E+01  0.21513658722E+02  0.10566000000E+00 0. -1.
        -13    1    4    4    0    0  0.24467522795E+01  0.48536763731E+01 -0.18452662212E+01  0.57411621222E+01  0.10566000000E+00 0.  1.
         14    1    4    4    0    0  0.44138732855E+01  0.75296266233E+01 -0.28868486859E+01  0.91930109214E+01  0.00000000000E+00 0. -1.
<mgrwt>
<rscale>  0 0.81338487E+02</rscale>
<asrwt>0</asrwt>
<pdfrwt beam="1">  1        2 0.49298324E-02 0.81338487E+02</pdfrwt>
<pdfrwt beam="2">  1       -1 0.79409657E-02 0.81338487E+02</pdfrwt>
<totfact> 0.13013611E+05</totfact>
</mgrwt>
</event>
<event>
 8    1  0.1627221E-013  0.7888052E+02  0.7818608E-02  0.1332259E+00
          2   -1    0    0  501    0  0.00000000000E+00  0.00000000000E+00  0.68717553442E+03  0.68717553442E+03  0.25500000000E-02 0. -1.
         -1   -1    0    0    0  501 -0.00000000000E+00 -0.00000000000E+00 -0.22636606955E+01  0.22636663063E+01  0.50400000000E-02 0.  1.
         24    2    1    2    0    0  0.44408920985E-15  0.00000000000E+00  0.68491187372E+03  0.68943920073E+03  0.78880521904E+02 0.  0.
         66    2    3    3    0    0 -0.23617671434E+01 -0.29286338120E+02  0.57230783383E+03  0.57306502615E+03  0.19999975354E+01 0.  0.
        -13    1    3    3    0    0  0.23617671434E+01  0.29286338120E+02  0.11260403989E+03  0.11637417458E+03  0.10566000000E+00 0.  1.
         13    1    4    4    0    0 -0.28398933916E+00 -0.36939873086E+01  0.73580844252E+02  0.73674133840E+02  0.10566000000E+00 0. -1.
        -13    1    4    4    0    0  0.27023896743E+00 -0.39617215864E+01  0.71640585033E+02  0.71750629648E+02  0.10566000000E+00 0.  1.
        -14    1    4    4    0    0 -0.23480167717E+01 -0.21630629225E+02  0.42708640454E+03  0.42764026266E+03  0.00000000000E+00 0.  1.
<mgrwt>
<rscale>  0 0.78880522E+02</rscale>
<asrwt>0</asrwt>
<pdfrwt beam="1">  1        2 0.10571946E+00 0.78880522E+02</pdfrwt>
<pdfrwt beam="2">  1       -1 0.34825546E-03 0.78880522E+02</pdfrwt>
<totfact> 0.34550453E+05</totfact>
</mgrwt>
</event>
<event>
 8    1  0.1627221E-013  0.7924348E+02  0.7818608E-02  0.1331212E+00
         -1   -1    0    0    0  501 -0.00000000000E+00  0.00000000000E+00  0.59062483474E+01  0.59062504978E+01  0.50400000000E-02 0.  1.
          2   -1    0    0  501    0  0.00000000000E+00 -0.00000000000E+00 -0.26580021413E+03  0.26580021414E+03  0.25500000000E-02 0. -1.
         24    2    1    2    0    0 -0.35527136788E-14  0.00000000000E+00 -0.25989396578E+03  0.27170646464E+03  0.79243482237E+02 0.  0.
         66    2    3    3    0    0 -0.16428643886E+02  0.18589082839E+02 -0.23584553535E+03  0.23715516205E+03  0.19999996488E+01 0.  0.
        -13    1    3    3    0    0  0.16428643886E+02 -0.18589082839E+02 -0.24048430429E+02  0.34551302593E+02  0.10566000000E+00 0.  1.
         13    1    4    4    0    0 -0.36230711237E+01  0.37243655076E+01 -0.47286313036E+02  0.47571042740E+02  0.10566000000E+00 0. -1.
        -13    1    4    4    0    0 -0.96184175149E+01  0.10071700118E+02 -0.13179370269E+03  0.13252752292E+03  0.10566000000E+00 0.  1.
        -14    1    4    4    0    0 -0.31871552476E+01  0.47930172134E+01 -0.56765519625E+02  0.57056596384E+02  0.00000000000E+00 0.  1.
<mgrwt>
<rscale>  0 0.79243482E+02</rscale>
<asrwt>0</asrwt>
<pdfrwt beam="1">  1        2 0.40892331E-01 0.79243482E+02</pdfrwt>
<pdfrwt beam="2">  1       -1 0.90865397E-03 0.79243482E+02</pdfrwt>
<totfact> 0.25017331E+05</totfact>
</mgrwt>
</event>
<event>
 8    1  0.1627221E-013  0.8016742E+02  0.7818608E-02  0.1328577E+00
         -1   -1    0    0    0  501 -0.00000000000E+00  0.00000000000E+00  0.10037034058E+02  0.10037035323E+02  0.50400000000E-02 0.  1.
          2   -1    0    0  501    0  0.00000000000E+00 -0.00000000000E+00 -0.16007754440E+03  0.16007754442E+03  0.25500000000E-02 0. -1.
         24    2    1    2    0    0  0.00000000000E+00  0.00000000000E+00 -0.15004051034E+03  0.17011457974E+03  0.80167421673E+02 0.  0.
         66    2    3    3    0    0  0.32828145066E+02 -0.89353542538E+01 -0.11993934687E+03  0.12468750774E+03  0.19999988726E+01 0.  0.
        -13    1    3    3    0    0 -0.32828145066E+02  0.89353542538E+01 -0.30101163473E+02  0.45427072001E+02  0.10566000000E+00 0.  1.
         13    1    4    4    0    0  0.35924125837E+01 -0.73930536859E+00 -0.12604041647E+02  0.13127262871E+02  0.10566000000E+00 0. -1.
        -13    1    4    4    0    0  0.10530918419E+02 -0.25599805612E+01 -0.35693049273E+02  0.37302260973E+02  0.10566000000E+00 0.  1.
         14    1    4    4    0    0  0.18704814064E+02 -0.56360683240E+01 -0.71642255949E+02  0.74257983899E+02  0.00000000000E+00 0. -1.
<mgrwt>
<rscale>  0 0.80167422E+02</rscale>
<asrwt>0</asrwt>
<pdfrwt beam="1">  1        2 0.24627313E-01 0.80167422E+02</pdfrwt>
<pdfrwt beam="2">  1       -1 0.15441593E-02 0.80167422E+02</pdfrwt>
<totfact> 0.20345085E+05</totfact>
</mgrwt>
</event>
<event>
 8    1  0.1627221E-013  0.8157625E+02  0.7818608E-02  0.1324637E+00
          2   -1    0    0  501    0  0.00000000000E+00  0.00000000000E+00  0.17913581380E+03  0.17913581382E+03  0.25500000000E-02 0. -1.
         -1   -1    0    0    0  501 -0.00000000000E+00 -0.00000000000E+00 -0.92872052129E+01  0.92872065805E+01  0.50400000000E-02 0.  1.
         24    2    1    2    0    0  0.00000000000E+00  0.00000000000E+00  0.16984860859E+03  0.18842302040E+03  0.81576251306E+02 0.  0.
         66    2    3    3    0    0  0.27610042629E+02  0.26729364930E+02  0.53567935723E+02  0.65956782400E+02  0.20000008720E+01 0.  0.
        -13    1    3    3    0    0 -0.27610042629E+02 -0.26729364930E+02  0.11628067286E+03  0.12246623800E+03  0.10566000000E+00 0.  1.
         13    1    4    4    0    0  0.10934455407E+02  0.11261648104E+02  0.23085823986E+02  0.27916902876E+02  0.10566000000E+00 0.  1.
        -13    1    4    4    0    0  0.20266271896E+01  0.18687962771E+01  0.33386940741E+01  0.43310113654E+01  0.10566000000E+00 0. -1.
        -14    1    4    4    0    0  0.14648960033E+02  0.13598920549E+02  0.27143417663E+02  0.33708868159E+02  0.00000000000E+00 0.  1.
<mgrwt>
<rscale>  0 0.81576251E+02</rscale>
<asrwt>0</asrwt>
<pdfrwt beam="1">  1        2 0.27559356E-01 0.81576251E+02</pdfrwt>
<pdfrwt beam="2">  1       -1 0.14288009E-02 0.81576251E+02</pdfrwt>
<totfact> 0.20170641E+05</totfact>
</mgrwt>
</event>
<event>
 8    1  0.1627221E-013  0.7947978E+02  0.7818608E-02  0.1330534E+00
          2   -1    0    0  501    0  0.00000000000E+00  0.00000000000E+00  0.22393130108E+02  0.22393130253E+02  0.25500000000E-02 0. -1.
         -1   -1    0    0    0  501 -0.00000000000E+00 -0.00000000000E+00 -0.70524252315E+02  0.70524252495E+02  0.50400000000E-02 0.  1.
         24    2    1    2    0    0 -0.35527136788E-14 -0.55511151231E-16 -0.48131122206E+02  0.92917382748E+02  0.79479777880E+02 0.  0.
         66    2    3    3    0    0  0.25309904246E+02  0.41481104150E+00  0.11695261835E+02  0.27956081093E+02  0.19999998850E+01 0.  0.
        -13    1    3    3    0    0 -0.25309904246E+02 -0.41481104150E+00 -0.59826384041E+02  0.64961301655E+02  0.10566000000E+00 0.  1.
         13    1    4    4    0    0  0.74802937383E+01 -0.37343568300E+00  0.28910531325E+01  0.80289227715E+01  0.10566000000E+00 0. -1.
        -13    1    4    4    0    0  0.98306664980E+01 -0.69058594424E-01  0.49162523720E+01  0.10992155126E+02  0.10566000000E+00 0.  1.
        -14    1    4    4    0    0  0.79989440101E+01  0.85730531892E+00  0.38879563306E+01  0.89350031961E+01  0.00000000000E+00 0.  1.
<mgrwt>
<rscale>  0 0.79479778E+02</rscale>
<asrwt>0</asrwt>
<pdfrwt beam="1">  1        2 0.34450970E-02 0.79479778E+02</pdfrwt>
<pdfrwt beam="2">  1       -1 0.10849885E-01 0.79479778E+02</pdfrwt>
<totfact> 0.12938605E+05</totfact>
</mgrwt>
</event>
<event>
 8    1  0.1627221E-013  0.7930874E+02  0.7818608E-02  0.1331025E+00
          2   -1    0    0  501    0  0.00000000000E+00  0.00000000000E+00  0.49912910712E+02  0.49912910777E+02  0.25500000000E-02 0. -1.
         -1   -1    0    0    0  501 -0.00000000000E+00 -0.00000000000E+00 -0.31504257340E+02  0.31504257743E+02  0.50400000000E-02 0.  1.
         24    2    1    2    0    0 -0.20816681712E-16  0.00000000000E+00  0.18408653372E+02  0.81417168519E+02  0.79308743596E+02 0.  0.
         66    2    3    3    0    0  0.13846821534E-01 -0.32539044509E+02  0.32431749479E+02  0.45984866904E+02  0.20000001497E+01 0.  0.
        -13    1    3    3    0    0 -0.13846821534E-01  0.32539044509E+02 -0.14023096107E+02  0.35432301616E+02  0.10566000000E+00 0.  1.
         13    1    4    4    0    0  0.69615736549E+00 -0.11928580698E+02  0.12075564301E+02  0.16988410455E+02  0.10566000000E+00 0. -1.
        -13    1    4    4    0    0 -0.52250816834E+00 -0.74126886660E+01  0.79411558715E+01  0.10876308595E+02  0.10566000000E+00 0.  1.
         14    1    4    4    0    0 -0.15980237562E+00 -0.13197775145E+02  0.12415029306E+02  0.18120147854E+02  0.00000000000E+00 0. -1.
<mgrwt>
<rscale>  0 0.79308744E+02</rscale>
<asrwt>0</asrwt>
<pdfrwt beam="1">  1        2 0.76789094E-02 0.79308744E+02</pdfrwt>
<pdfrwt beam="2">  1       -1 0.48468088E-02 0.79308744E+02</pdfrwt>
<totfact> 0.15296474E+05</totfact>
</mgrwt>
</event>
<event>
 8    1  0.1627221E-013  0.7428170E+02  0.7818608E-02  0.1346110E+00
         -1   -1    0    0    0  501 -0.00000000000E+00  0.00000000000E+00  0.13507893418E+02  0.13507894358E+02  0.50400000000E-02 0.  1.
          2   -1    0    0  501    0  0.00000000000E+00 -0.00000000000E+00 -0.10212124301E+03  0.10212124304E+03  0.25500000000E-02 0. -1.
         24    2    1    2    0    0  0.00000000000E+00  0.00000000000E+00 -0.88613349595E+02  0.11562913740E+03  0.74281704948E+02 0.  0.
         66    2    3    3    0    0  0.41425759516E+01 -0.24859536929E+02 -0.86748820622E+02  0.90357707998E+02  0.20000008933E+01 0.  0.
        -13    1    3    3    0    0 -0.41425759516E+01  0.24859536929E+02 -0.18645289735E+01  0.25271429405E+02  0.10566000000E+00 0.  1.
         13    1    4    4    0    0  0.14269588246E+01 -0.12267305712E+02 -0.42061068869E+02  0.43836830170E+02  0.10566000000E+00 0. -1.
        -13    1    4    4    0    0  0.22178799265E+01 -0.11576287363E+02 -0.41304278766E+02  0.42953277277E+02  0.10566000000E+00 0.  1.
        -14    1    4    4    0    0  0.49773720051E+00 -0.10159438533E+01 -0.33834729866E+01  0.35676005501E+01  0.00000000000E+00 0.  1.
<mgrwt>
<rscale>  0 0.74281705E+02</rscale>
<asrwt>0</asrwt>
<pdfrwt beam="1">  1        2 0.15710960E-01 0.74281705E+02</pdfrwt>
<pdfrwt beam="2">  1       -1 0.20781376E-02 0.74281705E+02</pdfrwt>
<totfact> 0.21726704E+05</totfact>
</mgrwt>
</event>
<event>
 8    1  0.1627221E-013  0.7973388E+02  0.7818608E-02  0.1329808E+00
         -1   -1    0    0    0  501 -0.00000000000E+00  0.00000000000E+00  0.78201902268E+01  0.78201918509E+01  0.50400000000E-02 0.  1.
          2   -1    0    0  501    0  0.00000000000E+00 -0.00000000000E+00 -0.20323965524E+03  0.20323965526E+03  0.25500000000E-02 0. -1.
         24    2    1    2    0    0 -0.35527136788E-14  0.71054273576E-14 -0.19541946502E+03  0.21105984711E+03  0.79733880847E+02 0.  0.
         66    2    3    3    0    0 -0.14482998767E+02  0.34995130476E+02 -0.13050809905E+03  0.13590724898E+03  0.19999992233E+01 0.  0.
        -13    1    3    3    0    0  0.14482998767E+02 -0.34995130476E+02 -0.64911365969E+02  0.75152598134E+02  0.10566000000E+00 0.  1.
         13    1    4    4    0    0 -0.82904860108E+01  0.18878234148E+02 -0.73899744067E+02  0.76722247230E+02  0.10566000000E+00 0.  1.
        -13    1    4    4    0    0 -0.20614332989E+01  0.59975487017E+01 -0.20668159567E+02  0.21619530097E+02  0.10566000000E+00 0. -1.
        -14    1    4    4    0    0 -0.41310794572E+01  0.10119347626E+02 -0.35940195415E+02  0.37565471650E+02  0.00000000000E+00 0.  1.
<mgrwt>
<rscale>  0 0.79733881E+02</rscale>
<asrwt>0</asrwt>
<pdfrwt beam="1">  1        2 0.31267635E-01 0.79733881E+02</pdfrwt>
<pdfrwt beam="2">  1       -1 0.12031065E-02 0.79733881E+02</pdfrwt>
<totfact> 0.22377978E+05</totfact>
</mgrwt>
</event>
<event>
 8    1  0.1627221E-013  0.7556251E+02  0.7818608E-02  0.1342138E+00
          2   -1    0    0  501    0  0.00000000000E+00  0.00000000000E+00  0.10150038852E+03  0.10150038856E+03  0.25500000000E-02 0. -1.
         -1   -1    0    0    0  501 -0.00000000000E+00 -0.00000000000E+00 -0.14063227945E+02  0.14063228848E+02  0.50400000000E-02 0.  1.
         24    2    1    2    0    0  0.35527136788E-14  0.00000000000E+00  0.87437160578E+02  0.11556361740E+03  0.75562508014E+02 0.  0.
         66    2    3    3    0    0 -0.30742085807E+02 -0.15513407651E+02  0.67426172464E+02  0.75736585552E+02  0.20000003111E+01 0.  0.
        -13    1    3    3    0    0  0.30742085807E+02  0.15513407651E+02  0.20010988115E+02  0.39827031852E+02  0.10566000000E+00 0.  1.
         13    1    4    4    0    0 -0.22599750063E+02 -0.10919352174E+02  0.50102892956E+02  0.56038308338E+02  0.10566000000E+00 0. -1.
        -13    1    4    4    0    0 -0.59478323127E+01 -0.30328943095E+01  0.12008940776E+02  0.13740486881E+02  0.10566000000E+00 0.  1.
        -14    1    4    4    0    0 -0.21945034321E+01 -0.15611611680E+01  0.53143387313E+01  0.59577903334E+01  0.00000000000E+00 0.  1.
<mgrwt>
<rscale>  0 0.75562508E+02</rscale>
<asrwt>0</asrwt>
<pdfrwt beam="1">  1        2 0.15615444E-01 0.75562508E+02</pdfrwt>
<pdfrwt beam="2">  1       -1 0.21635737E-02 0.75562508E+02</pdfrwt>
<totfact> 0.20728472E+05</totfact>
</mgrwt>
</event>
<event>
 8    1  0.1627221E-013  0.7409701E+02  0.7818608E-02  0.1346690E+00
         -1   -1    0    0    0  501 -0.00000000000E+00  0.00000000000E+00  0.85032373810E+02  0.85032373959E+02  0.50400000000E-02 0.  1.
          2   -1    0    0  501    0  0.00000000000E+00 -0.00000000000E+00 -0.16141991372E+02  0.16141991574E+02  0.25500000000E-02 0. -1.
         24    2    1    2    0    0 -0.35527136788E-14  0.35527136788E-14  0.68890382437E+02  0.10117436553E+03  0.74097013763E+02 0.  0.
         66    2    3    3    0    0  0.20102294193E+02 -0.29144906518E+02  0.19697085158E+02  0.40564799712E+02  0.20000010551E+01 0.  0.
        -13    1    3    3    0    0 -0.20102294193E+02  0.29144906518E+02  0.49193297279E+02  0.60609565821E+02  0.10566000000E+00 0.  1.
         13    1    4    4    0    0  0.67727551560E+01 -0.10305917754E+02  0.62211233224E+01  0.13812881401E+02  0.10566000000E+00 0. -1.
        -13    1    4    4    0    0  0.29794769689E+01 -0.44817874821E+01  0.25941267309E+01  0.59753125085E+01  0.10566000000E+00 0.  1.
        -14    1    4    4    0    0  0.10350062068E+02 -0.14357201281E+02  0.10881835105E+02  0.20776605803E+02  0.00000000000E+00 0.  1.
<mgrwt>
<rscale>  0 0.74097014E+02</rscale>
<asrwt>0</asrwt>
<pdfrwt beam="1">  1        2 0.24833834E-02 0.74097014E+02</pdfrwt>
<pdfrwt beam="2">  1       -1 0.13081903E-01 0.74097014E+02</pdfrwt>
<totfact> 0.14823557E+05</totfact>
</mgrwt>
</event>
<event>
 8    1  0.1627221E-013  0.7815951E+02  0.7818608E-02  0.1334357E+00
          2   -1    0    0  501    0  0.00000000000E+00  0.00000000000E+00  0.70000651973E+03  0.70000651973E+03  0.25500000000E-02 0. -1.
         -1   -1    0    0    0  501 -0.00000000000E+00 -0.00000000000E+00 -0.21817297071E+01  0.21817355285E+01  0.50400000000E-02 0.  1.
         24    2    1    2    0    0  0.35527136788E-14  0.88817841970E-15  0.69782479002E+03  0.70218825526E+03  0.78159505237E+02 0.  0.
         66    2    3    3    0    0  0.28189164047E+02  0.67560373063E+01  0.58426635928E+03  0.58498842009E+03  0.20000083695E+01 0.  0.
        -13    1    3    3    0    0 -0.28189164047E+02 -0.67560373063E+01  0.11355843074E+03  0.11719983518E+03  0.10566000000E+00 0.  1.
         13    1    4    4    0    0  0.70452049392E+01  0.12318862887E+01  0.14446190750E+03  0.14463888253E+03  0.10566000000E+00 0. -1.
        -13    1    4    4    0    0  0.11919323300E+02  0.38650010101E+01  0.25177110321E+03  0.25208274053E+03  0.10566000000E+00 0.  1.
        -14    1    4    4    0    0  0.92246358076E+01  0.16591500075E+01  0.18803334857E+03  0.18826679702E+03  0.00000000000E+00 0.  1.
<mgrwt>
<rscale>  0 0.78159505E+02</rscale>
<asrwt>0</asrwt>
<pdfrwt beam="1">  1        2 0.10769341E+00 0.78159505E+02</pdfrwt>
<pdfrwt beam="2">  1       -1 0.33565086E-03 0.78159505E+02</pdfrwt>
<totfact> 0.35535709E+05</totfact>
</mgrwt>
</event>
<event>
 8    1  0.1627221E-013  0.7613611E+02  0.7818608E-02  0.1340389E+00
          2   -1    0    0  501    0  0.00000000000E+00  0.00000000000E+00  0.15613541920E+02  0.15613542128E+02  0.25500000000E-02 0. -1.
         -1   -1    0    0    0  501 -0.00000000000E+00 -0.00000000000E+00 -0.92815373100E+02  0.92815373237E+02  0.50400000000E-02 0.  1.
         24    2    1    2    0    0  0.00000000000E+00  0.00000000000E+00 -0.77201831180E+02  0.10842891537E+03  0.76136108055E+02 0.  0.
         66    2    3    3    0    0  0.51353380819E+01  0.35257894607E+02 -0.57610919359E+02  0.67768051880E+02  0.19999992491E+01 0.  0.
        -13    1    3    3    0    0 -0.51353380819E+01 -0.35257894607E+02 -0.19590911821E+02  0.40660863485E+02  0.10566000000E+00 0.  1.
         13    1    4    4    0    0  0.31424621829E+01  0.19026828218E+02 -0.32446256819E+02  0.37744748062E+02  0.10566000000E+00 0. -1.
        -13    1    4    4    0    0  0.19241497800E+01  0.13030474611E+02 -0.20399396353E+02  0.24282548395E+02  0.10566000000E+00 0.  1.
         14    1    4    4    0    0  0.68726119030E-01  0.32005917779E+01 -0.47652661863E+01  0.57407554237E+01  0.00000000000E+00 0. -1.
<mgrwt>
<rscale>  0 0.76136108E+02</rscale>
<asrwt>0</asrwt>
<pdfrwt beam="1">  1        2 0.24020834E-02 0.76136108E+02</pdfrwt>
<pdfrwt beam="2">  1       -1 0.14279288E-01 0.76136108E+02</pdfrwt>
<totfact> 0.13618162E+05</totfact>
</mgrwt>
</event>
<event>
 8    1  0.1627221E-013  0.8256214E+02  0.7818608E-02  0.1321934E+00
          2   -1    0    0  501    0  0.00000000000E+00  0.00000000000E+00  0.91104705423E+01  0.91104708992E+01  0.25500000000E-02 0. -1.
         -1   -1    0    0    0  501 -0.00000000000E+00 -0.00000000000E+00 -0.18705142469E+03  0.18705142476E+03  0.50400000000E-02 0.  1.
         24    2    1    2    0    0  0.35527136788E-14  0.00000000000E+00 -0.17794095415E+03  0.19616189566E+03  0.82562135055E+02 0.  0.
         66    2    3    3    0    0  0.19392239280E+02  0.35929106831E+02 -0.74933878614E+02  0.85358337790E+02  0.20000010357E+01 0.  0.
        -13    1    3    3    0    0 -0.19392239280E+02 -0.35929106831E+02 -0.10300707553E+03  0.11080355787E+03  0.10566000000E+00 0.  1.
         13    1    4    4    0    0  0.85694021706E+01  0.16412636741E+02 -0.35088098062E+02  0.39673606945E+02  0.10566000000E+00 0. -1.
        -13    1    4    4    0    0  0.73624035428E+01  0.13232632535E+02 -0.25903092160E+02  0.30004814568E+02  0.10566000000E+00 0.  1.
        -14    1    4    4    0    0  0.34604335663E+01  0.62838375560E+01 -0.13942688392E+02  0.15679916278E+02  0.00000000000E+00 0.  1.
<mgrwt>
<rscale>  0 0.82562135E+02</rscale>
<asrwt>0</asrwt>
<pdfrwt beam="1">  1        2 0.14016110E-02 0.82562135E+02</pdfrwt>
<pdfrwt beam="2">  1       -1 0.28777140E-01 0.82562135E+02</pdfrwt>
<totfact> 0.93771991E+04</totfact>
</mgrwt>
</event>
<event>
 8    1  0.1627221E-013  0.8017665E+02  0.7818608E-02  0.1328551E+00
         -1   -1    0    0    0  501 -0.00000000000E+00  0.00000000000E+00  0.10133872298E+01  0.10133997627E+01  0.50400000000E-02 0.  1.
          2   -1    0    0  501    0  0.00000000000E+00 -0.00000000000E+00 -0.15858338921E+04  0.15858338921E+04  0.25500000000E-02 0. -1.
         24    2    1    2    0    0  0.11102230246E-15  0.00000000000E+00 -0.15848205049E+04  0.15868472919E+04  0.80176648981E+02 0.  0.
         66    2    3    3    0    0 -0.75493913759E+00  0.18172551911E+02 -0.14994078413E+04  0.14995194850E+04  0.20000010690E+01 0.  0.
        -13    1    3    3    0    0  0.75493913759E+00 -0.18172551911E+02 -0.85412663646E+02  0.87327806862E+02  0.10566000000E+00 0.  1.
         13    1    4    4    0    0 -0.15650986775E+00  0.84708700728E+01 -0.70961750575E+03  0.70966808845E+03  0.10566000000E+00 0. -1.
        -13    1    4    4    0    0 -0.42225317992E+00  0.36526816269E+01 -0.24830350300E+03  0.24833074949E+03  0.10566000000E+00 0.  1.
        -14    1    4    4    0    0 -0.17617608992E+00  0.60490002117E+01 -0.54148683252E+03  0.54152064710E+03  0.00000000000E+00 0.  1.
<mgrwt>
<rscale>  0 0.80176649E+02</rscale>
<asrwt>0</asrwt>
<pdfrwt beam="1">  1        2 0.24397246E+00 0.80176649E+02</pdfrwt>
<pdfrwt beam="2">  1       -1 0.15590796E-03 0.80176649E+02</pdfrwt>
<totfact> 0.32301245E+05</totfact>
</mgrwt>
</event>
<event>
 8    1  0.1627221E-013  0.8108650E+02  0.7818608E-02  0.1325996E+00
          2   -1    0    0  501    0  0.00000000000E+00  0.00000000000E+00  0.11492043683E+04  0.11492043683E+04  0.25500000000E-02 0. -1.
         -1   -1    0    0    0  501 -0.00000000000E+00 -0.00000000000E+00 -0.14303373840E+01  0.14303462635E+01  0.50400000000E-02 0.  1.
         24    2    1    2    0    0  0.00000000000E+00 -0.35527136788E-14  0.11477740310E+04  0.11506347146E+04  0.81086499001E+02 0.  0.
         66    2    3    3    0    0 -0.87640159381E+01  0.27423052947E+02  0.97882258936E+03  0.97924792226E+03  0.20000017088E+01 0.  0.
        -13    1    3    3    0    0  0.87640159381E+01 -0.27423052947E+02  0.16895144159E+03  0.17138679234E+03  0.10566000000E+00 0.  1.
         13    1    4    4    0    0 -0.25785935038E+00  0.13719378382E+01  0.56991714618E+02  0.57008906357E+02  0.10566000000E+00 0. -1.
        -13    1    4    4    0    0 -0.55703065442E+01  0.18039026509E+02  0.65150957201E+03  0.65178306850E+03  0.10566000000E+00 0.  1.
         14    1    4    4    0    0 -0.29358500435E+01  0.80120885995E+01  0.27032130273E+03  0.27045594741E+03  0.00000000000E+00 0. -1.
<mgrwt>
<rscale>  0 0.81086499E+02</rscale>
<asrwt>0</asrwt>
<pdfrwt beam="1">  1        2 0.17680098E+00 0.81086499E+02</pdfrwt>
<pdfrwt beam="2">  1       -1 0.22005220E-03 0.81086499E+02</pdfrwt>
<totfact> 0.33962878E+05</totfact>
</mgrwt>
</event>
<event>
 8    1  0.1627221E-013  0.8045015E+02  0.7818608E-02  0.1327779E+00
          2   -1    0    0  501    0  0.00000000000E+00  0.00000000000E+00  0.17196841631E+03  0.17196841632E+03  0.25500000000E-02 0. -1.
         -1   -1    0    0    0  501 -0.00000000000E+00 -0.00000000000E+00 -0.94090332685E+01  0.94090346184E+01  0.50400000000E-02 0.  1.
         24    2    1    2    0    0  0.35527136788E-14  0.00000000000E+00  0.16255938304E+03  0.18137745094E+03  0.80450150386E+02 0.  0.
         66    2    3    3    0    0  0.24075429174E+02  0.66657604174E+01  0.15233835146E+03  0.15438598373E+03  0.19999987252E+01 0.  0.
        -13    1    3    3    0    0 -0.24075429174E+02 -0.66657604174E+01  0.10221031579E+02  0.26991467215E+02  0.10566000000E+00 0.  1.
         13    1    4    4    0    0  0.43298077118E+01  0.15894332677E+01  0.26892980258E+02  0.27285840360E+02  0.10566000000E+00 0. -1.
        -13    1    4    4    0    0  0.54350300570E+01  0.20801971584E+01  0.36391184081E+02  0.36853713718E+02  0.10566000000E+00 0.  1.
        -14    1    4    4    0    0  0.14310591405E+02  0.29961299914E+01  0.89054187119E+02  0.90246429650E+02  0.00000000000E+00 0.  1.
<mgrwt>
<rscale>  0 0.80450150E+02</rscale>
<asrwt>0</asrwt>
<pdfrwt beam="1">  1        2 0.26456680E-01 0.80450150E+02</pdfrwt>
<pdfrwt beam="2">  1       -1 0.14475437E-02 0.80450150E+02</pdfrwt>
<totfact> 0.20640869E+05</totfact>
</mgrwt>
</event>
<event>
 8    1  0.1627221E-013  0.7672149E+02  0.7818608E-02  0.1338622E+00
         -1   -1    0    0    0  501 -0.00000000000E+00  0.00000000000E+00  0.22452565685E+03  0.22452565691E+03  0.50400000000E-02 0.  1.
          2   -1    0    0  501    0  0.00000000000E+00 -0.00000000000E+00 -0.65540248133E+01  0.65540253094E+01  0.25500000000E-02 0. -1.
         24    2    1    2    0    0  0.00000000000E+00 -0.17000290065E-15  0.21797163204E+03  0.23107968221E+03  0.76721490863E+02 0.  0.
         66    2    3    3    0    0  0.34363407914E+02  0.18117340834E-01  0.57883661144E+02  0.67345099063E+02  0.20000021565E+01 0.  0.
        -13    1    3    3    0    0 -0.34363407914E+02 -0.18117340834E-01  0.16008797089E+03  0.16373458315E+03  0.10566000000E+00 0.  1.
         13    1    4    4    0    0  0.17665747186E+01 -0.12405285668E+00  0.31428612376E+01  0.36090048687E+01  0.10566000000E+00 0.  1.
        -13    1    4    4    0    0  0.17741791806E+02 -0.50034846286E+00  0.31085839243E+02  0.35796118373E+02  0.10566000000E+00 0. -1.
        -14    1    4    4    0    0  0.14855041390E+02  0.64251866037E+00  0.23654960663E+02  0.27939975822E+02  0.00000000000E+00 0.  1.
<mgrwt>
<rscale>  0 0.76721491E+02</rscale>
<asrwt>0</asrwt>
<pdfrwt beam="1">  1        2 0.10083116E-02 0.76721491E+02</pdfrwt>
<pdfrwt beam="2">  1       -1 0.34542409E-01 0.76721491E+02</pdfrwt>
<totfact> 0.10685830E+05</totfact>
</mgrwt>
</event>
<event>
 8    1  0.1627221E-013  0.8200866E+02  0.7818608E-02  0.1323446E+00
         -1   -1    0    0    0  501 -0.00000000000E+00  0.00000000000E+00  0.11532296106E+02  0.11532297207E+02  0.50400000000E-02 0.  1.
          2   -1    0    0  501    0  0.00000000000E+00 -0.00000000000E+00 -0.14579534393E+03  0.14579534396E+03  0.25500000000E-02 0. -1.
         24    2    1    2    0    0 -0.17763568394E-14 -0.35527136788E-14 -0.13426304783E+03  0.15732764116E+03  0.82008662116E+02 0.  0.
         66    2    3    3    0    0  0.10749919092E+02 -0.20200632558E+02 -0.13239007050E+03  0.13436799125E+03  0.19999970639E+01 0.  0.
        -13    1    3    3    0    0 -0.10749919092E+02  0.20200632558E+02 -0.18729773271E+01  0.22959649917E+02  0.10566000000E+00 0.  1.
         13    1    4    4    0    0  0.69662344562E+01 -0.12361300429E+02 -0.78804095797E+02  0.80071385957E+02  0.10566000000E+00 0. -1.
        -13    1    4    4    0    0  0.10520526639E+01 -0.14910002365E+01 -0.12640618233E+02  0.12772090270E+02  0.10566000000E+00 0.  1.
        -14    1    4    4    0    0  0.27316319718E+01 -0.63483318919E+01 -0.40945356471E+02  0.41524515019E+02  0.00000000000E+00 0.  1.
<mgrwt>
<rscale>  0 0.82008662E+02</rscale>
<asrwt>0</asrwt>
<pdfrwt beam="1">  1        2 0.22430052E-01 0.82008662E+02</pdfrwt>
<pdfrwt beam="2">  1       -1 0.17741996E-02 0.82008662E+02</pdfrwt>
<totfact> 0.18581750E+05</totfact>
</mgrwt>
</event>
<event>
 8    1  0.1627221E-013  0.7958943E+02  0.7818608E-02  0.1330221E+00
         -1   -1    0    0    0  501 -0.00000000000E+00  0.00000000000E+00  0.72796288561E+02  0.72796288736E+02  0.50400000000E-02 0.  1.
          2   -1    0    0  501    0  0.00000000000E+00 -0.00000000000E+00 -0.21754122132E+02  0.21754122282E+02  0.25500000000E-02 0. -1.
         24    2    1    2    0    0  0.00000000000E+00  0.00000000000E+00  0.51042166429E+02  0.94550411018E+02  0.79589430642E+02 0.  0.
         66    2    3    3    0    0  0.37776338107E+02 -0.12431990742E+02  0.25428798768E+02  0.47246480087E+02  0.19999898206E+01 0.  0.
        -13    1    3    3    0    0 -0.37776338107E+02  0.12431990742E+02  0.25613367661E+02  0.47303930931E+02  0.10566000000E+00 0.  1.
         13    1    4    4    0    0  0.35309804775E+02 -0.11917506280E+02  0.23867496080E+02  0.44254692434E+02  0.10566000000E+00 0. -1.
        -13    1    4    4    0    0  0.23139879858E+01 -0.57259888476E+00  0.14938088821E+01  0.28151445599E+01  0.10566000000E+00 0.  1.
         14    1    4    4    0    0  0.15254534525E+00  0.58114423589E-01  0.67493805151E-01  0.17664309305E+00  0.00000000000E+00 0. -1.
<mgrwt>
<rscale>  0 0.79589431E+02</rscale>
<asrwt>0</asrwt>
<pdfrwt beam="1">  1        2 0.33467880E-02 0.79589431E+02</pdfrwt>
<pdfrwt beam="2">  1       -1 0.11199429E-01 0.79589431E+02</pdfrwt>
<totfact> 0.12814088E+05</totfact>
</mgrwt>
</event>
<event>
 8    1  0.1627221E-013  0.7898541E+02  0.7818608E-02  0.1331956E+00
          2   -1    0    0  501    0  0.00000000000E+00  0.00000000000E+00  0.95109363996E+03  0.95109363997E+03  0.25500000000E-02 0. -1.
         -1   -1    0    0    0  501 -0.00000000000E+00 -0.00000000000E+00 -0.16398699518E+01  0.16398776968E+01  0.50400000000E-02 0.  1.
         24    2    1    2    0    0  0.35527136788E-14 -0.35527136788E-14  0.94945377001E+03  0.95273351766E+03  0.78985405553E+02 0.  0.
         66    2    3    3    0    0  0.24399875898E+02 -0.12351470849E+02  0.81827337156E+03  0.81873269349E+03  0.20000043083E+01 0.  0.
        -13    1    3    3    0    0 -0.24399875898E+02  0.12351470849E+02  0.13118039846E+03  0.13400082417E+03  0.10566000000E+00 0.  1.
         13    1    4    4    0    0  0.13822665206E+02 -0.73236007988E+01  0.46256589160E+03  0.46283033224E+03  0.10566000000E+00 0. -1.
        -13    1    4    4    0    0  0.58043811358E+01 -0.21184336843E+01  0.18074875204E+03  0.18085436442E+03  0.10566000000E+00 0.  1.
        -14    1    4    4    0    0  0.47728295562E+01 -0.29094363659E+01  0.17495872791E+03  0.17504799683E+03  0.00000000000E+00 0.  1.
<mgrwt>
<rscale>  0 0.78985406E+02</rscale>
<asrwt>0</asrwt>
<pdfrwt beam="1">  1        2 0.14632170E+00 0.78985406E+02</pdfrwt>
<pdfrwt beam="2">  1       -1 0.25228897E-03 0.78985406E+02</pdfrwt>
<totfact> 0.36309673E+05</totfact>
</mgrwt>
</event>
<event>
 8    1  0.1627221E-013  0.7988396E+02  0.7818608E-02  0.1329381E+00
          2   -1    0    0  501    0  0.00000000000E+00  0.00000000000E+00  0.11000818056E+02  0.11000818351E+02  0.25500000000E-02 0. -1.
         -1   -1    0    0    0  501 -0.00000000000E+00 -0.00000000000E+00 -0.14502209318E+03  0.14502209327E+03  0.50400000000E-02 0.  1.
         24    2    1    2    0    0  0.00000000000E+00  0.00000000000E+00 -0.13402127513E+03  0.15602291162E+03  0.79883958116E+02 0.  0.
         66    2    3    3    0    0 -0.36051313118E+02  0.57059393182E+01 -0.35492759297E+02  0.50950867210E+02  0.19999964889E+01 0.  0.
        -13    1    3    3    0    0  0.36051313118E+02 -0.57059393182E+01 -0.98528515830E+02  0.10507204441E+03  0.10566000000E+00 0.  1.
         13    1    4    4    0    0 -0.12267077287E+02  0.17559698958E+01 -0.12975351086E+02  0.17942561559E+02  0.10566000000E+00 0. -1.
        -13    1    4    4    0    0 -0.77055741235E+01  0.16580988409E+01 -0.68836569594E+01  0.10465231078E+02  0.10566000000E+00 0.  1.
         14    1    4    4    0    0 -0.16078661708E+02  0.22918705816E+01 -0.15633751251E+02  0.22543074574E+02  0.00000000000E+00 0. -1.
<mgrwt>
<rscale>  0 0.79883958E+02</rscale>
<asrwt>0</asrwt>
<pdfrwt beam="1">  1        2 0.16924337E-02 0.79883958E+02</pdfrwt>
<pdfrwt beam="2">  1       -1 0.22311090E-01 0.79883958E+02</pdfrwt>
<totfact> 0.10919601E+05</totfact>
</mgrwt>
</event>
<event>
 8    1  0.1627221E-013  0.7955225E+02  0.7818608E-02  0.1330327E+00
          2   -1    0    0  501    0  0.00000000000E+00  0.00000000000E+00  0.19909402855E+03  0.19909402857E+03  0.25500000000E-02 0. -1.
         -1   -1    0    0    0  501 -0.00000000000E+00 -0.00000000000E+00 -0.79466976252E+01  0.79466992235E+01  0.50400000000E-02 0.  1.
         24    2    1    2    0    0  0.00000000000E+00  0.00000000000E+00  0.19114733092E+03  0.20704072779E+03  0.79552252288E+02 0.  0.
         66    2    3    3    0    0 -0.22101121675E+02 -0.33828490424E+01  0.18117244345E+03  0.18255781965E+03  0.20000007062E+01 0.  0.
        -13    1    3    3    0    0  0.22101121675E+02  0.33828490424E+01  0.99748874788E+01  0.24482908144E+02  0.10566000000E+00 0.  1.
         13    1    4    4    0    0 -0.83532551935E+01 -0.13518267854E+01  0.64175774814E+02  0.64731333564E+02  0.10566000000E+00 0. -1.
        -13    1    4    4    0    0 -0.94743776447E+01 -0.97754266288E+00  0.83660991113E+02  0.84201496539E+02  0.10566000000E+00 0.  1.
         14    1    4    4    0    0 -0.42734888365E+01 -0.10534795941E+01  0.33335677519E+02  0.33624989543E+02  0.00000000000E+00 0. -1.
<mgrwt>
<rscale>  0 0.79552252E+02</rscale>
<asrwt>0</asrwt>
<pdfrwt beam="1">  1        2 0.30629848E-01 0.79552252E+02</pdfrwt>
<pdfrwt beam="2">  1       -1 0.12225691E-02 0.79552252E+02</pdfrwt>
<totfact> 0.22352346E+05</totfact>
</mgrwt>
</event>
<event>
 8    1  0.1627221E-013  0.8099671E+02  0.7818608E-02  0.1326246E+00
          2   -1    0    0  501    0  0.00000000000E+00  0.00000000000E+00  0.25767247864E+02  0.25767247990E+02  0.25500000000E-02 0. -1.
         -1   -1    0    0    0  501 -0.00000000000E+00 -0.00000000000E+00 -0.63651226904E+02  0.63651227103E+02  0.50400000000E-02 0.  1.
         24    2    1    2    0    0  0.00000000000E+00  0.17763568394E-14 -0.37883979040E+02  0.89418475093E+02  0.80996714872E+02 0.  0.
         66    2    3    3    0    0 -0.33669721088E+02  0.13479085772E+02  0.88050458085E+00  0.36333333802E+02  0.19999963628E+01 0.  0.
        -13    1    3    3    0    0  0.33669721088E+02 -0.13479085772E+02 -0.38764483621E+02  0.53085141291E+02  0.10566000000E+00 0.  1.
         13    1    4    4    0    0 -0.93160997816E+01  0.41349263345E+01 -0.37505565795E-01  0.10193130120E+02  0.10566000000E+00 0. -1.
        -13    1    4    4    0    0 -0.88303072807E+01  0.35849088570E+01 -0.32483159547E+00  0.95363817974E+01  0.10566000000E+00 0.  1.
        -14    1    4    4    0    0 -0.15523314026E+02  0.57592505807E+01  0.12428417421E+01  0.16603821885E+02  0.00000000000E+00 0.  1.
<mgrwt>
<rscale>  0 0.80996715E+02</rscale>
<asrwt>0</asrwt>
<pdfrwt beam="1">  1        2 0.39641920E-02 0.80996715E+02</pdfrwt>
<pdfrwt beam="2">  1       -1 0.97924965E-02 0.80996715E+02</pdfrwt>
<totfact> 0.12608378E+05</totfact>
</mgrwt>
</event>
<event>
 8    1  0.1627221E-013  0.7846477E+02  0.7818608E-02  0.1333466E+00
         -1   -1    0    0    0  501 -0.00000000000E+00  0.00000000000E+00  0.35177541652E+01  0.35177577757E+01  0.50400000000E-02 0.  1.
          2   -1    0    0  501    0  0.00000000000E+00 -0.00000000000E+00 -0.43754603334E+03  0.43754603334E+03  0.25500000000E-02 0. -1.
         24    2    1    2    0    0  0.00000000000E+00 -0.17763568394E-14 -0.43402827917E+03  0.44106379112E+03  0.78464773729E+02 0.  0.
         66    2    3    3    0    0  0.35788251427E+02 -0.12088691628E+02 -0.27617429735E+03  0.27875289763E+03  0.20000032686E+01 0.  0.
        -13    1    3    3    0    0 -0.35788251427E+02  0.12088691628E+02 -0.15785398182E+03  0.16231089349E+03  0.10566000000E+00 0.  1.
         13    1    4    4    0    0  0.10396185727E+02 -0.43009995201E+01 -0.85556891544E+02  0.86293523101E+02  0.10566000000E+00 0. -1.
        -13    1    4    4    0    0  0.15231606026E+01 -0.50490812795E+00 -0.11630771039E+02  0.11741420247E+02  0.10566000000E+00 0. -1.
         14    1    4    4    0    0  0.23868905098E+02 -0.72827839802E+01 -0.17898663477E+03  0.18071795428E+03  0.00000000000E+00 0. -1.
<mgrwt>
<rscale>  0 0.78464774E+02</rscale>
<asrwt>0</asrwt>
<pdfrwt beam="1">  1        2 0.67314731E-01 0.78464774E+02</pdfrwt>
<pdfrwt beam="2">  1       -1 0.54119358E-03 0.78464774E+02</pdfrwt>
<totfact> 0.30651101E+05</totfact>
</mgrwt>
</event>
<event>
 8    1  0.1627221E-013  0.8482522E+02  0.7818608E-02  0.1315890E+00
          2   -1    0    0  501    0  0.00000000000E+00  0.00000000000E+00  0.51160933957E+02  0.51160934021E+02  0.25500000000E-02 0. -1.
         -1   -1    0    0    0  501 -0.00000000000E+00 -0.00000000000E+00 -0.35160215419E+02  0.35160215780E+02  0.50400000000E-02 0.  1.
         24    2    1    2    0    0 -0.71054273576E-14  0.17763568394E-14  0.16000718538E+02  0.86321149801E+02  0.84825219771E+02 0.  0.
         66    2    3    3    0    0  0.40219547202E+02 -0.76243903563E+01  0.19202536913E+02  0.45260145059E+02  0.20000003642E+01 0.  0.
        -13    1    3    3    0    0 -0.40219547202E+02  0.76243903563E+01 -0.32018183744E+01  0.41061004741E+02  0.10566000000E+00 0.  1.
         13    1    4    4    0    0  0.27367288397E+02 -0.48273265187E+01  0.12936566324E+02  0.30653506615E+02  0.10566000000E+00 0.  1.
        -13    1    4    4    0    0  0.42860154939E+01 -0.10890369356E+01  0.26218474611E+01  0.51420986383E+01  0.10566000000E+00 0. -1.
        -14    1    4    4    0    0  0.85662433111E+01 -0.17080269020E+01  0.36441231276E+01  0.94645398056E+01  0.00000000000E+00 0.  1.
<mgrwt>
<rscale>  0 0.84825220E+02</rscale>
<asrwt>0</asrwt>
<pdfrwt beam="1">  1        2 0.78709130E-02 0.84825220E+02</pdfrwt>
<pdfrwt beam="2">  1       -1 0.54092639E-02 0.84825220E+02</pdfrwt>
<totfact> 0.12785273E+05</totfact>
</mgrwt>
</event>
<event>
 8    1  0.1627221E-013  0.8152418E+02  0.7818608E-02  0.1324781E+00
          2   -1    0    0  501    0  0.00000000000E+00  0.00000000000E+00  0.19567607607E+02  0.19567607773E+02  0.25500000000E-02 0. -1.
         -1   -1    0    0    0  501 -0.00000000000E+00 -0.00000000000E+00 -0.84913180079E+02  0.84913180229E+02  0.50400000000E-02 0.  1.
         24    2    1    2    0    0  0.00000000000E+00 -0.35527136788E-14 -0.65345572472E+02  0.10448078800E+03  0.81524175677E+02 0.  0.
         66    2    3    3    0    0  0.14722296762E+02  0.19460007054E+02  0.91139546172E+01  0.26124740151E+02  0.19999956719E+01 0.  0.
        -13    1    3    3    0    0 -0.14722296762E+02 -0.19460007054E+02 -0.74459527089E+02  0.78356047851E+02  0.10566000000E+00 0.  1.
         13    1    4    4    0    0  0.77308543685E+01  0.92322019428E+01  0.38965429909E+01  0.12656771836E+02  0.10566000000E+00 0. -1.
        -13    1    4    4    0    0  0.50609500387E+01  0.68771016509E+01  0.38400672901E+01  0.93629601750E+01  0.10566000000E+00 0.  1.
        -14    1    4    4    0    0  0.19304923549E+01  0.33507034604E+01  0.13773443362E+01  0.41050081404E+01  0.00000000000E+00 0.  1.
<mgrwt>
<rscale>  0 0.81524176E+02</rscale>
<asrwt>0</asrwt>
<pdfrwt beam="1">  1        2 0.30104012E-02 0.81524176E+02</pdfrwt>
<pdfrwt beam="2">  1       -1 0.13063566E-01 0.81524176E+02</pdfrwt>
<totfact> 0.11706381E+05</totfact>
</mgrwt>
</event>
<event>
 8    1  0.1627221E-013  0.7682144E+02  0.7818608E-02  0.1338322E+00
          2   -1    0    0  501    0  0.00000000000E+00  0.00000000000E+00  0.10035628474E+03  0.10035628477E+03  0.25500000000E-02 0. -1.
         -1   -1    0    0    0  501 -0.00000000000E+00 -0.00000000000E+00 -0.14701452708E+02  0.14701453572E+02  0.50400000000E-02 0.  1.
         24    2    1    2    0    0  0.00000000000E+00  0.00000000000E+00  0.85654832034E+02  0.11505773835E+03  0.76821435177E+02 0.  0.
         66    2    3    3    0    0 -0.19365136586E+02 -0.24917303643E+02  0.75584335083E+02  0.81932119730E+02  0.19999994040E+01 0.  0.
        -13    1    3    3    0    0  0.19365136586E+02  0.24917303643E+02  0.10070496951E+02  0.33125618617E+02  0.10566000000E+00 0.  1.
         13    1    4    4    0    0 -0.28856769094E+01 -0.35188286058E+01  0.11062751321E+02  0.11962646731E+02  0.10566000000E+00 0. -1.
        -13    1    4    4    0    0 -0.15268707812E+02 -0.20150614454E+02  0.61292192693E+02  0.66301770341E+02  0.10566000000E+00 0.  1.
        -14    1    4    4    0    0 -0.12107518649E+01 -0.12478605831E+01  0.32293910685E+01  0.36677026579E+01  0.00000000000E+00 0.  1.
<mgrwt>
<rscale>  0 0.76821435E+02</rscale>
<asrwt>0</asrwt>
<pdfrwt beam="1">  1        2 0.15439428E-01 0.76821435E+02</pdfrwt>
<pdfrwt beam="2">  1       -1 0.22617620E-02 0.76821435E+02</pdfrwt>
<totfact> 0.19773852E+05</totfact>
</mgrwt>
</event>
<event>
 8    1  0.1627221E-013  0.7969214E+02  0.7818608E-02  0.1329927E+00
          2   -1    0    0  501    0  0.00000000000E+00  0.00000000000E+00  0.60253489652E+03  0.60253489653E+03  0.25500000000E-02 0. -1.
         -1   -1    0    0    0  501 -0.00000000000E+00 -0.00000000000E+00 -0.26350473536E+01  0.26350521736E+01  0.50400000000E-02 0.  1.
         24    2    1    2    0    0  0.00000000000E+00  0.35527136788E-14  0.59989984917E+03  0.60516994870E+03  0.79692143769E+02 0.  0.
         66    2    3    3    0    0 -0.19774427600E+02  0.29702210272E+02  0.43437021309E+03  0.43583796452E+03  0.20000040546E+01 0.  0.
        -13    1    3    3    0    0  0.19774427600E+02 -0.29702210272E+02  0.16552963608E+03  0.16933198418E+03  0.10566000000E+00 0.  1.
         13    1    4    4    0    0 -0.40165891411E+01  0.68248021217E+01  0.10314544349E+03  0.10344904344E+03  0.10566000000E+00 0. -1.
        -13    1    4    4    0    0 -0.38609592748E+01  0.54954894584E+01  0.84738826449E+02  0.85004630949E+02  0.10566000000E+00 0.  1.
         14    1    4    4    0    0 -0.11896879184E+02  0.17381918692E+02  0.24648594315E+03  0.24738429013E+03  0.00000000000E+00 0. -1.
<mgrwt>
<rscale>  0 0.79692144E+02</rscale>
<asrwt>0</asrwt>
<pdfrwt beam="1">  1        2 0.92697894E-01 0.79692144E+02</pdfrwt>
<pdfrwt beam="2">  1       -1 0.40539132E-03 0.79692144E+02</pdfrwt>
<totfact> 0.32525854E+05</totfact>
</mgrwt>
</event>
<event>
 8    1  0.1627221E-013  0.8241842E+02  0.7818608E-02  0.1322325E+00
          2   -1    0    0  501    0  0.00000000000E+00  0.00000000000E+00  0.62405599409E+03  0.62405599409E+03  0.25500000000E-02 0. -1.
         -1   -1    0    0    0  501 -0.00000000000E+00 -0.00000000000E+00 -0.27212262452E+01  0.27212309126E+01  0.50400000000E-02 0.  1.
         24    2    1    2    0    0  0.00000000000E+00  0.00000000000E+00  0.62133476784E+03  0.62677722500E+03  0.82418420609E+02 0.  0.
         66    2    3    3    0    0  0.36949624832E+02 -0.75710155862E+01  0.43663982162E+03  0.43827038328E+03  0.19999964959E+01 0.  0.
        -13    1    3    3    0    0 -0.36949624832E+02  0.75710155862E+01  0.18469494622E+03  0.18850684172E+03  0.10566000000E+00 0.  1.
         13    1    4    4    0    0  0.30872253111E+02 -0.68632104647E+01  0.36485887145E+03  0.36622698823E+03  0.10566000000E+00 0. -1.
        -13    1    4    4    0    0  0.48885260154E+01 -0.64452028739E+00  0.55295189535E+02  0.55514702942E+02  0.10566000000E+00 0.  1.
        -14    1    4    4    0    0  0.11888457053E+01 -0.63284834108E-01  0.16485760639E+02  0.16528692112E+02  0.00000000000E+00 0.  1.
<mgrwt>
<rscale>  0 0.82418421E+02</rscale>
<asrwt>0</asrwt>
<pdfrwt beam="1">  1        2 0.96008528E-01 0.82418421E+02</pdfrwt>
<pdfrwt beam="2">  1       -1 0.41865093E-03 0.82418421E+02</pdfrwt>
<totfact> 0.30083092E+05</totfact>
</mgrwt>
</event>
<event>
 8    1  0.1627221E-013  0.7721849E+02  0.7818608E-02  0.1337136E+00
         -1   -1    0    0    0  501 -0.00000000000E+00  0.00000000000E+00  0.84291119134E+01  0.84291134202E+01  0.50400000000E-02 0.  1.
          2   -1    0    0  501    0  0.00000000000E+00 -0.00000000000E+00 -0.17684825773E+03  0.17684825775E+03  0.25500000000E-02 0. -1.
         24    2    1    2    0    0  0.00000000000E+00  0.00000000000E+00 -0.16841914582E+03  0.18527737117E+03  0.77218492536E+02 0.  0.
         66    2    3    3    0    0  0.19645738502E+02  0.32773546974E+02 -0.97099521261E+02  0.10436655339E+03  0.20000038159E+01 0.  0.
        -13    1    3    3    0    0 -0.19645738502E+02 -0.32773546974E+02 -0.71319624557E+02  0.80910817778E+02  0.10566000000E+00 0.  1.
         13    1    4    4    0    0  0.32561778263E+01  0.57927385741E+01 -0.16357571844E+02  0.17656155722E+02  0.10566000000E+00 0. -1.
        -13    1    4    4    0    0  0.96500088886E+01  0.14795894623E+02 -0.43459748850E+02  0.46912707270E+02  0.10566000000E+00 0.  1.
        -14    1    4    4    0    0  0.67395517867E+01  0.12184913777E+02 -0.37282200567E+02  0.39797690399E+02  0.00000000000E+00 0.  1.
<mgrwt>
<rscale>  0 0.77218493E+02</rscale>
<asrwt>0</asrwt>
<pdfrwt beam="1">  1        2 0.27207422E-01 0.77218493E+02</pdfrwt>
<pdfrwt beam="2">  1       -1 0.12967867E-02 0.77218493E+02</pdfrwt>
<totfact> 0.23218088E+05</totfact>
</mgrwt>
</event>
<event>
 8    1  0.1627221E-013  0.7979281E+02  0.7818608E-02  0.1329640E+00
          2   -1    0    0  501    0  0.00000000000E+00  0.00000000000E+00  0.18525096056E+03  0.18525096058E+03  0.25500000000E-02 0. -1.
         -1   -1    0    0    0  501 -0.00000000000E+00 -0.00000000000E+00 -0.85922520261E+01  0.85922535043E+01  0.50400000000E-02 0.  1.
         24    2    1    2    0    0  0.22204460493E-15 -0.35527136788E-14  0.17665870854E+03  0.19384321409E+03  0.79792808854E+02 0.  0.
         66    2    3    3    0    0  0.15746097460E+01 -0.18032715754E+02  0.17468787902E+03  0.17563460166E+03  0.19999977014E+01 0.  0.
        -13    1    3    3    0    0 -0.15746097460E+01  0.18032715754E+02  0.19708295146E+01  0.18208612422E+02  0.10566000000E+00 0.  1.
         13    1    4    4    0    0  0.80744690458E+00 -0.76182961731E+01  0.64738670246E+02  0.65190467066E+02  0.10566000000E+00 0. -1.
        -13    1    4    4    0    0  0.65278031854E+00 -0.82598792861E+01  0.86974018279E+02  0.87367858779E+02  0.10566000000E+00 0.  1.
         14    1    4    4    0    0  0.11438252292E+00 -0.21545402946E+01  0.22975190498E+02  0.23076275819E+02  0.00000000000E+00 0. -1.
<mgrwt>
<rscale>  0 0.79792809E+02</rscale>
<asrwt>0</asrwt>
<pdfrwt beam="1">  1        2 0.28500148E-01 0.79792809E+02</pdfrwt>
<pdfrwt beam="2">  1       -1 0.13218851E-02 0.79792809E+02</pdfrwt>
<totfact> 0.21631557E+05</totfact>
</mgrwt>
</event>
<event>
 8    1  0.1627221E-013  0.8057715E+02  0.7818608E-02  0.1327422E+00
         -1   -1    0    0    0  501 -0.00000000000E+00  0.00000000000E+00  0.15800487396E+01  0.15800567778E+01  0.50400000000E-02 0.  1.
          2   -1    0    0  501    0  0.00000000000E+00 -0.00000000000E+00 -0.10272879046E+04  0.10272879046E+04  0.25500000000E-02 0. -1.
         24    2    1    2    0    0 -0.71054273576E-14  0.00000000000E+00 -0.10257078559E+04  0.10288679614E+04  0.80577145533E+02 0.  0.
         66    2    3    3    0    0 -0.30359039652E+02 -0.31485286060E+01 -0.84847395811E+03  0.84902511277E+03  0.20000001971E+01 0.  0.
        -13    1    3    3    0    0  0.30359039652E+02  0.31485286060E+01 -0.17723389775E+03  0.17984284861E+03  0.10566000000E+00 0.  1.
         13    1    4    4    0    0 -0.15254805727E+01 -0.32435512376E+00 -0.49692522840E+02  0.49717102565E+02  0.10566000000E+00 0. -1.
        -13    1    4    4    0    0 -0.20146619579E+02 -0.20246243747E+01 -0.57633554123E+03  0.57669112412E+03  0.10566000000E+00 0.  1.
        -14    1    4    4    0    0 -0.86869395003E+01 -0.79954910755E+00 -0.22244589403E+03  0.22261688608E+03  0.00000000000E+00 0.  1.
<mgrwt>
<rscale>  0 0.80577146E+02</rscale>
<asrwt>0</asrwt>
<pdfrwt beam="1">  1        2 0.15804376E+00 0.80577146E+02</pdfrwt>
<pdfrwt beam="2">  1       -1 0.24308586E-03 0.80577146E+02</pdfrwt>
<totfact> 0.34609539E+05</totfact>
</mgrwt>
</event>
<event>
 8    1  0.1627221E-013  0.7876854E+02  0.7818608E-02  0.1332583E+00
         -1   -1    0    0    0  501 -0.00000000000E+00  0.00000000000E+00  0.11274770565E+03  0.11274770577E+03  0.50400000000E-02 0.  1.
          2   -1    0    0  501    0  0.00000000000E+00 -0.00000000000E+00 -0.13757448243E+02  0.13757448480E+02  0.25500000000E-02 0. -1.
         24    2    1    2    0    0  0.35527136788E-14  0.00000000000E+00  0.98990257411E+02  0.12650515425E+03  0.78768540602E+02 0.  0.
         66    2    3    3    0    0 -0.28128788843E+02  0.14194394676E+02  0.11643334819E+02  0.33649321622E+02  0.19999994851E+01 0.  0.
        -13    1    3    3    0    0  0.28128788843E+02 -0.14194394676E+02  0.87346922592E+02  0.92855832624E+02  0.10566000000E+00 0.  1.
         13    1    4    4    0    0 -0.14524364555E+02  0.71584312809E+01  0.66722086072E+01  0.17513704230E+02  0.10566000000E+00 0.  1.
        -13    1    4    4    0    0 -0.12812732387E+02  0.68662771400E+01  0.47915204478E+01  0.15306263594E+02  0.10566000000E+00 0. -1.
         14    1    4    4    0    0 -0.79169190100E+00  0.16968625546E+00  0.17960576360E+00  0.82935379768E+00  0.00000000000E+00 0. -1.
<mgrwt>
<rscale>  0 0.78768541E+02</rscale>
<asrwt>0</asrwt>
<pdfrwt beam="1">  1        2 0.21165304E-02 0.78768541E+02</pdfrwt>
<pdfrwt beam="2">  1       -1 0.17345802E-01 0.78768541E+02</pdfrwt>
<totfact> 0.12003464E+05</totfact>
</mgrwt>
</event>
<event>
 8    1  0.1627221E-013  0.7461789E+02  0.7818608E-02  0.1345058E+00
         -1   -1    0    0    0  501 -0.00000000000E+00  0.00000000000E+00  0.15855285932E+02  0.15855286734E+02  0.50400000000E-02 0.  1.
          2   -1    0    0  501    0  0.00000000000E+00 -0.00000000000E+00 -0.87791371155E+02  0.87791371192E+02  0.25500000000E-02 0. -1.
         24    2    1    2    0    0  0.00000000000E+00  0.00000000000E+00 -0.71936085223E+02  0.10364665793E+03  0.74617888887E+02 0.  0.
         66    2    3    3    0    0 -0.39980417600E+01 -0.14012365224E+02 -0.83660528834E+02  0.84943597772E+02  0.20000001361E+01 0.  0.
        -13    1    3    3    0    0  0.39980417600E+01  0.14012365224E+02  0.11724443612E+02  0.18703060154E+02  0.10566000000E+00 0.  1.
         13    1    4    4    0    0 -0.15451308454E+01 -0.49007870167E+01 -0.28823611270E+02  0.29278266229E+02  0.10566000000E+00 0. -1.
        -13    1    4    4    0    0 -0.17716691995E+00 -0.33832289569E+01 -0.20939808116E+02  0.21212363241E+02  0.10566000000E+00 0.  1.
        -14    1    4    4    0    0 -0.22757439947E+01 -0.57283492500E+01 -0.33897109448E+02  0.34452968301E+02  0.00000000000E+00 0.  1.
<mgrwt>
<rscale>  0 0.74617889E+02</rscale>
<asrwt>0</asrwt>
<pdfrwt beam="1">  1        2 0.13506365E-01 0.74617889E+02</pdfrwt>
<pdfrwt beam="2">  1       -1 0.24392749E-02 0.74617889E+02</pdfrwt>
<totfact> 0.20611259E+05</totfact>
</mgrwt>
</event>
<event>
 8    1  0.1627221E-013  0.7900845E+02  0.7818608E-02  0.1331889E+00
         -1   -1    0    0    0  501 -0.00000000000E+00  0.00000000000E+00  0.49517655325E+02  0.49517655581E+02  0.50400000000E-02 0.  1.
          2   -1    0    0  501    0  0.00000000000E+00 -0.00000000000E+00 -0.31515700557E+02  0.31515700660E+02  0.25500000000E-02 0. -1.
         24    2    1    2    0    0 -0.71054273576E-14  0.00000000000E+00  0.18001954768E+02  0.81033356242E+02  0.79008445424E+02 0.  0.
         66    2    3    3    0    0  0.38049276478E+02 -0.88354914524E+01  0.14877531776E+02  0.41846795628E+02  0.20000007245E+01 0.  0.
        -13    1    3    3    0    0 -0.38049276478E+02  0.88354914524E+01  0.31244229919E+01  0.39186560614E+02  0.10566000000E+00 0.  1.
         13    1    4    4    0    0  0.12183106919E+02 -0.29127500405E+01  0.45062629130E+01  0.13312767423E+02  0.10566000000E+00 0. -1.
        -13    1    4    4    0    0  0.15701134842E+02 -0.39450085986E+01  0.70594352581E+01  0.17661696362E+02  0.10566000000E+00 0.  1.
        -14    1    4    4    0    0  0.10165034716E+02 -0.19777328133E+01  0.33118336047E+01  0.10872331842E+02  0.00000000000E+00 0.  1.
<mgrwt>
<rscale>  0 0.79008445E+02</rscale>
<asrwt>0</asrwt>
<pdfrwt beam="1">  1        2 0.48485693E-02 0.79008445E+02</pdfrwt>
<pdfrwt beam="2">  1       -1 0.76181008E-02 0.79008445E+02</pdfrwt>
<totfact> 0.14068620E+05</totfact>
</mgrwt>
</event>
<event>
 8    1  0.1627221E-013  0.7964132E+02  0.7818608E-02  0.1330072E+00
         -1   -1    0    0    0  501 -0.00000000000E+00  0.00000000000E+00  0.64790621541E+01  0.64790641144E+01  0.50400000000E-02 0.  1.
          2   -1    0    0  501    0  0.00000000000E+00 -0.00000000000E+00 -0.24473982789E+03  0.24473982790E+03  0.25500000000E-02 0. -1.
         24    2    1    2    0    0  0.35527136788E-14 -0.35527136788E-14 -0.23826076574E+03  0.25121889202E+03  0.79641316021E+02 0.  0.
         66    2    3    3    0    0  0.30056574855E+02 -0.25192897282E+02 -0.14050613874E+03  0.14589055762E+03  0.20000028244E+01 0.  0.
        -13    1    3    3    0    0 -0.30056574855E+02  0.25192897282E+02 -0.97754626993E+02  0.10532833440E+03  0.10566000000E+00 0.  1.
         13    1    4    4    0    0  0.68088848836E+01 -0.53364526776E+01 -0.31773068212E+02  0.32929890193E+02  0.10566000000E+00 0. -1.
        -13    1    4    4    0    0  0.67271723440E+01 -0.66813409185E+01 -0.34205134013E+02  0.35495035161E+02  0.10566000000E+00 0.  1.
        -14    1    4    4    0    0  0.16520517627E+02 -0.13175103686E+02 -0.74527936519E+02  0.77465632261E+02  0.00000000000E+00 0.  1.
<mgrwt>
<rscale>  0 0.79641316E+02</rscale>
<asrwt>0</asrwt>
<pdfrwt beam="1">  1        2 0.37652274E-01 0.79641316E+02</pdfrwt>
<pdfrwt beam="2">  1       -1 0.99677914E-03 0.79641316E+02</pdfrwt>
<totfact> 0.23968950E+05</totfact>
</mgrwt>
</event>
<event>
 8    1  0.1627221E-013  0.8141811E+02  0.7818608E-02  0.1325075E+00
         -1   -1    0    0    0  501 -0.00000000000E+00  0.00000000000E+00  0.31441993996E+02  0.31441994400E+02  0.50400000000E-02 0.  1.
          2   -1    0    0  501    0  0.00000000000E+00 -0.00000000000E+00 -0.52707443361E+02  0.52707443422E+02  0.25500000000E-02 0. -1.
         24    2    1    2    0    0  0.00000000000E+00  0.00000000000E+00 -0.21265449365E+02  0.84149437822E+02  0.81418109467E+02 0.  0.
         66    2    3    3    0    0  0.22588477306E+02 -0.25376836115E+02 -0.33773011804E+02  0.47946214203E+02  0.20000029623E+01 0.  0.
        -13    1    3    3    0    0 -0.22588477306E+02  0.25376836115E+02  0.12507562439E+02  0.36203223619E+02  0.10566000000E+00 0.  1.
         13    1    4    4    0    0  0.51542019348E+01 -0.53370374503E+01 -0.66767005018E+01  0.99819467018E+01  0.10566000000E+00 0. -1.
        -13    1    4    4    0    0  0.70142616116E+00 -0.10596052027E+01 -0.10587193335E+01  0.16573510515E+01  0.10566000000E+00 0.  1.
         14    1    4    4    0    0  0.16732849211E+02 -0.18980193462E+02 -0.26037591968E+02  0.36306916450E+02  0.00000000000E+00 0. -1.
<mgrwt>
<rscale>  0 0.81418109E+02</rscale>
<asrwt>0</asrwt>
<pdfrwt beam="1">  1        2 0.81088374E-02 0.81418109E+02</pdfrwt>
<pdfrwt beam="2">  1       -1 0.48372299E-02 0.81418109E+02</pdfrwt>
<totfact> 0.14407062E+05</totfact>
</mgrwt>
</event>
<event>
 8    1  0.1627221E-013  0.7891637E+02  0.7818608E-02  0.1332155E+00
          2   -1    0    0  501    0  0.00000000000E+00  0.00000000000E+00  0.63990470725E+01  0.63990475806E+01  0.25500000000E-02 0. -1.
         -1   -1    0    0    0  501 -0.00000000000E+00 -0.00000000000E+00 -0.24330941815E+03  0.24330941820E+03  0.50400000000E-02 0.  1.
         24    2    1    2    0    0  0.35527136788E-14  0.35527136788E-14 -0.23691037108E+03  0.24970846578E+03  0.78916373203E+02 0.  0.
         66    2    3    3    0    0  0.24334945926E+02  0.25266992763E+02 -0.17551621041E+03  0.17899874478E+03  0.19999996328E+01 0.  0.
        -13    1    3    3    0    0 -0.24334945926E+02 -0.25266992763E+02 -0.61394160661E+02  0.70709721000E+02  0.10566000000E+00 0.  1.
         13    1    4    4    0    0  0.19833279839E+02  0.20764980419E+02 -0.14195254717E+03  0.14482776050E+03  0.10566000000E+00 0. -1.
        -13    1    4    4    0    0  0.22975021497E+01  0.28255327883E+01 -0.19402295685E+02  0.19741387832E+02  0.10566000000E+00 0.  1.
        -14    1    4    4    0    0  0.22041639380E+01  0.16764795555E+01 -0.14161367565E+02  0.14429596448E+02  0.00000000000E+00 0.  1.
<mgrwt>
<rscale>  0 0.78916373E+02</rscale>
<asrwt>0</asrwt>
<pdfrwt beam="1">  1        2 0.98446901E-03 0.78916373E+02</pdfrwt>
<pdfrwt beam="2">  1       -1 0.37432211E-01 0.78916373E+02</pdfrwt>
<totfact> 0.96802771E+04</totfact>
</mgrwt>
</event>
<event>
 8    1  0.1627221E-013  0.7888458E+02  0.7818608E-02  0.1332247E+00
          2   -1    0    0  501    0  0.00000000000E+00  0.00000000000E+00  0.94647758563E+01  0.94647761998E+01  0.25500000000E-02 0. -1.
         -1   -1    0    0    0  501 -0.00000000000E+00 -0.00000000000E+00 -0.16436673385E+03  0.16436673392E+03  0.50400000000E-02 0.  1.
         24    2    1    2    0    0  0.35527136788E-14  0.00000000000E+00 -0.15490195799E+03  0.17383151012E+03  0.78884582287E+02 0.  0.
         66    2    3    3    0    0 -0.27022485665E+02 -0.22240792484E+02 -0.37541435764E+02  0.51363673844E+02  0.20000024204E+01 0.  0.
        -13    1    3    3    0    0  0.27022485665E+02  0.22240792484E+02 -0.11736052223E+03  0.12246783628E+03  0.10566000000E+00 0.  1.
         13    1    4    4    0    0 -0.13932169539E+02 -0.12475279590E+02 -0.20080348602E+02  0.27440289957E+02  0.10566000000E+00 0. -1.
        -13    1    4    4    0    0 -0.44876075646E+01 -0.30464249181E+01 -0.53548796094E+01  0.76226784073E+01  0.10566000000E+00 0.  1.
        -14    1    4    4    0    0 -0.86027085617E+01 -0.67190879758E+01 -0.12106207553E+02  0.16300705480E+02  0.00000000000E+00 0.  1.
<mgrwt>
<rscale>  0 0.78884582E+02</rscale>
<asrwt>0</asrwt>
<pdfrwt beam="1">  1        2 0.14561195E-02 0.78884582E+02</pdfrwt>
<pdfrwt beam="2">  1       -1 0.25287188E-01 0.78884582E+02</pdfrwt>
<totfact> 0.10913898E+05</totfact>
</mgrwt>
</event>
<event>
 8    1  0.1627221E-013  0.7824348E+02  0.7818608E-02  0.1334111E+00
         -1   -1    0    0    0  501 -0.00000000000E+00  0.00000000000E+00  0.88838254694E+01  0.88838268990E+01  0.50400000000E-02 0.  1.
          2   -1    0    0  501    0  0.00000000000E+00 -0.00000000000E+00 -0.17228057162E+03  0.17228057164E+03  0.25500000000E-02 0. -1.
         24    2    1    2    0    0  0.00000000000E+00 -0.35527136788E-14 -0.16339674615E+03  0.18116439854E+03  0.78243483083E+02 0.  0.
         66    2    3    3    0    0  0.65743010856E+01  0.29196463328E+02 -0.13999884453E+03  0.14317587567E+03  0.19999994740E+01 0.  0.
        -13    1    3    3    0    0 -0.65743010856E+01 -0.29196463328E+02 -0.23397901622E+02  0.37988522871E+02  0.10566000000E+00 0.  1.
         13    1    4    4    0    0  0.25964199669E+01  0.80097833511E+01 -0.38145348846E+02  0.39063753385E+02  0.10566000000E+00 0. -1.
        -13    1    4    4    0    0  0.80967743487E+00  0.49220508687E+01 -0.22336383484E+02  0.22886837996E+02  0.10566000000E+00 0.  1.
         14    1    4    4    0    0  0.31682036838E+01  0.16264629108E+02 -0.79517112199E+02  0.81225284285E+02  0.00000000000E+00 0. -1.
<mgrwt>
<rscale>  0 0.78243483E+02</rscale>
<asrwt>0</asrwt>
<pdfrwt beam="1">  1        2 0.26504701E-01 0.78243483E+02</pdfrwt>
<pdfrwt beam="2">  1       -1 0.13667426E-02 0.78243483E+02</pdfrwt>
<totfact> 0.22229266E+05</totfact>
</mgrwt>
</event>
<event>
 8    1  0.1627221E-013  0.8305653E+02  0.7818608E-02  0.1320595E+00
         -1   -1    0    0    0  501 -0.00000000000E+00  0.00000000000E+00  0.48483874057E+02  0.48483874319E+02  0.50400000000E-02 0.  1.
          2   -1    0    0  501    0  0.00000000000E+00 -0.00000000000E+00 -0.35570524685E+02  0.35570524776E+02  0.25500000000E-02 0. -1.
         24    2    1    2    0    0  0.00000000000E+00  0.35527136788E-14  0.12913349372E+02  0.84054399095E+02  0.83056531442E+02 0.  0.
         66    2    3    3    0    0 -0.24864848166E+02  0.23352550981E+02 -0.17466605438E+02  0.38375573258E+02  0.20000014347E+01 0.  0.
        -13    1    3    3    0    0  0.24864848166E+02 -0.23352550981E+02  0.30379954810E+02  0.45678825837E+02  0.10566000000E+00 0.  1.
         13    1    4    4    0    0 -0.18625743103E+02  0.17670713580E+02 -0.13556522509E+02  0.29033823226E+02  0.10566000000E+00 0. -1.
        -13    1    4    4    0    0 -0.33757414078E+01  0.34402071208E+01 -0.18608338163E+01  0.51676417846E+01  0.10566000000E+00 0.  1.
        -14    1    4    4    0    0 -0.28633636549E+01  0.22416302801E+01 -0.20492491129E+01  0.41741082472E+01  0.00000000000E+00 0.  1.
<mgrwt>
<rscale>  0 0.83056531E+02</rscale>
<asrwt>0</asrwt>
<pdfrwt beam="1">  1        2 0.54723884E-02 0.83056531E+02</pdfrwt>
<pdfrwt beam="2">  1       -1 0.74590576E-02 0.83056531E+02</pdfrwt>
<totfact> 0.12537668E+05</totfact>
</mgrwt>
</event>
<event>
 8    1  0.1627221E-013  0.8987895E+02  0.7818608E-02  0.1303145E+00
          2   -1    0    0  501    0  0.00000000000E+00  0.00000000000E+00  0.13666657324E+04  0.13666657324E+04  0.25500000000E-02 0. -1.
         -1   -1    0    0    0  501 -0.00000000000E+00 -0.00000000000E+00 -0.14777208068E+01  0.14777294016E+01  0.50400000000E-02 0.  1.
         24    2    1    2    0    0 -0.35527136788E-14  0.44408920985E-15  0.13651880116E+04  0.13681434618E+04  0.89878946808E+02 0.  0.
         66    2    3    3    0    0 -0.29323312209E+02 -0.39007068071E+01  0.11974457493E+04  0.11978127545E+04  0.19999991999E+01 0.  0.
        -13    1    3    3    0    0  0.29323312209E+02  0.39007068071E+01  0.16774226228E+03  0.17033070736E+03  0.10566000000E+00 0.  1.
         13    1    4    4    0    0 -0.11647803157E+02 -0.17971584251E+01  0.44358766385E+03  0.44374421436E+03  0.10566000000E+00 0.  1.
        -13    1    4    4    0    0 -0.46314529757E+01 -0.76618872624E+00  0.20773802460E+03  0.20779108603E+03  0.10566000000E+00 0. -1.
        -14    1    4    4    0    0 -0.13044056077E+02 -0.13373596557E+01  0.54612006087E+03  0.54627745406E+03  0.00000000000E+00 0.  1.
<mgrwt>
<rscale>  0 0.89878947E+02</rscale>
<asrwt>0</asrwt>
<pdfrwt beam="1">  1        2 0.21025693E+00 0.89878947E+02</pdfrwt>
<pdfrwt beam="2">  1       -1 0.22734161E-03 0.89878947E+02</pdfrwt>
<totfact> 0.25252270E+05</totfact>
</mgrwt>
</event>
<event>
 8    1  0.1627221E-013  0.8139105E+02  0.7818608E-02  0.1325150E+00
         -1   -1    0    0    0  501 -0.00000000000E+00  0.00000000000E+00  0.13231138818E+02  0.13231139778E+02  0.50400000000E-02 0.  1.
          2   -1    0    0  501    0  0.00000000000E+00 -0.00000000000E+00 -0.12516877897E+03  0.12516877900E+03  0.25500000000E-02 0. -1.
         24    2    1    2    0    0  0.00000000000E+00 -0.35527136788E-14 -0.11193764016E+03  0.13839991878E+03  0.81391045171E+02 0.  0.
         66    2    3    3    0    0 -0.27226605526E+02  0.29507822288E+02 -0.44966606651E+02  0.60315796721E+02  0.19999989255E+01 0.  0.
        -13    1    3    3    0    0  0.27226605526E+02 -0.29507822288E+02 -0.66971033504E+02  0.78084122057E+02  0.10566000000E+00 0.  1.
         13    1    4    4    0    0 -0.15393212489E+02  0.16152872090E+02 -0.25925978179E+02  0.34205756476E+02  0.10566000000E+00 0. -1.
        -13    1    4    4    0    0 -0.56975138697E+01  0.69879849950E+01 -0.99675866554E+01  0.13440890832E+02  0.10566000000E+00 0.  1.
         14    1    4    4    0    0 -0.61358791671E+01  0.63669652030E+01 -0.90730418158E+01  0.12669149413E+02  0.00000000000E+00 0. -1.
<mgrwt>
<rscale>  0 0.81391045E+02</rscale>
<asrwt>0</asrwt>
<pdfrwt beam="1">  1        2 0.19256734E-01 0.81391045E+02</pdfrwt>
<pdfrwt beam="2">  1       -1 0.20355600E-02 0.81391045E+02</pdfrwt>
<totfact> 0.18075546E+05</totfact>
</mgrwt>
</event>
<event>
 8    1  0.1627221E-013  0.7566281E+02  0.7818608E-02  0.1341831E+00
         -1   -1    0    0    0  501 -0.00000000000E+00  0.00000000000E+00  0.21691532828E+03  0.21691532834E+03  0.50400000000E-02 0.  1.
          2   -1    0    0  501    0  0.00000000000E+00 -0.00000000000E+00 -0.65980358209E+01  0.65980363137E+01  0.25500000000E-02 0. -1.
         24    2    1    2    0    0 -0.88817841970E-15  0.00000000000E+00  0.21031729246E+03  0.22351336465E+03  0.75662809034E+02 0.  0.
         66    2    3    3    0    0  0.51239529584E+01 -0.31765472563E+02  0.46601953231E+02  0.56666058400E+02  0.19999971390E+01 0.  0.
        -13    1    3    3    0    0 -0.51239529584E+01  0.31765472563E+02  0.16371533923E+03  0.16684730625E+03  0.10566000000E+00 0.  1.
         13    1    4    4    0    0  0.75005420006E+00 -0.84062410927E+01  0.11604817218E+02  0.14349578994E+02  0.10566000000E+00 0. -1.
        -13    1    4    4    0    0  0.21667154855E+01 -0.89781245694E+01  0.13881136472E+02  0.16673286735E+02  0.10566000000E+00 0.  1.
         14    1    4    4    0    0  0.22071832729E+01 -0.14381106901E+02  0.21115999541E+02  0.25643192670E+02  0.00000000000E+00 0. -1.
<mgrwt>
<rscale>  0 0.75662809E+02</rscale>
<asrwt>0</asrwt>
<pdfrwt beam="1">  1        2 0.10150824E-02 0.75662809E+02</pdfrwt>
<pdfrwt beam="2">  1       -1 0.33371592E-01 0.75662809E+02</pdfrwt>
<totfact> 0.11193566E+05</totfact>
</mgrwt>
</event>
<event>
 8    1  0.1627221E-013  0.7880350E+02  0.7818608E-02  0.1332482E+00
         -1   -1    0    0    0  501 -0.00000000000E+00  0.00000000000E+00  0.82173184249E+00  0.82174729849E+00  0.50400000000E-02 0.  1.
          2   -1    0    0  501    0  0.00000000000E+00 -0.00000000000E+00 -0.18892822432E+04  0.18892822432E+04  0.25500000000E-02 0. -1.
         24    2    1    2    0    0 -0.88817841970E-15  0.00000000000E+00 -0.18884605114E+04  0.18901039905E+04  0.78803502131E+02 0.  0.
         66    2    3    3    0    0 -0.62174519582E+01  0.10451040092E+02 -0.18431110515E+04  0.18431522533E+04  0.19999827787E+01 0.  0.
        -13    1    3    3    0    0  0.62174519582E+01 -0.10451040092E+02 -0.45349459895E+02  0.46951737185E+02  0.10566000000E+00 0.  1.
         13    1    4    4    0    0 -0.21565616838E+01  0.34196979782E+01 -0.69536545862E+03  0.69537721943E+03  0.10566000000E+00 0. -1.
        -13    1    4    4    0    0 -0.26655232769E+01  0.44364346183E+01 -0.64273250522E+03  0.64275335192E+03  0.10566000000E+00 0.  1.
         14    1    4    4    0    0 -0.13953669975E+01  0.25949074953E+01 -0.50501308761E+03  0.50502168197E+03  0.00000000000E+00 0. -1.
<mgrwt>
<rscale>  0 0.78803502E+02</rscale>
<asrwt>0</asrwt>
<pdfrwt beam="1">  1        2 0.29065533E+00 0.78803502E+02</pdfrwt>
<pdfrwt beam="2">  1       -1 0.12642299E-03 0.78803502E+02</pdfrwt>
<totfact> 0.30320639E+05</totfact>
</mgrwt>
</event>
<event>
 8    1  0.1627221E-013  0.8007012E+02  0.7818608E-02  0.1328853E+00
         -1   -1    0    0    0  501 -0.00000000000E+00  0.00000000000E+00  0.27989553969E+02  0.27989554423E+02  0.50400000000E-02 0.  1.
          2   -1    0    0  501    0  0.00000000000E+00 -0.00000000000E+00 -0.57264440038E+02  0.57264440095E+02  0.25500000000E-02 0. -1.
         24    2    1    2    0    0 -0.71054273576E-14  0.00000000000E+00 -0.29274886069E+02  0.85253994518E+02  0.80070123185E+02 0.  0.
         66    2    3    3    0    0  0.34676565173E+02 -0.15513977264E+02 -0.28015462774E+02  0.47244193495E+02  0.20000004445E+01 0.  0.
        -13    1    3    3    0    0 -0.34676565173E+02  0.15513977264E+02 -0.12594232950E+01  0.38009801023E+02  0.10566000000E+00 0.  1.
         13    1    4    4    0    0  0.38114914581E+01 -0.12050421989E+01 -0.28948384999E+01  0.49366838883E+01  0.10566000000E+00 0.  1.
        -13    1    4    4    0    0  0.37750405532E+01 -0.19765954236E+01 -0.35678946910E+01  0.55586776493E+01  0.10566000000E+00 0. -1.
         14    1    4    4    0    0  0.27090033162E+02 -0.12332339641E+02 -0.21552729583E+02  0.36748831957E+02  0.00000000000E+00 0. -1.
<mgrwt>
<rscale>  0 0.80070123E+02</rscale>
<asrwt>0</asrwt>
<pdfrwt beam="1">  1        2 0.88099139E-02 0.80070123E+02</pdfrwt>
<pdfrwt beam="2">  1       -1 0.43060853E-02 0.80070123E+02</pdfrwt>
<totfact> 0.15363904E+05</totfact>
</mgrwt>
</event>
<event>
 8    1  0.1627221E-013  0.8133656E+02  0.7818608E-02  0.1325301E+00
         -1   -1    0    0    0  501 -0.00000000000E+00  0.00000000000E+00  0.77918001412E+00  0.77919631416E+00  0.50400000000E-02 0.  1.
          2   -1    0    0  501    0  0.00000000000E+00 -0.00000000000E+00 -0.21226056167E+04  0.21226056167E+04  0.25500000000E-02 0. -1.
         24    2    1    2    0    0  0.00000000000E+00  0.00000000000E+00 -0.21218264367E+04  0.21233848130E+04  0.81336564512E+02 0.  0.
         66    2    3    3    0    0 -0.29850600057E+01  0.12690439505E+02 -0.20665368331E+04  0.20665789219E+04  0.20000000976E+01 0.  0.
        -13    1    3    3    0    0  0.29850600057E+01 -0.12690439505E+02 -0.55289603629E+02  0.56805891170E+02  0.10566000000E+00 0.  1.
         13    1    4    4    0    0  0.16952503424E+00  0.19086126782E+01 -0.32899529751E+03  0.32900089436E+03  0.10566000000E+00 0. -1.
        -13    1    4    4    0    0 -0.26708328901E+01  0.95136778781E+01 -0.14898124558E+04  0.14898452295E+04  0.10566000000E+00 0.  1.
        -14    1    4    4    0    0 -0.48375214991E+00  0.12681489487E+01 -0.24772907978E+03  0.24773279796E+03  0.00000000000E+00 0.  1.
<mgrwt>
<rscale>  0 0.81336565E+02</rscale>
<asrwt>0</asrwt>
<pdfrwt beam="1">  1        2 0.32655008E+00 0.81336565E+02</pdfrwt>
<pdfrwt beam="2">  1       -1 0.11987680E-03 0.81336565E+02</pdfrwt>
<totfact> 0.25042210E+05</totfact>
</mgrwt>
</event>
<event>
 8    1  0.1627221E-013  0.7818229E+02  0.7818608E-02  0.1334290E+00
          2   -1    0    0  501    0  0.00000000000E+00  0.00000000000E+00  0.78338794290E+02  0.78338794331E+02  0.25500000000E-02 0. -1.
         -1   -1    0    0    0  501 -0.00000000000E+00 -0.00000000000E+00 -0.19506523250E+02  0.19506523901E+02  0.50400000000E-02 0.  1.
         24    2    1    2    0    0 -0.35527136788E-14  0.00000000000E+00  0.58832271040E+02  0.97845318232E+02  0.78182288175E+02 0.  0.
         66    2    3    3    0    0 -0.20778449923E+02 -0.16794607680E+02  0.65104461646E+02  0.70401660178E+02  0.20000003206E+01 0.  0.
        -13    1    3    3    0    0  0.20778449923E+02  0.16794607680E+02 -0.62721906064E+01  0.27443658054E+02  0.10566000000E+00 0.  1.
         13    1    4    4    0    0 -0.55564312539E+01 -0.43406868703E+01  0.16474110653E+02  0.17919904482E+02  0.10566000000E+00 0. -1.
        -13    1    4    4    0    0 -0.73383871693E+01 -0.53996754850E+01  0.24244980613E+02  0.25900553479E+02  0.10566000000E+00 0.  1.
         14    1    4    4    0    0 -0.78836315001E+01 -0.70542453243E+01  0.24385370380E+02  0.26581202217E+02  0.00000000000E+00 0. -1.
<mgrwt>
<rscale>  0 0.78182288E+02</rscale>
<asrwt>0</asrwt>
<pdfrwt beam="1">  1        2 0.12052122E-01 0.78182288E+02</pdfrwt>
<pdfrwt beam="2">  1       -1 0.30010036E-02 0.78182288E+02</pdfrwt>
<totfact> 0.17666838E+05</totfact>
</mgrwt>
</event>
<event>
 8    1  0.1627221E-013  0.8042255E+02  0.7818608E-02  0.1327857E+00
          2   -1    0    0  501    0  0.00000000000E+00  0.00000000000E+00  0.85847339026E+02  0.85847339064E+02  0.25500000000E-02 0. -1.
         -1   -1    0    0    0  501 -0.00000000000E+00 -0.00000000000E+00 -0.18835141455E+02  0.18835142129E+02  0.50400000000E-02 0.  1.
         24    2    1    2    0    0 -0.35527136788E-14 -0.35527136788E-14  0.67012197572E+02  0.10468248119E+03  0.80422554333E+02 0.  0.
         66    2    3    3    0    0  0.22886722188E+02  0.19270239124E+02  0.68448944275E+02  0.74728857481E+02  0.19999999070E+01 0.  0.
        -13    1    3    3    0    0 -0.22886722188E+02 -0.19270239124E+02 -0.14367467031E+01  0.29953623713E+02  0.10566000000E+00 0.  1.
         13    1    4    4    0    0  0.11405632254E+02  0.98055415237E+01  0.32543211971E+02  0.35851205016E+02  0.10566000000E+00 0. -1.
        -13    1    4    4    0    0  0.94472268406E+01  0.73582602380E+01  0.29235564885E+02  0.31593092708E+02  0.10566000000E+00 0.  1.
        -14    1    4    4    0    0  0.20338630934E+01  0.21064373627E+01  0.66701674186E+01  0.72845597559E+01  0.00000000000E+00 0.  1.
<mgrwt>
<rscale>  0 0.80422554E+02</rscale>
<asrwt>0</asrwt>
<pdfrwt beam="1">  1        2 0.13207283E-01 0.80422554E+02</pdfrwt>
<pdfrwt beam="2">  1       -1 0.28977141E-02 0.80422554E+02</pdfrwt>
<totfact> 0.16765900E+05</totfact>
</mgrwt>
</event>
<event>
 8    1  0.1627221E-013  0.7906724E+02  0.7818608E-02  0.1331719E+00
          2   -1    0    0  501    0  0.00000000000E+00  0.00000000000E+00  0.19505164021E+02  0.19505164188E+02  0.25500000000E-02 0. -1.
         -1   -1    0    0    0  501 -0.00000000000E+00 -0.00000000000E+00 -0.80127863711E+02  0.80127863870E+02  0.50400000000E-02 0.  1.
         24    2    1    2    0    0  0.00000000000E+00  0.00000000000E+00 -0.60622699690E+02  0.99633028058E+02  0.79067240765E+02 0.  0.
         66    2    3    3    0    0 -0.16104638063E+02 -0.34140587101E+02 -0.45023922268E+02  0.58788541578E+02  0.19999974203E+01 0.  0.
        -13    1    3    3    0    0  0.16104638063E+02  0.34140587101E+02 -0.15598777422E+02  0.40844486480E+02  0.10566000000E+00 0.  1.
         13    1    4    4    0    0 -0.36820058032E+01 -0.61362168974E+01 -0.82877514741E+01  0.10950265434E+02  0.10566000000E+00 0.  1.
        -13    1    4    4    0    0 -0.16531798742E+01 -0.32974718028E+01 -0.44720778565E+01  0.57980141753E+01  0.10566000000E+00 0. -1.
        -14    1    4    4    0    0 -0.10769452385E+02 -0.24706898401E+02 -0.32264092938E+02  0.42040261968E+02  0.00000000000E+00 0.  1.
<mgrwt>
<rscale>  0 0.79067241E+02</rscale>
<asrwt>0</asrwt>
<pdfrwt beam="1">  1        2 0.30007945E-02 0.79067241E+02</pdfrwt>
<pdfrwt beam="2">  1       -1 0.12327364E-01 0.79067241E+02</pdfrwt>
<totfact> 0.12776232E+05</totfact>
</mgrwt>
</event>
<event>
 8    1  0.1627221E-013  0.8093063E+02  0.7818608E-02  0.1326431E+00
         -1   -1    0    0    0  501 -0.00000000000E+00  0.00000000000E+00  0.29113841263E+02  0.29113841699E+02  0.50400000000E-02 0.  1.
          2   -1    0    0  501    0  0.00000000000E+00 -0.00000000000E+00 -0.56242726056E+02  0.56242726114E+02  0.25500000000E-02 0. -1.
         24    2    1    2    0    0  0.44408920985E-15 -0.14210854715E-13 -0.27128884794E+02  0.85356567813E+02  0.80930632511E+02 0.  0.
         66    2    3    3    0    0  0.38997122902E+01 -0.39140987955E+02 -0.23478472731E+02  0.45852626664E+02  0.19999990380E+01 0.  0.
        -13    1    3    3    0    0 -0.38997122902E+01  0.39140987955E+02 -0.36504120629E+01  0.39503941149E+02  0.10566000000E+00 0.  1.
         13    1    4    4    0    0  0.18053472808E+01 -0.19039557829E+02 -0.11227495261E+02  0.22177282408E+02  0.10566000000E+00 0. -1.
        -13    1    4    4    0    0  0.12273428473E+01 -0.98670685041E+01 -0.52425236221E+01  0.11241024388E+02  0.10566000000E+00 0.  1.
        -14    1    4    4    0    0  0.86702216212E+00 -0.10234361622E+02 -0.70084538481E+01  0.12434319868E+02  0.00000000000E+00 0.  1.
<mgrwt>
<rscale>  0 0.80930633E+02</rscale>
<asrwt>0</asrwt>
<pdfrwt beam="1">  1        2 0.86527271E-02 0.80930633E+02</pdfrwt>
<pdfrwt beam="2">  1       -1 0.44790526E-02 0.80930633E+02</pdfrwt>
<totfact> 0.14861287E+05</totfact>
</mgrwt>
</event>
<event>
 8    1  0.1627221E-013  0.7874580E+02  0.7818608E-02  0.1332649E+00
          2   -1    0    0  501    0  0.00000000000E+00  0.00000000000E+00  0.16634686042E+04  0.16634686042E+04  0.25500000000E-02 0. -1.
         -1   -1    0    0    0  501 -0.00000000000E+00 -0.00000000000E+00 -0.93191653784E+00  0.93193016643E+00  0.50400000000E-02 0.  1.
         24    2    1    2    0    0  0.00000000000E+00 -0.55511151231E-16  0.16625366877E+04  0.16644005344E+04  0.78745799781E+02 0.  0.
         66    2    3    3    0    0 -0.13022348930E+02  0.37652293060E+00  0.16165567412E+04  0.16166104729E+04  0.19999994091E+01 0.  0.
        -13    1    3    3    0    0  0.13022348930E+02 -0.37652293060E+00  0.45979946426E+02  0.47790061504E+02  0.10566000000E+00 0.  1.
         13    1    4    4    0    0 -0.51233083602E+01  0.22600154186E+00  0.72356070698E+03  0.72357888804E+03  0.10566000000E+00 0. -1.
        -13    1    4    4    0    0 -0.61857753183E+01  0.34804164999E+00  0.65539735543E+03  0.65542664701E+03  0.10566000000E+00 0.  1.
        -14    1    4    4    0    0 -0.17132652518E+01 -0.19752026125E+00  0.23759867882E+03  0.23760493780E+03  0.00000000000E+00 0.  1.
<mgrwt>
<rscale>  0 0.78745800E+02</rscale>
<asrwt>0</asrwt>
<pdfrwt beam="1">  1        2 0.25591509E+00 0.78745800E+02</pdfrwt>
<pdfrwt beam="2">  1       -1 0.14337459E-03 0.78745800E+02</pdfrwt>
<totfact> 0.33048864E+05</totfact>
</mgrwt>
</event>
<event>
 8    1  0.1627221E-013  0.8006366E+02  0.7818608E-02  0.1328871E+00
         -1   -1    0    0    0  501 -0.00000000000E+00  0.00000000000E+00  0.34491603106E+02  0.34491603474E+02  0.50400000000E-02 0.  1.
          2   -1    0    0  501    0  0.00000000000E+00 -0.00000000000E+00 -0.46461956838E+02  0.46461956908E+02  0.25500000000E-02 0. -1.
         24    2    1    2    0    0  0.22204460493E-15  0.35527136788E-14 -0.11970353733E+02  0.80953560382E+02  0.80063659485E+02 0.  0.
         66    2    3    3    0    0 -0.17209652012E+01 -0.25236908630E+02 -0.37328230740E+02  0.45136017631E+02  0.19999997341E+01 0.  0.
        -13    1    3    3    0    0  0.17209652012E+01  0.25236908630E+02  0.25357877007E+02  0.35817542752E+02  0.10566000000E+00 0.  1.
         13    1    4    4    0    0  0.17781680081E+00 -0.84941118258E+01 -0.11682809893E+02  0.14445787122E+02  0.10566000000E+00 0. -1.
        -13    1    4    4    0    0 -0.30978430603E+00 -0.33652805400E+01 -0.54669687897E+01  0.64280627885E+01  0.10566000000E+00 0.  1.
         14    1    4    4    0    0 -0.15889976959E+01 -0.13377516264E+02 -0.20178452057E+02  0.24262167720E+02  0.00000000000E+00 0. -1.
<mgrwt>
<rscale>  0 0.80063659E+02</rscale>
<asrwt>0</asrwt>
<pdfrwt beam="1">  1        2 0.71479934E-02 0.80063659E+02</pdfrwt>
<pdfrwt beam="2">  1       -1 0.53064005E-02 0.80063659E+02</pdfrwt>
<totfact> 0.14676576E+05</totfact>
</mgrwt>
</event>
<event>
 8    1  0.1627221E-013  0.8003149E+02  0.7818608E-02  0.1328962E+00
         -1   -1    0    0    0  501 -0.00000000000E+00  0.00000000000E+00  0.30256722813E+01  0.30256764789E+01  0.50400000000E-02 0.  1.
          2   -1    0    0  501    0  0.00000000000E+00 -0.00000000000E+00 -0.52922408442E+03  0.52922408443E+03  0.25500000000E-02 0. -1.
         24    2    1    2    0    0  0.00000000000E+00 -0.35527136788E-14 -0.52619841214E+03  0.53224976091E+03  0.80031487842E+02 0.  0.
         66    2    3    3    0    0 -0.15220896241E+02  0.26603087653E+02 -0.43409881705E+03  0.43518407936E+03  0.20000013615E+01 0.  0.
        -13    1    3    3    0    0  0.15220896241E+02 -0.26603087653E+02 -0.92099595084E+02  0.97065681545E+02  0.10566000000E+00 0.  1.
         13    1    4    4    0    0 -0.67066235686E+01  0.10475557276E+02 -0.17428688839E+03  0.17473021126E+03  0.10566000000E+00 0. -1.
        -13    1    4    4    0    0 -0.79733219039E+01  0.15271103771E+02 -0.24863711439E+03  0.24923323673E+03  0.10566000000E+00 0.  1.
        -14    1    4    4    0    0 -0.54095076830E+00  0.85642660546E+00 -0.11174814273E+02  0.11220631368E+02  0.00000000000E+00 0.  1.
<mgrwt>
<rscale>  0 0.80031488E+02</rscale>
<asrwt>0</asrwt>
<pdfrwt beam="1">  1        2 0.81419016E-01 0.80031488E+02</pdfrwt>
<pdfrwt beam="2">  1       -1 0.46548879E-03 0.80031488E+02</pdfrwt>
<totfact> 0.30966261E+05</totfact>
</mgrwt>
</event>
<event>
 8    1  0.1627221E-013  0.8017958E+02  0.7818608E-02  0.1328543E+00
         -1   -1    0    0    0  501 -0.00000000000E+00  0.00000000000E+00  0.60987131693E+01  0.60987152518E+01  0.50400000000E-02 0.  1.
          2   -1    0    0  501    0  0.00000000000E+00 -0.00000000000E+00 -0.26352954991E+03  0.26352954992E+03  0.25500000000E-02 0. -1.
         24    2    1    2    0    0  0.88817841970E-15  0.00000000000E+00 -0.25743083674E+03  0.26962826518E+03  0.80179583909E+02 0.  0.
         66    2    3    3    0    0  0.74944090044E+01 -0.33073770590E+02 -0.57052703872E+02  0.66400688888E+02  0.19999995599E+01 0.  0.
        -13    1    3    3    0    0 -0.74944090044E+01  0.33073770590E+02 -0.20037813287E+03  0.20322757629E+03  0.10566000000E+00 0.  1.
         13    1    4    4    0    0  0.26099219818E+01 -0.10678256609E+02 -0.18307828055E+02  0.21354732241E+02  0.10566000000E+00 0. -1.
        -13    1    4    4    0    0  0.35011903054E+01 -0.18055380430E+02 -0.30098173362E+02  0.35272741597E+02  0.10566000000E+00 0.  1.
         14    1    4    4    0    0  0.13832967172E+01 -0.43401335512E+01 -0.86467024552E+01  0.97732150493E+01  0.00000000000E+00 0. -1.
<mgrwt>
<rscale>  0 0.80179584E+02</rscale>
<asrwt>0</asrwt>
<pdfrwt beam="1">  1        2 0.40542999E-01 0.80179584E+02</pdfrwt>
<pdfrwt beam="2">  1       -1 0.93826393E-03 0.80179584E+02</pdfrwt>
<totfact> 0.24182622E+05</totfact>
</mgrwt>
</event>
<event>
 8    1  0.1627221E-013  0.7633906E+02  0.7818608E-02  0.1339774E+00
          2   -1    0    0  501    0  0.00000000000E+00  0.00000000000E+00  0.40277620010E+03  0.40277620010E+03  0.25500000000E-02 0. -1.
         -1   -1    0    0    0  501 -0.00000000000E+00 -0.00000000000E+00 -0.36171756131E+01  0.36171791243E+01  0.50400000000E-02 0.  1.
         24    2    1    2    0    0  0.00000000000E+00  0.00000000000E+00  0.39915902448E+03  0.40639337923E+03  0.76339058512E+02 0.  0.
         66    2    3    3    0    0  0.23595833751E+02  0.18104351972E+02  0.32685572868E+03  0.32821212394E+03  0.19999995623E+01 0.  0.
        -13    1    3    3    0    0 -0.23595833751E+02 -0.18104351972E+02  0.72303295799E+02  0.78181255287E+02  0.10566000000E+00 0.  1.
         13    1    4    4    0    0  0.10251011293E+02  0.70808046049E+01  0.13956284078E+03  0.14011787436E+03  0.10566000000E+00 0. -1.
        -13    1    4    4    0    0  0.37166409412E+01  0.34509035592E+01  0.50633660479E+02  0.50887138776E+02  0.10566000000E+00 0.  1.
        -14    1    4    4    0    0  0.96281815169E+01  0.75726438077E+01  0.13665922743E+03  0.13720711080E+03  0.00000000000E+00 0.  1.
<mgrwt>
<rscale>  0 0.76339059E+02</rscale>
<asrwt>0</asrwt>
<pdfrwt beam="1">  1        2 0.61965572E-01 0.76339059E+02</pdfrwt>
<pdfrwt beam="2">  1       -1 0.55648880E-03 0.76339059E+02</pdfrwt>
<totfact> 0.31999018E+05</totfact>
</mgrwt>
</event>
<event>
 8    1  0.1627221E-013  0.7993464E+02  0.7818608E-02  0.1329237E+00
         -1   -1    0    0    0  501 -0.00000000000E+00  0.00000000000E+00  0.34870107210E+01  0.34870143633E+01  0.50400000000E-02 0.  1.
          2   -1    0    0  501    0  0.00000000000E+00 -0.00000000000E+00 -0.45809599673E+03  0.45809599674E+03  0.25500000000E-02 0. -1.
         24    2    1    2    0    0  0.00000000000E+00  0.00000000000E+00 -0.45460898601E+03  0.46158301110E+03  0.79934635650E+02 0.  0.
         66    2    3    3    0    0 -0.38025751096E+02  0.10262520848E+02 -0.26579556764E+03  0.26870534210E+03  0.20000032780E+01 0.  0.
        -13    1    3    3    0    0  0.38025751096E+02 -0.10262520848E+02 -0.18881341837E+03  0.19287766901E+03  0.10566000000E+00 0.  1.
         13    1    4    4    0    0 -0.69969652811E+01  0.21035900868E+01 -0.54278876958E+02  0.54768515246E+02  0.10566000000E+00 0.  1.
        -13    1    4    4    0    0 -0.15523769713E+02  0.38980301372E+01 -0.10681839350E+03  0.10801093657E+03  0.10566000000E+00 0. -1.
        -14    1    4    4    0    0 -0.15505016101E+02  0.42609006240E+01 -0.10469829718E+03  0.10592589027E+03  0.00000000000E+00 0.  1.
<mgrwt>
<rscale>  0 0.79934636E+02</rscale>
<asrwt>0</asrwt>
<pdfrwt beam="1">  1        2 0.70476260E-01 0.79934636E+02</pdfrwt>
<pdfrwt beam="2">  1       -1 0.53646383E-03 0.79934636E+02</pdfrwt>
<totfact> 0.29657573E+05</totfact>
</mgrwt>
</event>
<event>
 8    1  0.1627221E-013  0.8063012E+02  0.7818608E-02  0.1327273E+00
         -1   -1    0    0    0  501 -0.00000000000E+00  0.00000000000E+00  0.48681319849E+01  0.48681345938E+01  0.50400000000E-02 0.  1.
          2   -1    0    0  501    0  0.00000000000E+00 -0.00000000000E+00 -0.33386596467E+03  0.33386596468E+03  0.25500000000E-02 0. -1.
         24    2    1    2    0    0  0.00000000000E+00  0.17763568394E-14 -0.32899783269E+03  0.33873409928E+03  0.80630119057E+02 0.  0.
         66    2    3    3    0    0  0.37546733019E+02 -0.12288013526E+02 -0.13137495677E+03  0.13720106306E+03  0.20000003532E+01 0.  0.
        -13    1    3    3    0    0 -0.37546733019E+02  0.12288013526E+02 -0.19762287592E+03  0.20153303622E+03  0.10566000000E+00 0.  1.
         13    1    4    4    0    0  0.14806617811E+02 -0.45683128540E+01 -0.51055189682E+02  0.53354933894E+02  0.10566000000E+00 0. -1.
        -13    1    4    4    0    0  0.59251997231E+01 -0.13495650442E+01 -0.20706180924E+02  0.21579768536E+02  0.10566000000E+00 0.  1.
        -14    1    4    4    0    0  0.16814915485E+02 -0.63701356277E+01 -0.59613586160E+02  0.62266360626E+02  0.00000000000E+00 0.  1.
<mgrwt>
<rscale>  0 0.80630119E+02</rscale>
<asrwt>0</asrwt>
<pdfrwt beam="1">  1        2 0.51363977E-01 0.80630119E+02</pdfrwt>
<pdfrwt beam="2">  1       -1 0.74894385E-03 0.80630119E+02</pdfrwt>
<totfact> 0.25958902E+05</totfact>
</mgrwt>
</event>
<event>
 8    1  0.1627221E-013  0.7996806E+02  0.7818608E-02  0.1329142E+00
         -1   -1    0    0    0  501 -0.00000000000E+00  0.00000000000E+00  0.70670066396E+02  0.70670066576E+02  0.50400000000E-02 0.  1.
          2   -1    0    0  501    0  0.00000000000E+00 -0.00000000000E+00 -0.22622345007E+02  0.22622345151E+02  0.25500000000E-02 0. -1.
         24    2    1    2    0    0  0.44408920985E-15  0.00000000000E+00  0.48047721389E+02  0.93292411726E+02  0.79968059593E+02 0.  0.
         66    2    3    3    0    0 -0.35437551119E+01  0.36192950230E+02  0.47197359613E+01  0.36725519184E+02  0.20000012751E+01 0.  0.
        -13    1    3    3    0    0  0.35437551119E+01 -0.36192950230E+02  0.43327985428E+02  0.56566892543E+02  0.10566000000E+00 0.  1.
         13    1    4    4    0    0 -0.13435171633E+01  0.74261649262E+01  0.14328517487E+01  0.76822647734E+01  0.10566000000E+00 0. -1.
        -13    1    4    4    0    0 -0.14121301414E+00  0.33418499214E+01  0.27217958062E+00  0.33575508592E+01  0.10566000000E+00 0.  1.
         14    1    4    4    0    0 -0.20590249344E+01  0.25424935383E+02  0.30147046320E+01  0.25685703551E+02  0.00000000000E+00 0. -1.
<mgrwt>
<rscale>  0 0.79968060E+02</rscale>
<asrwt>0</asrwt>
<pdfrwt beam="1">  1        2 0.34803609E-02 0.79968060E+02</pdfrwt>
<pdfrwt beam="2">  1       -1 0.10872318E-01 0.79968060E+02</pdfrwt>
<totfact> 0.12740574E+05</totfact>
</mgrwt>
</event>
<event>
 8    1  0.1627221E-013  0.8081534E+02  0.7818608E-02  0.1326753E+00
          2   -1    0    0  501    0  0.00000000000E+00  0.00000000000E+00  0.85445465041E+02  0.85445465079E+02  0.25500000000E-02 0. -1.
         -1   -1    0    0    0  501 -0.00000000000E+00 -0.00000000000E+00 -0.19109025380E+02  0.19109026044E+02  0.50400000000E-02 0.  1.
         24    2    1    2    0    0 -0.35527136788E-14  0.35527136788E-14  0.66336439662E+02  0.10455449112E+03  0.80815335099E+02 0.  0.
         66    2    3    3    0    0  0.29257581098E+02  0.19327630625E+02  0.72744162913E+01  0.35867540937E+02  0.20000008036E+01 0.  0.
        -13    1    3    3    0    0 -0.29257581098E+02 -0.19327630625E+02  0.59062023370E+02  0.68686950187E+02  0.10566000000E+00 0.  1.
         13    1    4    4    0    0  0.12658057304E+02  0.92143430269E+01  0.31083338792E+01  0.15962563568E+02  0.10566000000E+00 0. -1.
        -13    1    4    4    0    0  0.12689106775E+01  0.98151465726E+00  0.15231563920E+00  0.16148899094E+01  0.10566000000E+00 0.  1.
         14    1    4    4    0    0  0.15330613116E+02  0.91317729413E+01  0.40137667730E+01  0.18290087460E+02  0.00000000000E+00 0. -1.
<mgrwt>
<rscale>  0 0.80815335E+02</rscale>
<asrwt>0</asrwt>
<pdfrwt beam="1">  1        2 0.13145456E-01 0.80815335E+02</pdfrwt>
<pdfrwt beam="2">  1       -1 0.29398501E-02 0.80815335E+02</pdfrwt>
<totfact> 0.16526834E+05</totfact>
</mgrwt>
</event>
<event>
 8    1  0.1627221E-013  0.8004749E+02  0.7818608E-02  0.1328917E+00
          2   -1    0    0  501    0  0.00000000000E+00  0.00000000000E+00  0.13095893248E+02  0.13095893496E+02  0.25500000000E-02 0. -1.
         -1   -1    0    0    0  501 -0.00000000000E+00 -0.00000000000E+00 -0.12232079044E+03  0.12232079054E+03  0.50400000000E-02 0.  1.
         24    2    1    2    0    0  0.00000000000E+00 -0.44408920985E-15 -0.10922489719E+03  0.13541668404E+03  0.80047486842E+02 0.  0.
         66    2    3    3    0    0  0.35625582314E+02 -0.30351045434E+01 -0.24313421856E+02  0.43284367328E+02  0.19999994615E+01 0.  0.
        -13    1    3    3    0    0 -0.35625582314E+02  0.30351045434E+01 -0.84911475334E+02  0.92132316710E+02  0.10566000000E+00 0.  1.
         13    1    4    4    0    0  0.23341655319E+02 -0.23565399138E+01 -0.16657591448E+02  0.28772776548E+02  0.10566000000E+00 0. -1.
        -13    1    4    4    0    0  0.93860343167E+01 -0.28302029026E+00 -0.55596825975E+01  0.10913247697E+02  0.10566000000E+00 0.  1.
         14    1    4    4    0    0  0.28978926784E+01 -0.39554433933E+00 -0.20961478104E+01  0.35983430830E+01  0.00000000000E+00 0. -1.
<mgrwt>
<rscale>  0 0.80047487E+02</rscale>
<asrwt>0</asrwt>
<pdfrwt beam="1">  1        2 0.20147529E-02 0.80047487E+02</pdfrwt>
<pdfrwt beam="2">  1       -1 0.18818582E-01 0.80047487E+02</pdfrwt>
<totfact> 0.11317536E+05</totfact>
</mgrwt>
</event>
<event>
 8    1  0.1627221E-013  0.7878228E+02  0.7818608E-02  0.1332543E+00
         -1   -1    0    0    0  501 -0.00000000000E+00  0.00000000000E+00  0.22776907524E+01  0.22776963286E+01  0.50400000000E-02 0.  1.
          2   -1    0    0  501    0  0.00000000000E+00 -0.00000000000E+00 -0.68124269916E+03  0.68124269917E+03  0.25500000000E-02 0. -1.
         24    2    1    2    0    0 -0.17763568394E-14  0.35527136788E-14 -0.67896500841E+03  0.68352039549E+03  0.78782284896E+02 0.  0.
         66    2    3    3    0    0  0.14841082708E+02 -0.14848396908E+02 -0.62861821559E+03  0.62897185438E+03  0.20000006525E+01 0.  0.
        -13    1    3    3    0    0 -0.14841082708E+02  0.14848396908E+02 -0.50346792819E+02  0.54548541116E+02  0.10566000000E+00 0.  1.
         13    1    4    4    0    0  0.11194628623E+02 -0.10952382194E+02 -0.46760505150E+03  0.46786725654E+03  0.10566000000E+00 0. -1.
        -13    1    4    4    0    0  0.33149179810E+01 -0.33888736370E+01 -0.14984902332E+03  0.14992402776E+03  0.10566000000E+00 0.  1.
        -14    1    4    4    0    0  0.33153610373E+00 -0.50714107662E+00 -0.11164140770E+02  0.11180570083E+02  0.00000000000E+00 0.  1.
<mgrwt>
<rscale>  0 0.78782285E+02</rscale>
<asrwt>0</asrwt>
<pdfrwt beam="1">  1        2 0.10480641E+00 0.78782285E+02</pdfrwt>
<pdfrwt beam="2">  1       -1 0.35041493E-03 0.78782285E+02</pdfrwt>
<totfact> 0.34591266E+05</totfact>
</mgrwt>
</event>
<event>
 8    1  0.1627221E-013  0.7735471E+02  0.7818608E-02  0.1336731E+00
          2   -1    0    0  501    0  0.00000000000E+00  0.00000000000E+00  0.36848881718E+03  0.36848881719E+03  0.25500000000E-02 0. -1.
         -1   -1    0    0    0  501 -0.00000000000E+00 -0.00000000000E+00 -0.40596539407E+01  0.40596570692E+01  0.50400000000E-02 0.  1.
         24    2    1    2    0    0 -0.41633363423E-16  0.00000000000E+00  0.36442916324E+03  0.37254847426E+03  0.77354706726E+02 0.  0.
         66    2    3    3    0    0  0.10848763241E+00  0.17612239372E+02  0.34803599605E+03  0.34848709774E+03  0.20000005394E+01 0.  0.
        -13    1    3    3    0    0 -0.10848763241E+00 -0.17612239372E+02  0.16393167191E+02  0.24061376516E+02  0.10566000000E+00 0.  1.
         13    1    4    4    0    0  0.28387034345E+00  0.10876825791E+02  0.20732992933E+03  0.20761526119E+03  0.10566000000E+00 0.  1.
        -13    1    4    4    0    0  0.45801293818E+00  0.20012691679E+01  0.42442786389E+02  0.42492542106E+02  0.10566000000E+00 0. -1.
        -14    1    4    4    0    0 -0.63339564922E+00  0.47341444129E+01  0.98263280336E+02  0.98379294447E+02  0.00000000000E+00 0.  1.
<mgrwt>
<rscale>  0 0.77354707E+02</rscale>
<asrwt>0</asrwt>
<pdfrwt beam="1">  1        2 0.56690579E-01 0.77354707E+02</pdfrwt>
<pdfrwt beam="2">  1       -1 0.62456248E-03 0.77354707E+02</pdfrwt>
<totfact> 0.29965512E+05</totfact>
</mgrwt>
</event>
<event>
 8    1  0.1627221E-013  0.7947018E+02  0.7818608E-02  0.1330562E+00
          2   -1    0    0  501    0  0.00000000000E+00  0.00000000000E+00  0.17889644931E+02  0.17889645113E+02  0.25500000000E-02 0. -1.
         -1   -1    0    0    0  501 -0.00000000000E+00 -0.00000000000E+00 -0.88256501931E+02  0.88256502075E+02  0.50400000000E-02 0.  1.
         24    2    1    2    0    0  0.00000000000E+00  0.00000000000E+00 -0.70366857000E+02  0.10614614719E+03  0.79470183079E+02 0.  0.
         66    2    3    3    0    0 -0.33862158664E+02  0.96161777600E+01 -0.10658477071E+02  0.36833677444E+02  0.19999991303E+01 0.  0.
        -13    1    3    3    0    0  0.33862158664E+02 -0.96161777600E+01 -0.59708379929E+02  0.69312469743E+02  0.10566000000E+00 0.  1.
         13    1    4    4    0    0 -0.52605694133E+01  0.15870472980E+01 -0.12288010724E+01  0.56314674633E+01  0.10566000000E+00 0. -1.
        -13    1    4    4    0    0 -0.14389823176E+01  0.64130927422E+00 -0.72687385231E+00  0.17382339682E+01  0.10566000000E+00 0.  1.
         14    1    4    4    0    0 -0.27162606933E+02  0.73878211878E+01 -0.87028021462E+01  0.29463976013E+02  0.00000000000E+00 0. -1.
<mgrwt>
<rscale>  0 0.79470183E+02</rscale>
<asrwt>0</asrwt>
<pdfrwt beam="1">  1        2 0.27522531E-02 0.79470183E+02</pdfrwt>
<pdfrwt beam="2">  1       -1 0.13577923E-01 0.79470183E+02</pdfrwt>
<totfact> 0.12370885E+05</totfact>
</mgrwt>
</event>
<event>
 8    1  0.1627221E-013  0.8034783E+02  0.7818608E-02  0.1328067E+00
          2   -1    0    0  501    0  0.00000000000E+00  0.00000000000E+00  0.16844964734E+03  0.16844964736E+03  0.25500000000E-02 0. -1.
         -1   -1    0    0    0  501 -0.00000000000E+00 -0.00000000000E+00 -0.95811622897E+01  0.95811636153E+01  0.50400000000E-02 0.  1.
         24    2    1    2    0    0  0.00000000000E+00  0.35527136788E-14  0.15886848505E+03  0.17803081097E+03  0.80347832043E+02 0.  0.
         66    2    3    3    0    0 -0.34057367471E+02  0.14017396059E+02  0.11490395530E+03  0.12067854239E+03  0.19999947198E+01 0.  0.
        -13    1    3    3    0    0  0.34057367471E+02 -0.14017396059E+02  0.43964529749E+02  0.57352268582E+02  0.10566000000E+00 0.  1.
         13    1    4    4    0    0 -0.60173221756E+01  0.27988858291E+01  0.21849373359E+02  0.22835240491E+02  0.10566000000E+00 0. -1.
        -13    1    4    4    0    0 -0.87804832360E+01  0.40653248261E+01  0.31171928092E+02  0.32639301721E+02  0.10566000000E+00 0.  1.
         14    1    4    4    0    0 -0.19259562060E+02  0.71531854037E+01  0.61882653849E+02  0.65204000180E+02  0.00000000000E+00 0. -1.
<mgrwt>
<rscale>  0 0.80347832E+02</rscale>
<asrwt>0</asrwt>
<pdfrwt beam="1">  1        2 0.25915328E-01 0.80347832E+02</pdfrwt>
<pdfrwt beam="2">  1       -1 0.14740252E-02 0.80347832E+02</pdfrwt>
<totfact> 0.20568082E+05</totfact>
</mgrwt>
</event>
<event>
 8    1  0.1627221E-013  0.8097708E+02  0.7818608E-02  0.1326301E+00
          2   -1    0    0  501    0  0.00000000000E+00  0.00000000000E+00  0.39063280307E+02  0.39063280390E+02  0.25500000000E-02 0. -1.
         -1   -1    0    0    0  501 -0.00000000000E+00 -0.00000000000E+00 -0.41965800277E+02  0.41965800580E+02  0.50400000000E-02 0.  1.
         24    2    1    2    0    0  0.00000000000E+00  0.00000000000E+00 -0.29025199705E+01  0.81029080969E+02  0.80977079106E+02 0.  0.
         66    2    3    3    0    0  0.21827358984E+02 -0.24219478302E+02  0.22527806666E+02  0.39680206664E+02  0.19999995711E+01 0.  0.
        -13    1    3    3    0    0 -0.21827358984E+02  0.24219478302E+02 -0.25430326637E+02  0.41348874305E+02  0.10566000000E+00 0.  1.
         13    1    4    4    0    0  0.18911305316E+02 -0.20269553775E+02  0.18563386961E+02  0.33363194968E+02  0.10566000000E+00 0. -1.
        -13    1    4    4    0    0  0.18611958102E+01 -0.23763696053E+01  0.23214459826E+01  0.38093907427E+01  0.10566000000E+00 0.  1.
         14    1    4    4    0    0  0.10548578579E+01 -0.15735549213E+01  0.16429737225E+01  0.25076209529E+01  0.00000000000E+00 0. -1.
<mgrwt>
<rscale>  0 0.80977079E+02</rscale>
<asrwt>0</asrwt>
<pdfrwt beam="1">  1        2 0.60097355E-02 0.80977079E+02</pdfrwt>
<pdfrwt beam="2">  1       -1 0.64562770E-02 0.80977079E+02</pdfrwt>
<totfact> 0.13717005E+05</totfact>
</mgrwt>
</event>
<event>
 8    1  0.1627221E-013  0.8001734E+02  0.7818608E-02  0.1329002E+00
          2   -1    0    0  501    0  0.00000000000E+00  0.00000000000E+00  0.27572362248E+03  0.27572362249E+03  0.25500000000E-02 0. -1.
         -1   -1    0    0    0  501 -0.00000000000E+00 -0.00000000000E+00 -0.58054270958E+01  0.58054292836E+01  0.50400000000E-02 0.  1.
         24    2    1    2    0    0  0.00000000000E+00  0.00000000000E+00  0.26991819539E+03  0.28152905178E+03  0.80017340584E+02 0.  0.
         66    2    3    3    0    0  0.24013711771E+02  0.28831864804E+02  0.18363641793E+03  0.18744137423E+03  0.20000005635E+01 0.  0.
        -13    1    3    3    0    0 -0.24013711771E+02 -0.28831864804E+02  0.86281777458E+02  0.94087677548E+02  0.10566000000E+00 0.  1.
         13    1    4    4    0    0  0.10499034288E+02  0.13097803371E+02  0.81617662344E+02  0.83326083219E+02  0.10566000000E+00 0. -1.
        -13    1    4    4    0    0  0.10827608867E+02  0.12769386669E+02  0.79496456493E+02  0.81240335478E+02  0.10566000000E+00 0.  1.
         14    1    4    4    0    0  0.26870686149E+01  0.29646747648E+01  0.22522299091E+02  0.22874955531E+02  0.00000000000E+00 0. -1.
<mgrwt>
<rscale>  0 0.80017341E+02</rscale>
<asrwt>0</asrwt>
<pdfrwt beam="1">  1        2 0.42419015E-01 0.80017341E+02</pdfrwt>
<pdfrwt beam="2">  1       -1 0.89314289E-03 0.80017341E+02</pdfrwt>
<totfact> 0.24712880E+05</totfact>
</mgrwt>
</event>
<event>
 8    1  0.1627221E-013  0.7865161E+02  0.7818608E-02  0.1332922E+00
         -1   -1    0    0    0  501 -0.00000000000E+00  0.00000000000E+00  0.12059935310E+02  0.12059936363E+02  0.50400000000E-02 0.  1.
          2   -1    0    0  501    0  0.00000000000E+00 -0.00000000000E+00 -0.12823607549E+03  0.12823607551E+03  0.25500000000E-02 0. -1.
         24    2    1    2    0    0  0.17763568394E-14  0.00000000000E+00 -0.11617614018E+03  0.14029601188E+03  0.78651607750E+02 0.  0.
         66    2    3    3    0    0  0.98128642067E+01 -0.34820792253E+02 -0.85512803489E+02  0.92872059510E+02  0.20000000479E+01 0.  0.
        -13    1    3    3    0    0 -0.98128642067E+01  0.34820792253E+02 -0.30663336691E+02  0.47423952367E+02  0.10566000000E+00 0.  1.
         13    1    4    4    0    0  0.30465174521E+01 -0.12366733547E+02 -0.28388312126E+02  0.31114703865E+02  0.10566000000E+00 0.  1.
        -13    1    4    4    0    0  0.35342147004E+01 -0.12857877671E+02 -0.33229829706E+02  0.35805703988E+02  0.10566000000E+00 0. -1.
         14    1    4    4    0    0  0.32321320541E+01 -0.95961810341E+01 -0.23894661657E+02  0.25951651657E+02  0.00000000000E+00 0. -1.
<mgrwt>
<rscale>  0 0.78651608E+02</rscale>
<asrwt>0</asrwt>
<pdfrwt beam="1">  1        2 0.19728626E-01 0.78651608E+02</pdfrwt>
<pdfrwt beam="2">  1       -1 0.18553748E-02 0.78651608E+02</pdfrwt>
<totfact> 0.19948168E+05</totfact>
</mgrwt>
</event>
<event>
 8    1  0.1627221E-013  0.7850140E+02  0.7818608E-02  0.1333359E+00
         -1   -1    0    0    0  501 -0.00000000000E+00  0.00000000000E+00  0.14896494173E+03  0.14896494182E+03  0.50400000000E-02 0.  1.
          2   -1    0    0  501    0  0.00000000000E+00 -0.00000000000E+00 -0.10342148743E+02  0.10342149058E+02  0.25500000000E-02 0. -1.
         24    2    1    2    0    0  0.00000000000E+00  0.00000000000E+00  0.13862279299E+03  0.15930709088E+03  0.78501404236E+02 0.  0.
         66    2    3    3    0    0  0.42558471570E+01 -0.24499167399E+02  0.77931811119E+01  0.26135322297E+02  0.19999903668E+01 0.  0.
        -13    1    3    3    0    0 -0.42558471570E+01  0.24499167399E+02  0.13082961188E+03  0.13317176858E+03  0.10566000000E+00 0.  1.
         13    1    4    4    0    0  0.17293347426E+01 -0.90263748209E+01  0.22151582497E+01  0.94543181228E+01  0.10566000000E+00 0. -1.
        -13    1    4    4    0    0 -0.13424458427E-01 -0.13591400768E+00  0.91815843607E-01  0.19556844916E+00  0.10566000000E+00 0. -1.
         14    1    4    4    0    0  0.25399368728E+01 -0.15336878570E+02  0.54862070186E+01  0.16485435725E+02  0.00000000000E+00 0. -1.
<mgrwt>
<rscale>  0 0.78501404E+02</rscale>
<asrwt>0</asrwt>
<pdfrwt beam="1">  1        2 0.15910999E-02 0.78501404E+02</pdfrwt>
<pdfrwt beam="2">  1       -1 0.22917683E-01 0.78501404E+02</pdfrwt>
<totfact> 0.11335085E+05</totfact>
</mgrwt>
</event>
<event>
 8    1  0.1627221E-013  0.8188537E+02  0.7818608E-02  0.1323785E+00
         -1   -1    0    0    0  501 -0.00000000000E+00  0.00000000000E+00  0.28672662896E+02  0.28672663339E+02  0.50400000000E-02 0.  1.
          2   -1    0    0  501    0  0.00000000000E+00 -0.00000000000E+00 -0.58463474606E+02  0.58463474662E+02  0.25500000000E-02 0. -1.
         24    2    1    2    0    0  0.00000000000E+00  0.00000000000E+00 -0.29790811710E+02  0.87136138001E+02  0.81885371608E+02 0.  0.
         66    2    3    3    0    0 -0.26942408900E+01  0.40806545712E+02 -0.13450882580E+02  0.43097092201E+02  0.20000017621E+01 0.  0.
        -13    1    3    3    0    0  0.26942408900E+01 -0.40806545712E+02 -0.16339929130E+02  0.44039045800E+02  0.10566000000E+00 0.  1.
         13    1    4    4    0    0 -0.86864418693E+00  0.12767918026E+02 -0.34596040376E+01  0.13257235669E+02  0.10566000000E+00 0. -1.
        -13    1    4    4    0    0 -0.62591191134E+00  0.14922427350E+02 -0.57176274164E+01  0.15992905648E+02  0.10566000000E+00 0.  1.
        -14    1    4    4    0    0 -0.11996847917E+01  0.13116200336E+02 -0.42736511261E+01  0.13846950885E+02  0.00000000000E+00 0.  1.
<mgrwt>
<rscale>  0 0.81885372E+02</rscale>
<asrwt>0</asrwt>
<pdfrwt beam="1">  1        2 0.89943807E-02 0.81885372E+02</pdfrwt>
<pdfrwt beam="2">  1       -1 0.44111790E-02 0.81885372E+02</pdfrwt>
<totfact> 0.14520973E+05</totfact>
</mgrwt>
</event>
<event>
 8    1  0.1627221E-013  0.7901123E+02  0.7818608E-02  0.1331881E+00
         -1   -1    0    0    0  501 -0.00000000000E+00  0.00000000000E+00  0.17001134763E+01  0.17001209468E+01  0.50400000000E-02 0.  1.
          2   -1    0    0  501    0  0.00000000000E+00 -0.00000000000E+00 -0.91799173401E+03  0.91799173401E+03  0.25500000000E-02 0. -1.
         24    2    1    2    0    0  0.35527136788E-14  0.00000000000E+00 -0.91629162053E+03  0.91969185496E+03  0.79011228444E+02 0.  0.
         66    2    3    3    0    0 -0.31545702621E+02  0.20227234049E+01 -0.73376016322E+03  0.73444346269E+03  0.20000007442E+01 0.  0.
        -13    1    3    3    0    0  0.31545702621E+02 -0.20227234049E+01 -0.18253145731E+03  0.18524839227E+03  0.10566000000E+00 0.  1.
         13    1    4    4    0    0 -0.14390587613E+02  0.13969081922E+01 -0.31869703013E+03  0.31902484001E+03  0.10566000000E+00 0. -1.
        -13    1    4    4    0    0 -0.32220229225E+01 -0.43860883864E-01 -0.83297719277E+02  0.83360089709E+02  0.10566000000E+00 0.  1.
         14    1    4    4    0    0 -0.13933092085E+02  0.66967609656E+00 -0.33176541381E+03  0.33205853297E+03  0.00000000000E+00 0. -1.
<mgrwt>
<rscale>  0 0.79011228E+02</rscale>
<asrwt>0</asrwt>
<pdfrwt beam="1">  1        2 0.14122910E+00 0.79011228E+02</pdfrwt>
<pdfrwt beam="2">  1       -1 0.26155723E-03 0.79011228E+02</pdfrwt>
<totfact> 0.36167186E+05</totfact>
</mgrwt>
</event>
<event>
 8    1  0.1627221E-013  0.7423650E+02  0.7818608E-02  0.1346252E+00
          2   -1    0    0  501    0  0.00000000000E+00  0.00000000000E+00  0.22628085725E+03  0.22628085727E+03  0.25500000000E-02 0. -1.
         -1   -1    0    0    0  501 -0.00000000000E+00 -0.00000000000E+00 -0.60887352906E+01  0.60887373766E+01  0.50400000000E-02 0.  1.
         24    2    1    2    0    0  0.00000000000E+00  0.00000000000E+00  0.22019212196E+03  0.23236959464E+03  0.74236500056E+02 0.  0.
         66    2    3    3    0    0  0.35258032527E+02 -0.57853162170E+01  0.14134540287E+03  0.14580508103E+03  0.20000000864E+01 0.  0.
        -13    1    3    3    0    0 -0.35258032527E+02  0.57853162170E+01  0.78846719086E+02  0.86564513608E+02  0.10566000000E+00 0.  1.
         13    1    4    4    0    0  0.68468241691E+01 -0.85680794766E+00  0.28802396773E+02  0.29617601945E+02  0.10566000000E+00 0. -1.
        -13    1    4    4    0    0  0.16202128688E+02 -0.21843391344E+01  0.62271846202E+02  0.64382251474E+02  0.10566000000E+00 0.  1.
        -14    1    4    4    0    0  0.12209079670E+02 -0.27441691350E+01  0.50271159899E+02  0.51805227615E+02  0.00000000000E+00 0.  1.
<mgrwt>
<rscale>  0 0.74236500E+02</rscale>
<asrwt>0</asrwt>
<pdfrwt beam="1">  1        2 0.34812442E-01 0.74236500E+02</pdfrwt>
<pdfrwt beam="2">  1       -1 0.93672860E-03 0.74236500E+02</pdfrwt>
<totfact> 0.28024966E+05</totfact>
</mgrwt>
</event>
<event>
 8    1  0.1627221E-013  0.7931337E+02  0.7818608E-02  0.1331011E+00
         -1   -1    0    0    0  501 -0.00000000000E+00  0.00000000000E+00  0.90863637056E+02  0.90863637195E+02  0.50400000000E-02 0.  1.
          2   -1    0    0  501    0  0.00000000000E+00 -0.00000000000E+00 -0.17307832902E+02  0.17307833090E+02  0.25500000000E-02 0. -1.
         24    2    1    2    0    0  0.00000000000E+00  0.00000000000E+00  0.73555804153E+02  0.10817147029E+03  0.79313369990E+02 0.  0.
         66    2    3    3    0    0 -0.95996489845E+01  0.16344734612E+02 -0.10666685403E+02  0.21842202241E+02  0.20000027690E+01 0.  0.
        -13    1    3    3    0    0  0.95996489845E+01 -0.16344734612E+02  0.84222489556E+02  0.86329268045E+02  0.10566000000E+00 0.  1.
         13    1    4    4    0    0 -0.28201248748E+01  0.49889228138E+01 -0.41876105601E+01  0.70985703765E+01  0.10566000000E+00 0. -1.
        -13    1    4    4    0    0 -0.45221834763E+01  0.81657790077E+01 -0.44907508096E+01  0.10358962162E+02  0.10566000000E+00 0.  1.
         14    1    4    4    0    0 -0.22573406334E+01  0.31900327904E+01 -0.19883240332E+01  0.43846697025E+01  0.00000000000E+00 0. -1.
<mgrwt>
<rscale>  0 0.79313370E+02</rscale>
<asrwt>0</asrwt>
<pdfrwt beam="1">  1        2 0.26627435E-02 0.79313370E+02</pdfrwt>
<pdfrwt beam="2">  1       -1 0.13979021E-01 0.79313370E+02</pdfrwt>
<totfact> 0.12357001E+05</totfact>
</mgrwt>
</event>
<event>
 8    1  0.1627221E-013  0.8104846E+02  0.7818608E-02  0.1326102E+00
         -1   -1    0    0    0  501 -0.00000000000E+00  0.00000000000E+00  0.83495961453E+02  0.83495961605E+02  0.50400000000E-02 0.  1.
          2   -1    0    0  501    0  0.00000000000E+00 -0.00000000000E+00 -0.19668172884E+02  0.19668173049E+02  0.25500000000E-02 0. -1.
         24    2    1    2    0    0  0.17763568394E-14  0.00000000000E+00  0.63827788569E+02  0.10316413465E+03  0.81048455169E+02 0.  0.
         66    2    3    3    0    0 -0.12186334680E+02 -0.30197815209E+02  0.12839724173E+01  0.32650626024E+02  0.19999995669E+01 0.  0.
        -13    1    3    3    0    0  0.12186334680E+02  0.30197815209E+02  0.62543816152E+02  0.70513508629E+02  0.10566000000E+00 0.  1.
         13    1    4    4    0    0 -0.89151529675E+01 -0.23377363065E+02  0.11828749866E+01  0.25047782608E+02  0.10566000000E+00 0. -1.
        -13    1    4    4    0    0 -0.18839401723E+01 -0.31243590596E+01 -0.80425406360E-01  0.36508194132E+01  0.10566000000E+00 0.  1.
        -14    1    4    4    0    0 -0.13872415401E+01 -0.36960930842E+01  0.18152283707E+00  0.39520240027E+01  0.00000000000E+00 0.  1.
<mgrwt>
<rscale>  0 0.81048455E+02</rscale>
<asrwt>0</asrwt>
<pdfrwt beam="1">  1        2 0.30258728E-02 0.81048455E+02</pdfrwt>
<pdfrwt beam="2">  1       -1 0.12845533E-01 0.81048455E+02</pdfrwt>
<totfact> 0.11918384E+05</totfact>
</mgrwt>
</event>
<event>
 8    1  0.1627221E-013  0.8183108E+02  0.7818608E-02  0.1323934E+00
         -1   -1    0    0    0  501 -0.00000000000E+00  0.00000000000E+00  0.17047943410E+02  0.17047944155E+02  0.50400000000E-02 0.  1.
          2   -1    0    0  501    0  0.00000000000E+00 -0.00000000000E+00 -0.98198426614E+02  0.98198426647E+02  0.25500000000E-02 0. -1.
         24    2    1    2    0    0  0.00000000000E+00  0.00000000000E+00 -0.81150483204E+02  0.11524637080E+03  0.81831076365E+02 0.  0.
         66    2    3    3    0    0  0.39865940959E+02 -0.86988778042E+01 -0.36843445904E+02  0.55012755256E+02  0.20000027904E+01 0.  0.
        -13    1    3    3    0    0 -0.39865940959E+02  0.86988778042E+01 -0.44307037299E+02  0.60233615547E+02  0.10566000000E+00 0.  1.
         13    1    4    4    0    0  0.25391951193E+02 -0.58402360099E+01 -0.24678077670E+02  0.35887020266E+02  0.10566000000E+00 0. -1.
        -13    1    4    4    0    0  0.85145987324E+01 -0.18297878347E+01 -0.70829658238E+01  0.11226133973E+02  0.10566000000E+00 0.  1.
         14    1    4    4    0    0  0.59593910331E+01 -0.10288539596E+01 -0.50824024106E+01  0.78996010164E+01  0.00000000000E+00 0. -1.
<mgrwt>
<rscale>  0 0.81831076E+02</rscale>
<asrwt>0</asrwt>
<pdfrwt beam="1">  1        2 0.15107450E-01 0.81831076E+02</pdfrwt>
<pdfrwt beam="2">  1       -1 0.26227606E-02 0.81831076E+02</pdfrwt>
<totfact> 0.16596946E+05</totfact>
</mgrwt>
</event>
<event>
 8    1  0.1627221E-013  0.8059771E+02  0.7818608E-02  0.1327364E+00
         -1   -1    0    0    0  501 -0.00000000000E+00  0.00000000000E+00  0.54073556293E+01  0.54073579781E+01  0.50400000000E-02 0.  1.
          2   -1    0    0  501    0  0.00000000000E+00 -0.00000000000E+00 -0.30033112950E+03  0.30033112951E+03  0.25500000000E-02 0. -1.
         24    2    1    2    0    0  0.35527136788E-14  0.35527136788E-14 -0.29492377387E+03  0.30573848749E+03  0.80597706778E+02 0.  0.
         66    2    3    3    0    0 -0.28973078549E+02 -0.24427651321E+02 -0.19926555610E+03  0.20284701447E+03  0.20000000769E+01 0.  0.
        -13    1    3    3    0    0  0.28973078549E+02  0.24427651321E+02 -0.95658217765E+02  0.10289147302E+03  0.10566000000E+00 0.  1.
         13    1    4    4    0    0 -0.14307822256E+02 -0.12845470289E+02 -0.97894998048E+02  0.99765533585E+02  0.10566000000E+00 0. -1.
        -13    1    4    4    0    0 -0.21100102537E+01 -0.16728768810E+01 -0.16048714964E+02  0.16273385522E+02  0.10566000000E+00 0.  1.
         14    1    4    4    0    0 -0.12555246039E+02 -0.99093041508E+01 -0.85321843092E+02  0.86808095363E+02  0.00000000000E+00 0. -1.
<mgrwt>
<rscale>  0 0.80597707E+02</rscale>
<asrwt>0</asrwt>
<pdfrwt beam="1">  1        2 0.46204776E-01 0.80597707E+02</pdfrwt>
<pdfrwt beam="2">  1       -1 0.83190129E-03 0.80597707E+02</pdfrwt>
<totfact> 0.25011587E+05</totfact>
</mgrwt>
</event>
<event>
 8    1  0.1627221E-013  0.7940333E+02  0.7818608E-02  0.1330753E+00
         -1   -1    0    0    0  501 -0.00000000000E+00  0.00000000000E+00  0.75155055344E+01  0.75155072243E+01  0.50400000000E-02 0.  1.
          2   -1    0    0  501    0  0.00000000000E+00 -0.00000000000E+00 -0.20972933061E+03  0.20972933063E+03  0.25500000000E-02 0. -1.
         24    2    1    2    0    0  0.00000000000E+00  0.17763568394E-14 -0.20221382508E+03  0.21724483785E+03  0.79403328147E+02 0.  0.
         66    2    3    3    0    0  0.48408071879E+01 -0.91545393386E+01 -0.20596154105E+03  0.20623141224E+03  0.19999999819E+01 0.  0.
        -13    1    3    3    0    0 -0.48408071879E+01  0.91545393386E+01  0.37477159666E+01  0.11013425613E+02  0.10566000000E+00 0.  1.
         13    1    4    4    0    0  0.28348375746E-01 -0.50881778829E+00 -0.13703480842E+02  0.13713360288E+02  0.10566000000E+00 0. -1.
        -13    1    4    4    0    0  0.28365482791E+01 -0.51523279214E+01 -0.10017338861E+03  0.10034595876E+03  0.10566000000E+00 0.  1.
        -14    1    4    4    0    0  0.19759105331E+01 -0.34933936289E+01 -0.92084671590E+02  0.92172093191E+02  0.00000000000E+00 0.  1.
<mgrwt>
<rscale>  0 0.79403328E+02</rscale>
<asrwt>0</asrwt>
<pdfrwt beam="1">  1        2 0.32266046E-01 0.79403328E+02</pdfrwt>
<pdfrwt beam="2">  1       -1 0.11562319E-02 0.79403328E+02</pdfrwt>
<totfact> 0.22873936E+05</totfact>
</mgrwt>
</event>
<event>
 8    1  0.1627221E-013  0.8029164E+02  0.7818608E-02  0.1328226E+00
         -1   -1    0    0    0  501 -0.00000000000E+00  0.00000000000E+00  0.78450524177E+01  0.78450540367E+01  0.50400000000E-02 0.  1.
          2   -1    0    0  501    0  0.00000000000E+00 -0.00000000000E+00 -0.20543988979E+03  0.20543988981E+03  0.25500000000E-02 0. -1.
         24    2    1    2    0    0  0.00000000000E+00 -0.35527136788E-14 -0.19759483737E+03  0.21328494384E+03  0.80291640373E+02 0.  0.
         66    2    3    3    0    0 -0.12058608271E+02  0.20238623039E+02 -0.18512623812E+03  0.18662994380E+03  0.19999965195E+01 0.  0.
        -13    1    3    3    0    0  0.12058608271E+02 -0.20238623039E+02 -0.12468599252E+02  0.26655000043E+02  0.10566000000E+00 0.  1.
         13    1    4    4    0    0 -0.90413693255E+01  0.16497311614E+02 -0.14480021798E+03  0.14601719742E+03  0.10566000000E+00 0. -1.
        -13    1    4    4    0    0 -0.87922277151E+00  0.99799265039E+00 -0.10363488150E+02  0.10449022571E+02  0.10566000000E+00 0.  1.
         14    1    4    4    0    0 -0.21380161739E+01  0.27433187745E+01 -0.29962531988E+02  0.30163723812E+02  0.00000000000E+00 0. -1.
<mgrwt>
<rscale>  0 0.80291640E+02</rscale>
<asrwt>0</asrwt>
<pdfrwt beam="1">  1        2 0.31606133E-01 0.80291640E+02</pdfrwt>
<pdfrwt beam="2">  1       -1 0.12069314E-02 0.80291640E+02</pdfrwt>
<totfact> 0.22052902E+05</totfact>
</mgrwt>
</event>
<event>
 8    1  0.1627221E-013  0.7927368E+02  0.7818608E-02  0.1331125E+00
         -1   -1    0    0    0  501 -0.00000000000E+00  0.00000000000E+00  0.17624346638E+02  0.17624347359E+02  0.50400000000E-02 0.  1.
          2   -1    0    0  501    0  0.00000000000E+00 -0.00000000000E+00 -0.89142540220E+02  0.89142540256E+02  0.25500000000E-02 0. -1.
         24    2    1    2    0    0  0.00000000000E+00  0.00000000000E+00 -0.71518193582E+02  0.10676688761E+03  0.79273679603E+02 0.  0.
         66    2    3    3    0    0  0.57383738955E+01 -0.39120651432E+02 -0.39002854185E+02  0.55574966733E+02  0.19999973615E+01 0.  0.
        -13    1    3    3    0    0 -0.57383738955E+01  0.39120651432E+02 -0.32515339397E+02  0.51191920881E+02  0.10566000000E+00 0.  1.
         13    1    4    4    0    0  0.44672248819E+01 -0.27002580983E+02 -0.26288835253E+02  0.37950092238E+02  0.10566000000E+00 0. -1.
        -13    1    4    4    0    0 -0.50767117033E-01 -0.59801588833E+00 -0.58439308900E+00  0.84432198890E+00  0.10566000000E+00 0.  1.
         14    1    4    4    0    0  0.13219161307E+01 -0.11520054560E+02 -0.12129625843E+02  0.16780552506E+02  0.00000000000E+00 0. -1.
<mgrwt>
<rscale>  0 0.79273680E+02</rscale>
<asrwt>0</asrwt>
<pdfrwt beam="1">  1        2 0.13714237E-01 0.79273680E+02</pdfrwt>
<pdfrwt beam="2">  1       -1 0.27114381E-02 0.79273680E+02</pdfrwt>
<totfact> 0.17602428E+05</totfact>
</mgrwt>
</event>
<event>
 8    1  0.1627221E-013  0.8301131E+02  0.7818608E-02  0.1320717E+00
          2   -1    0    0  501    0  0.00000000000E+00  0.00000000000E+00  0.51643813054E+03  0.51643813055E+03  0.25500000000E-02 0. -1.
         -1   -1    0    0    0  501 -0.00000000000E+00 -0.00000000000E+00 -0.33357695282E+01  0.33357733357E+01  0.50400000000E-02 0.  1.
         24    2    1    2    0    0 -0.35527136788E-14 -0.35527136788E-14  0.51310236101E+03  0.51977390388E+03  0.83011314174E+02 0.  0.
         66    2    3    3    0    0 -0.27799134783E+02  0.22612886797E+02  0.38753021955E+03  0.38918865043E+03  0.20000036487E+01 0.  0.
        -13    1    3    3    0    0  0.27799134783E+02 -0.22612886797E+02  0.12557214146E+03  0.13058525345E+03  0.10566000000E+00 0.  1.
         13    1    4    4    0    0 -0.18073595263E+02  0.15648708410E+02  0.25343910730E+03  0.25456419464E+03  0.10566000000E+00 0. -1.
        -13    1    4    4    0    0 -0.37752325651E+01  0.26687914398E+01  0.49408875640E+02  0.49624822264E+02  0.10566000000E+00 0.  1.
         14    1    4    4    0    0 -0.59503069543E+01  0.42953869469E+01  0.84682236608E+02  0.84999633521E+02  0.00000000000E+00 0. -1.
<mgrwt>
<rscale>  0 0.83011314E+02</rscale>
<asrwt>0</asrwt>
<pdfrwt beam="1">  1        2 0.79451971E-01 0.83011314E+02</pdfrwt>
<pdfrwt beam="2">  1       -1 0.51319593E-03 0.83011314E+02</pdfrwt>
<totfact> 0.27935346E+05</totfact>
</mgrwt>
</event>
<event>
 8    1  0.1627221E-013  0.8121680E+02  0.7818608E-02  0.1325633E+00
          2   -1    0    0  501    0  0.00000000000E+00  0.00000000000E+00  0.19789861482E+03  0.19789861484E+03  0.25500000000E-02 0. -1.
         -1   -1    0    0    0  501 -0.00000000000E+00 -0.00000000000E+00 -0.83327622499E+01  0.83327637741E+01  0.50400000000E-02 0.  1.
         24    2    1    2    0    0  0.00000000000E+00  0.00000000000E+00  0.18956585257E+03  0.20623137861E+03  0.81216802837E+02 0.  0.
         66    2    3    3    0    0 -0.11225241403E+02  0.57901190585E+01  0.19277530133E+03  0.19319898633E+03  0.19999982106E+01 0.  0.
        -13    1    3    3    0    0  0.11225241403E+02 -0.57901190585E+01 -0.32094487566E+01  0.13032392284E+02  0.10566000000E+00 0.  1.
         13    1    4    4    0    0 -0.71322896739E+01  0.29317525574E+01  0.11912976981E+03  0.11937913532E+03  0.10566000000E+00 0. -1.
        -13    1    4    4    0    0 -0.35122240036E+01  0.20299470247E+01  0.58575411116E+02  0.58715810084E+02  0.10566000000E+00 0.  1.
        -14    1    4    4    0    0 -0.58072772588E+00  0.82841947629E+00  0.15070120399E+02  0.15104040928E+02  0.00000000000E+00 0.  1.
<mgrwt>
<rscale>  0 0.81216803E+02</rscale>
<asrwt>0</asrwt>
<pdfrwt beam="1">  1        2 0.30445940E-01 0.81216803E+02</pdfrwt>
<pdfrwt beam="2">  1       -1 0.12819636E-02 0.81216803E+02</pdfrwt>
<totfact> 0.21118843E+05</totfact>
</mgrwt>
</event>
<event>
 8    1  0.1627221E-013  0.8963879E+02  0.7818608E-02  0.1303729E+00
         -1   -1    0    0    0  501 -0.00000000000E+00  0.00000000000E+00  0.22407229747E+02  0.22407230314E+02  0.50400000000E-02 0.  1.
          2   -1    0    0  501    0  0.00000000000E+00 -0.00000000000E+00 -0.89648660015E+02  0.89648660051E+02  0.25500000000E-02 0. -1.
         24    2    1    2    0    0  0.00000000000E+00  0.00000000000E+00 -0.67241430267E+02  0.11205589037E+03  0.89638789712E+02 0.  0.
         66    2    3    3    0    0  0.19896925546E+02 -0.18920676263E+02 -0.77885622114E+02  0.82607806887E+02  0.19999975297E+01 0.  0.
        -13    1    3    3    0    0 -0.19896925546E+02  0.18920676263E+02  0.10644191847E+02  0.29448083478E+02  0.10566000000E+00 0.  1.
         13    1    4    4    0    0  0.22983101161E+01 -0.18669162387E+01 -0.91191333118E+01  0.95883972606E+01  0.10566000000E+00 0. -1.
        -13    1    4    4    0    0  0.17492827925E+02 -0.16761327130E+02 -0.68163300690E+02  0.72340775784E+02  0.10566000000E+00 0.  1.
        -14    1    4    4    0    0  0.10578750523E+00 -0.29243289371E+00 -0.60318811175E+00  0.67863384217E+00  0.00000000000E+00 0.  1.
<mgrwt>
<rscale>  0 0.89638790E+02</rscale>
<asrwt>0</asrwt>
<pdfrwt beam="1">  1        2 0.13792101E-01 0.89638790E+02</pdfrwt>
<pdfrwt beam="2">  1       -1 0.34472662E-02 0.89638790E+02</pdfrwt>
<totfact> 0.12644615E+05</totfact>
</mgrwt>
</event>
<event>
 8    1  0.1627221E-013  0.7917476E+02  0.7818608E-02  0.1331410E+00
         -1   -1    0    0    0  501 -0.00000000000E+00  0.00000000000E+00  0.31153389682E+01  0.31153430451E+01  0.50400000000E-02 0.  1.
          2   -1    0    0  501    0  0.00000000000E+00 -0.00000000000E+00 -0.50304622593E+03  0.50304622594E+03  0.25500000000E-02 0. -1.
         24    2    1    2    0    0  0.00000000000E+00 -0.71054273576E-14 -0.49993088696E+03  0.50616156898E+03  0.79174757186E+02 0.  0.
         66    2    3    3    0    0  0.10593729533E+02  0.34907066452E+02 -0.34800689396E+03  0.34991931731E+03  0.19999973605E+01 0.  0.
        -13    1    3    3    0    0 -0.10593729533E+02 -0.34907066452E+02 -0.15192399300E+03  0.15624225167E+03  0.10566000000E+00 0.  1.
         13    1    4    4    0    0  0.79174286420E+01  0.27397588296E+02 -0.26616060652E+03  0.26768412943E+03  0.10566000000E+00 0. -1.
        -13    1    4    4    0    0  0.10476880920E+00  0.33471417246E+00 -0.36267623114E+01  0.36452131597E+01  0.10566000000E+00 0. -1.
        -14    1    4    4    0    0  0.25715320823E+01  0.71747639831E+01 -0.78219525127E+02  0.78589974720E+02  0.00000000000E+00 0.  1.
<mgrwt>
<rscale>  0 0.79174757E+02</rscale>
<asrwt>0</asrwt>
<pdfrwt beam="1">  1        2 0.77391663E-01 0.79174757E+02</pdfrwt>
<pdfrwt beam="2">  1       -1 0.47928363E-03 0.79174757E+02</pdfrwt>
<totfact> 0.31345499E+05</totfact>
</mgrwt>
</event>
<event>
 8    1  0.1627221E-013  0.7768968E+02  0.7818608E-02  0.1335739E+00
          2   -1    0    0  501    0  0.00000000000E+00  0.00000000000E+00  0.16640146914E+03  0.16640146916E+03  0.25500000000E-02 0. -1.
         -1   -1    0    0    0  501 -0.00000000000E+00 -0.00000000000E+00 -0.90679576224E+01  0.90679590230E+01  0.50400000000E-02 0.  1.
         24    2    1    2    0    0  0.17763568394E-14  0.11102230246E-15  0.15733351152E+03  0.17546942818E+03  0.77689680012E+02 0.  0.
         66    2    3    3    0    0 -0.14895207229E+02 -0.98915447079E+00  0.15965305225E+03  0.16036191157E+03  0.19999917052E+01 0.  0.
        -13    1    3    3    0    0  0.14895207229E+02  0.98915447079E+00 -0.23195407259E+01  0.15107516612E+02  0.10566000000E+00 0.  1.
         13    1    4    4    0    0 -0.86652653060E+01 -0.13794431024E+01  0.88612732927E+02  0.89046152567E+02  0.10566000000E+00 0. -1.
        -13    1    4    4    0    0 -0.18564441154E+01  0.31475050560E+00  0.20629364221E+02  0.20715387634E+02  0.10566000000E+00 0.  1.
         14    1    4    4    0    0 -0.43734978081E+01  0.75538126056E-01  0.50410955097E+02  0.50600371371E+02  0.00000000000E+00 0. -1.
<mgrwt>
<rscale>  0 0.77689680E+02</rscale>
<asrwt>0</asrwt>
<pdfrwt beam="1">  1        2 0.25600224E-01 0.77689680E+02</pdfrwt>
<pdfrwt beam="2">  1       -1 0.13950706E-02 0.77689680E+02</pdfrwt>
<totfact> 0.22390560E+05</totfact>
</mgrwt>
</event>
<event>
 8    1  0.1627221E-013  0.7993617E+02  0.7818608E-02  0.1329233E+00
         -1   -1    0    0    0  501 -0.00000000000E+00  0.00000000000E+00  0.53198359694E+02  0.53198359933E+02  0.50400000000E-02 0.  1.
          2   -1    0    0  501    0  0.00000000000E+00 -0.00000000000E+00 -0.30028140282E+02  0.30028140391E+02  0.25500000000E-02 0. -1.
         24    2    1    2    0    0  0.00000000000E+00  0.00000000000E+00  0.23170219412E+02  0.83226500324E+02  0.79936170089E+02 0.  0.
         66    2    3    3    0    0  0.33527814215E+02  0.67813665185E+00 -0.11000361271E+02  0.35349429156E+02  0.19999995581E+01 0.  0.
        -13    1    3    3    0    0 -0.33527814215E+02 -0.67813665185E+00  0.34170580683E+02  0.47877071167E+02  0.10566000000E+00 0.  1.
         13    1    4    4    0    0  0.10759148850E+02  0.92632666115E+00 -0.39653025300E+01  0.11504440588E+02  0.10566000000E+00 0. -1.
        -13    1    4    4    0    0  0.73750131924E+01 -0.30728091614E+00 -0.19919453595E+01  0.76461919608E+01  0.10566000000E+00 0.  1.
        -14    1    4    4    0    0  0.15393652173E+02  0.59090906837E-01 -0.50431133811E+01  0.16198796607E+02  0.00000000000E+00 0.  1.
<mgrwt>
<rscale>  0 0.79936170E+02</rscale>
<asrwt>0</asrwt>
<pdfrwt beam="1">  1        2 0.46197139E-02 0.79936170E+02</pdfrwt>
<pdfrwt beam="2">  1       -1 0.81843630E-02 0.79936170E+02</pdfrwt>
<totfact> 0.13487851E+05</totfact>
</mgrwt>
</event>
