<event>
 8    1  0.2389776E-024  0.7943999E+02  0.7818608E-02  0.1330648E+00
          2   -1    0    0  501    0  0.00000000000E+00  0.00000000000E+00  0.12452824975E+02  0.12452825236E+02  0.25500000000E-02 0. -1.
         -1   -1    0    0    0  501 -0.00000000000E+00 -0.00000000000E+00 -0.12669239063E+03  0.12669239073E+03  0.50400000000E-02 0.  1.
         24    2    1    2    0    0  0.00000000000E+00  0.00000000000E+00 -0.11423956565E+03  0.13914521597E+03  0.79439994746E+02 0.  0.
         66    2    3    3    0    0 -0.16552331841E+02 -0.30480697464E+02 -0.90967237432E+02  0.97376028373E+02  0.20000020981E+01 0.  0.
        -13    1    3    3    0    0  0.16552331841E+02  0.30480697464E+02 -0.23272328222E+02  0.41769187593E+02  0.10566000000E+00 0.  1.
         13    1    4    4    0    0 -0.93413404714E+01 -0.15895235063E+02 -0.48650514430E+02  0.52026943576E+02  0.10566000000E+00 0. -1.
        -13    1    4    4    0    0 -0.28590028197E+01 -0.65849417656E+01 -0.19694564883E+02  0.20962404565E+02  0.10566000000E+00 0. -1.
         14    1    4    4    0    0 -0.43519885497E+01 -0.80005206347E+01 -0.22622158119E+02  0.24386680232E+02  0.00000000000E+00 0. -1.
<mgrwt>
<rscale>  0 0.79439995E+02</rscale>
<asrwt>0</asrwt>
<pdfrwt beam="1">  1        2 0.19158193E-02 0.79439995E+02</pdfrwt>
<pdfrwt beam="2">  1       -1 0.19491136E-01 0.79439995E+02</pdfrwt>
<totfact> 0.11442323E+05</totfact>
</mgrwt>
</event>
<event>
 8    1  0.2389776E-024  0.7995194E+02  0.7818608E-02  0.1329188E+00
         -1   -1    0    0    0  501 -0.00000000000E+00  0.00000000000E+00  0.11980847091E+01  0.11980953100E+01  0.50400000000E-02 0.  1.
          2   -1    0    0  501    0  0.00000000000E+00 -0.00000000000E+00 -0.13338549916E+04  0.13338549917E+04  0.25500000000E-02 0. -1.
         24    2    1    2    0    0 -0.17763568394E-14  0.00000000000E+00 -0.13326569069E+04  0.13350530870E+04  0.79951944257E+02 0.  0.
         66    2    3    3    0    0 -0.13928891422E+02  0.85483496552E+01 -0.12754810504E+04  0.12755873150E+04  0.20000001473E+01 0.  0.
        -13    1    3    3    0    0  0.13928891422E+02 -0.85483496552E+01 -0.57175856550E+02  0.59465771957E+02  0.10566000000E+00 0.  1.
         13    1    4    4    0    0 -0.62488320137E+01  0.34579335481E+01 -0.53010093413E+03  0.53014905143E+03  0.10566000000E+00 0. -1.
        -13    1    4    4    0    0 -0.19058351724E+01  0.14351166850E+01 -0.15136063737E+03  0.15137947508E+03  0.10566000000E+00 0. -1.
         14    1    4    4    0    0 -0.57742242360E+01  0.36552994221E+01 -0.59401947889E+03  0.59405878849E+03  0.00000000000E+00 0. -1.
<mgrwt>
<rscale>  0 0.79951944E+02</rscale>
<asrwt>0</asrwt>
<pdfrwt beam="1">  1        2 0.20520727E+00 0.79951944E+02</pdfrwt>
<pdfrwt beam="2">  1       -1 0.18432261E-03 0.79951944E+02</pdfrwt>
<totfact> 0.34485776E+05</totfact>
</mgrwt>
</event>
<event>
 8    1  0.2389776E-024  0.8070238E+02  0.7818608E-02  0.1327070E+00
         -1   -1    0    0    0  501 -0.00000000000E+00  0.00000000000E+00  0.23670624816E+03  0.23670624821E+03  0.50400000000E-02 0.  1.
          2   -1    0    0  501    0  0.00000000000E+00 -0.00000000000E+00 -0.68786462692E+01  0.68786467418E+01  0.25500000000E-02 0. -1.
         24    2    1    2    0    0  0.35527136788E-14  0.00000000000E+00  0.22982760189E+03  0.24358489495E+03  0.80702381994E+02 0.  0.
         66    2    3    3    0    0 -0.31312208138E+02 -0.23319816826E+02  0.14545946956E+03  0.15062113238E+03  0.19999998240E+01 0.  0.
        -13    1    3    3    0    0  0.31312208138E+02  0.23319816826E+02  0.84368132332E+02  0.92963762577E+02  0.10566000000E+00 0.  1.
         13    1    4    4    0    0 -0.19752705514E+02 -0.13811816824E+02  0.89375354816E+02  0.92568357832E+02  0.10566000000E+00 0. -1.
        -13    1    4    4    0    0 -0.35908400206E+01 -0.31927558236E+01  0.16768461415E+02  0.17443631619E+02  0.10566000000E+00 0.  1.
        -14    1    4    4    0    0 -0.79686626039E+01 -0.63152441785E+01  0.39315653327E+02  0.40609142927E+02  0.00000000000E+00 0.  1.
<mgrwt>
<rscale>  0 0.80702382E+02</rscale>
<asrwt>0</asrwt>
<pdfrwt beam="1">  1        2 0.10582532E-02 0.80702382E+02</pdfrwt>
<pdfrwt beam="2">  1       -1 0.36416349E-01 0.80702382E+02</pdfrwt>
<totfact> 0.92288948E+04</totfact>
</mgrwt>
</event>
<event>
 8    1  0.2389776E-024  0.7941826E+02  0.7818608E-02  0.1330710E+00
          2   -1    0    0  501    0  0.00000000000E+00  0.00000000000E+00  0.16890109081E+04  0.16890109081E+04  0.25500000000E-02 0. -1.
         -1   -1    0    0    0  501 -0.00000000000E+00 -0.00000000000E+00 -0.93356624704E+00  0.93357985154E+00  0.50400000000E-02 0.  1.
         24    2    1    2    0    0  0.88817841970E-15  0.00000000000E+00  0.16880773418E+04  0.16899444879E+04  0.79418261671E+02 0.  0.
         66    2    3    3    0    0 -0.75396071728E+01  0.83901950030E+01  0.16541747140E+04  0.16542143831E+04  0.20000004070E+01 0.  0.
        -13    1    3    3    0    0  0.75396071728E+01 -0.83901950030E+01  0.33902627868E+02  0.35730104798E+02  0.10566000000E+00 0.  1.
         13    1    4    4    0    0 -0.12245045301E+01  0.22004481408E+01  0.34600143639E+03  0.34601061621E+03  0.10566000000E+00 0. -1.
        -13    1    4    4    0    0 -0.10946035650E+01  0.17935379689E+01  0.29480899200E+03  0.29481649863E+03  0.10566000000E+00 0. -1.
         14    1    4    4    0    0 -0.52204990777E+01  0.43962088932E+01  0.10133642856E+04  0.10133872683E+04  0.00000000000E+00 0. -1.
<mgrwt>
<rscale>  0 0.79418262E+02</rscale>
<asrwt>0</asrwt>
<pdfrwt beam="1">  1        2 0.25984546E+00 0.79418262E+02</pdfrwt>
<pdfrwt beam="2">  1       -1 0.14362794E-03 0.79418262E+02</pdfrwt>
<totfact> 0.32054495E+05</totfact>
</mgrwt>
</event>
<event>
 8    1  0.2389776E-024  0.8056912E+02  0.7818608E-02  0.1327444E+00
         -1   -1    0    0    0  501 -0.00000000000E+00  0.00000000000E+00  0.26055694798E+01  0.26055743542E+01  0.50400000000E-02 0.  1.
          2   -1    0    0  501    0  0.00000000000E+00 -0.00000000000E+00 -0.62283666095E+03  0.62283666096E+03  0.25500000000E-02 0. -1.
         24    2    1    2    0    0  0.00000000000E+00  0.35527136788E-14 -0.62023109147E+03  0.62544223531E+03  0.80569118666E+02 0.  0.
         66    2    3    3    0    0  0.23401366946E+02 -0.24458997822E+02 -0.47948789034E+03  0.48068545178E+03  0.20000051938E+01 0.  0.
        -13    1    3    3    0    0 -0.23401366946E+02  0.24458997822E+02 -0.14074320113E+03  0.14475678353E+03  0.10566000000E+00 0.  1.
         13    1    4    4    0    0  0.88502104417E+01 -0.10259498099E+02 -0.18531476800E+03  0.18580946674E+03  0.10566000000E+00 0.  1.
        -13    1    4    4    0    0  0.98461542857E+01 -0.95455440003E+01 -0.20374667633E+03  0.20420769683E+03  0.10566000000E+00 0. -1.
        -14    1    4    4    0    0  0.47050022187E+01 -0.46539557227E+01 -0.90426446014E+02  0.90668288219E+02  0.00000000000E+00 0.  1.
<mgrwt>
<rscale>  0 0.80569119E+02</rscale>
<asrwt>0</asrwt>
<pdfrwt beam="1">  1        2 0.95820907E-01 0.80569119E+02</pdfrwt>
<pdfrwt beam="2">  1       -1 0.40085771E-03 0.80569119E+02</pdfrwt>
<totfact> 0.31899270E+05</totfact>
</mgrwt>
</event>
<event>
 8    1  0.2389776E-024  0.8124023E+02  0.7818608E-02  0.1325568E+00
          2   -1    0    0  501    0  0.00000000000E+00  0.00000000000E+00  0.10126535711E+04  0.10126535711E+04  0.25500000000E-02 0. -1.
         -1   -1    0    0    0  501 -0.00000000000E+00 -0.00000000000E+00 -0.16293724662E+01  0.16293802611E+01  0.50400000000E-02 0.  1.
         24    2    1    2    0    0  0.35527136788E-14 -0.35527136788E-14  0.10110241987E+04  0.10142829514E+04  0.81240231445E+02 0.  0.
         66    2    3    3    0    0  0.18081729934E+02 -0.17598725371E+02  0.90285672523E+03  0.90321145386E+03  0.19999981667E+01 0.  0.
        -13    1    3    3    0    0 -0.18081729934E+02  0.17598725371E+02  0.10816747342E+03  0.11107149752E+03  0.10566000000E+00 0.  1.
         13    1    4    4    0    0  0.82867457526E+01 -0.82882671806E+01  0.44648579419E+03  0.44663960987E+03  0.10566000000E+00 0. -1.
        -13    1    4    4    0    0  0.60284090108E+01 -0.52612281680E+01  0.27885550743E+03  0.27897029846E+03  0.10566000000E+00 0.  1.
        -14    1    4    4    0    0  0.37665751703E+01 -0.40492300227E+01  0.17751542361E+03  0.17760154552E+03  0.00000000000E+00 0.  1.
<mgrwt>
<rscale>  0 0.81240231E+02</rscale>
<asrwt>0</asrwt>
<pdfrwt beam="1">  1        2 0.15579320E+00 0.81240231E+02</pdfrwt>
<pdfrwt beam="2">  1       -1 0.25067273E-03 0.81240231E+02</pdfrwt>
<totfact> 0.33866657E+05</totfact>
</mgrwt>
</event>
<event>
 8    1  0.2389776E-024  0.7820448E+02  0.7818608E-02  0.1334225E+00
         -1   -1    0    0    0  501 -0.00000000000E+00  0.00000000000E+00  0.27710058825E+02  0.27710059284E+02  0.50400000000E-02 0.  1.
          2   -1    0    0  501    0  0.00000000000E+00 -0.00000000000E+00 -0.55177987190E+02  0.55177987249E+02  0.25500000000E-02 0. -1.
         24    2    1    2    0    0  0.00000000000E+00  0.00000000000E+00 -0.27467928365E+02  0.82888046533E+02  0.78204483051E+02 0.  0.
         66    2    3    3    0    0 -0.22124480198E+02 -0.26463426079E+02  0.57190943088E+01  0.35021615897E+02  0.19999991102E+01 0.  0.
        -13    1    3    3    0    0  0.22124480198E+02  0.26463426079E+02 -0.33187022673E+02  0.47866430636E+02  0.10566000000E+00 0.  1.
         13    1    4    4    0    0 -0.18804964839E+02 -0.21956743748E+02  0.51352351116E+01  0.29361660415E+02  0.10566000000E+00 0. -1.
        -13    1    4    4    0    0 -0.11892096375E+01 -0.13049441591E+01 -0.97820720044E-02  0.17687166378E+01  0.10566000000E+00 0.  1.
         14    1    4    4    0    0 -0.21303057214E+01 -0.32017381717E+01  0.59364126925E+00  0.38912388443E+01  0.00000000000E+00 0. -1.
<mgrwt>
<rscale>  0 0.78204483E+02</rscale>
<asrwt>0</asrwt>
<pdfrwt beam="1">  1        2 0.84889211E-02 0.78204483E+02</pdfrwt>
<pdfrwt beam="2">  1       -1 0.42630860E-02 0.78204483E+02</pdfrwt>
<totfact> 0.16246523E+05</totfact>
</mgrwt>
</event>
<event>
 8    1  0.2389776E-024  0.8143690E+02  0.7818608E-02  0.1325022E+00
         -1   -1    0    0    0  501 -0.00000000000E+00  0.00000000000E+00  0.19883177900E+03  0.19883177907E+03  0.50400000000E-02 0.  1.
          2   -1    0    0  501    0  0.00000000000E+00 -0.00000000000E+00 -0.83386676513E+01  0.83386680412E+01  0.25500000000E-02 0. -1.
         24    2    1    2    0    0  0.00000000000E+00  0.00000000000E+00  0.19049311135E+03  0.20717044711E+03  0.81436900006E+02 0.  0.
         66    2    3    3    0    0  0.55193944169E+01 -0.31238958490E+02  0.30463305701E+02  0.44026688101E+02  0.20000071615E+01 0.  0.
        -13    1    3    3    0    0 -0.55193944169E+01  0.31238958490E+02  0.16002980565E+03  0.16314375901E+03  0.10566000000E+00 0.  1.
         13    1    4    4    0    0  0.21540929197E+01 -0.14262451668E+02  0.13591927521E+02  0.19819417289E+02  0.10566000000E+00 0. -1.
        -13    1    4    4    0    0  0.32983578916E+01 -0.16568817176E+02  0.16126647112E+02  0.23355615566E+02  0.10566000000E+00 0.  1.
        -14    1    4    4    0    0  0.66943605545E-01 -0.40768964618E+00  0.74473106827E+00  0.85165524596E+00  0.00000000000E+00 0.  1.
<mgrwt>
<rscale>  0 0.81436900E+02</rscale>
<asrwt>0</asrwt>
<pdfrwt beam="1">  1        2 0.12828721E-02 0.81436900E+02</pdfrwt>
<pdfrwt beam="2">  1       -1 0.30589501E-01 0.81436900E+02</pdfrwt>
<totfact> 0.95359068E+04</totfact>
</mgrwt>
</event>
<event>
 8    1  0.2389776E-024  0.7802385E+02  0.7818608E-02  0.1334755E+00
         -1   -1    0    0    0  501 -0.00000000000E+00  0.00000000000E+00  0.92938212572E+02  0.92938212709E+02  0.50400000000E-02 0.  1.
          2   -1    0    0  501    0  0.00000000000E+00 -0.00000000000E+00 -0.16375721923E+02  0.16375722121E+02  0.25500000000E-02 0. -1.
         24    2    1    2    0    0  0.00000000000E+00  0.00000000000E+00  0.76562490649E+02  0.10931393483E+03  0.78023851312E+02 0.  0.
         66    2    3    3    0    0  0.24512328083E+02  0.30272814499E+02  0.40577506107E+02  0.56283492608E+02  0.20000031346E+01 0.  0.
        -13    1    3    3    0    0 -0.24512328083E+02 -0.30272814499E+02  0.35984984542E+02  0.53030442222E+02  0.10566000000E+00 0.  1.
         13    1    4    4    0    0  0.90558245644E+01  0.11614023763E+02  0.15549568648E+02  0.21417136963E+02  0.10566000000E+00 0. -1.
        -13    1    4    4    0    0  0.12560659245E+02  0.15746396200E+02  0.20178556811E+02  0.28511479670E+02  0.10566000000E+00 0.  1.
        -14    1    4    4    0    0  0.28958442731E+01  0.29123945354E+01  0.48493806482E+01  0.63548759748E+01  0.00000000000E+00 0.  1.
<mgrwt>
<rscale>  0 0.78023851E+02</rscale>
<asrwt>0</asrwt>
<pdfrwt beam="1">  1        2 0.25193418E-02 0.78023851E+02</pdfrwt>
<pdfrwt beam="2">  1       -1 0.14298187E-01 0.78023851E+02</pdfrwt>
<totfact> 0.12810434E+05</totfact>
</mgrwt>
</event>
<event>
 8    1  0.2389776E-024  0.7521193E+02  0.7818608E-02  0.1343216E+00
          2   -1    0    0  501    0  0.00000000000E+00  0.00000000000E+00  0.32930859251E+03  0.32930859252E+03  0.25500000000E-02 0. -1.
         -1   -1    0    0    0  501 -0.00000000000E+00 -0.00000000000E+00 -0.42944763076E+01  0.42944792651E+01  0.50400000000E-02 0.  1.
         24    2    1    2    0    0  0.00000000000E+00  0.44408920985E-15  0.32501411620E+03  0.33360307179E+03  0.75211925740E+02 0.  0.
         66    2    3    3    0    0 -0.32306091911E+02  0.36212406263E+01  0.24624086188E+03  0.24838550483E+03  0.19999971884E+01 0.  0.
        -13    1    3    3    0    0  0.32306091911E+02 -0.36212406263E+01  0.78773254321E+02  0.85217566960E+02  0.10566000000E+00 0.  1.
         13    1    4    4    0    0 -0.71347632965E+01  0.10892752251E+01  0.54285290475E+02  0.54763083312E+02  0.10566000000E+00 0. -1.
        -13    1    4    4    0    0 -0.63196681637E+01 -0.71503832812E-01  0.47825750649E+02  0.48241651171E+02  0.10566000000E+00 0.  1.
        -14    1    4    4    0    0 -0.18851660451E+02  0.26034692340E+01  0.14412982076E+03  0.14538077034E+03  0.00000000000E+00 0.  1.
<mgrwt>
<rscale>  0 0.75211926E+02</rscale>
<asrwt>0</asrwt>
<pdfrwt beam="1">  1        2 0.50662864E-01 0.75211926E+02</pdfrwt>
<pdfrwt beam="2">  1       -1 0.66068884E-03 0.75211926E+02</pdfrwt>
<totfact> 0.30976364E+05</totfact>
</mgrwt>
</event>
<event>
 8    1  0.2389776E-024  0.8054669E+02  0.7818608E-02  0.1327507E+00
          2   -1    0    0  501    0  0.00000000000E+00  0.00000000000E+00  0.16439513342E+03  0.16439513344E+03  0.25500000000E-02 0. -1.
         -1   -1    0    0    0  501 -0.00000000000E+00 -0.00000000000E+00 -0.98661210906E+01  0.98661223779E+01  0.50400000000E-02 0.  1.
         24    2    1    2    0    0  0.00000000000E+00 -0.17763568394E-14  0.15452901233E+03  0.17426125581E+03  0.80546692219E+02 0.  0.
         66    2    3    3    0    0  0.11384737320E+02  0.10713708287E+02  0.15755184054E+03  0.15833817685E+03  0.20000004289E+01 0.  0.
        -13    1    3    3    0    0 -0.11384737320E+02 -0.10713708287E+02 -0.30228282176E+01  0.15923078960E+02  0.10566000000E+00 0.  1.
         13    1    4    4    0    0  0.79622235186E+01  0.72339740123E+01  0.11529123997E+03  0.11579209197E+03  0.10566000000E+00 0. -1.
        -13    1    4    4    0    0  0.17153194054E+01  0.21715270162E+01  0.24045625784E+02  0.24204568445E+02  0.10566000000E+00 0.  1.
         14    1    4    4    0    0  0.17071943963E+01  0.13082072581E+01  0.18214974787E+02  0.18341516443E+02  0.00000000000E+00 0. -1.
<mgrwt>
<rscale>  0 0.80546692E+02</rscale>
<asrwt>0</asrwt>
<pdfrwt beam="1">  1        2 0.25291557E-01 0.80546692E+02</pdfrwt>
<pdfrwt beam="2">  1       -1 0.15178650E-02 0.80546692E+02</pdfrwt>
<totfact> 0.20269208E+05</totfact>
</mgrwt>
</event>
<event>
 8    1  0.2389776E-024  0.8131722E+02  0.7818608E-02  0.1325354E+00
         -1   -1    0    0    0  501 -0.00000000000E+00  0.00000000000E+00  0.33099189719E+01  0.33099228090E+01  0.50400000000E-02 0.  1.
          2   -1    0    0  501    0  0.00000000000E+00 -0.00000000000E+00 -0.49944474837E+03  0.49944474838E+03  0.25500000000E-02 0. -1.
         24    2    1    2    0    0  0.00000000000E+00  0.71054273576E-14 -0.49613482940E+03  0.50275467119E+03  0.81317221159E+02 0.  0.
         66    2    3    3    0    0  0.56725492080E+01 -0.39416994098E+02 -0.29815514029E+03  0.30080951601E+03  0.19999996328E+01 0.  0.
        -13    1    3    3    0    0 -0.56725492080E+01  0.39416994098E+02 -0.19797968911E+03  0.20194515518E+03  0.10566000000E+00 0.  1.
         13    1    4    4    0    0  0.23223952119E+01 -0.21091556912E+02 -0.16121215322E+03  0.16260263467E+03  0.10566000000E+00 0. -1.
        -13    1    4    4    0    0  0.79732207792E+00 -0.28144790506E+01 -0.22154922852E+02  0.22347455905E+02  0.10566000000E+00 0.  1.
        -14    1    4    4    0    0  0.25528319182E+01 -0.15510958135E+02 -0.11478806422E+03  0.11585942543E+03  0.00000000000E+00 0.  1.
<mgrwt>
<rscale>  0 0.81317221E+02</rscale>
<asrwt>0</asrwt>
<pdfrwt beam="1">  1        2 0.76837594E-01 0.81317221E+02</pdfrwt>
<pdfrwt beam="2">  1       -1 0.50921900E-03 0.81317221E+02</pdfrwt>
<totfact> 0.29171094E+05</totfact>
</mgrwt>
</event>
<event>
 8    1  0.2389776E-024  0.7868583E+02  0.7818608E-02  0.1332823E+00
         -1   -1    0    0    0  501 -0.00000000000E+00  0.00000000000E+00  0.32267532845E+01  0.32267572206E+01  0.50400000000E-02 0.  1.
          2   -1    0    0  501    0  0.00000000000E+00 -0.00000000000E+00 -0.47969709700E+03  0.47969709700E+03  0.25500000000E-02 0. -1.
         24    2    1    2    0    0  0.00000000000E+00  0.00000000000E+00 -0.47647034371E+03  0.48292385422E+03  0.78685834439E+02 0.  0.
         66    2    3    3    0    0  0.25002616791E+02 -0.22054803849E+02 -0.36629276625E+03  0.36781236497E+03  0.19999992562E+01 0.  0.
        -13    1    3    3    0    0 -0.25002616791E+02  0.22054803849E+02 -0.11017757746E+03  0.11511148925E+03  0.10566000000E+00 0.  1.
         13    1    4    4    0    0  0.10655083356E+02 -0.10408411638E+02 -0.16598498573E+03  0.16665201015E+03  0.10566000000E+00 0. -1.
        -13    1    4    4    0    0  0.82168789660E+01 -0.61630622425E+01 -0.11328215806E+03  0.11374690736E+03  0.10566000000E+00 0.  1.
         14    1    4    4    0    0  0.61306544691E+01 -0.54833299693E+01 -0.87025622466E+02  0.87413447463E+02  0.00000000000E+00 0. -1.
<mgrwt>
<rscale>  0 0.78685834E+02</rscale>
<asrwt>0</asrwt>
<pdfrwt beam="1">  1        2 0.73799497E-01 0.78685834E+02</pdfrwt>
<pdfrwt beam="2">  1       -1 0.49642427E-03 0.78685834E+02</pdfrwt>
<totfact> 0.31372099E+05</totfact>
</mgrwt>
</event>
<event>
 8    1  0.2389776E-024  0.7901686E+02  0.7818608E-02  0.1331865E+00
          2   -1    0    0  501    0  0.00000000000E+00  0.00000000000E+00  0.82055567924E+03  0.82055567924E+03  0.25500000000E-02 0. -1.
         -1   -1    0    0    0  501 -0.00000000000E+00 -0.00000000000E+00 -0.19022636382E+01  0.19022703149E+01  0.50400000000E-02 0.  1.
         24    2    1    2    0    0 -0.71054273576E-14  0.17763568394E-14  0.81865341560E+03  0.82245794956E+03  0.79016858430E+02 0.  0.
         66    2    3    3    0    0  0.23931844313E+02 -0.13805054291E+02  0.70317795287E+03  0.70372334486E+03  0.20000000470E+01 0.  0.
        -13    1    3    3    0    0 -0.23931844313E+02  0.13805054291E+02  0.11547546273E+03  0.11873460470E+03  0.10566000000E+00 0.  1.
         13    1    4    4    0    0  0.13361909667E+02 -0.84503755620E+01  0.40027610514E+03  0.40058821873E+03  0.10566000000E+00 0. -1.
        -13    1    4    4    0    0  0.42075641923E+01 -0.22130359392E+01  0.10968805017E+03  0.10979107722E+03  0.10566000000E+00 0.  1.
        -14    1    4    4    0    0  0.63623704531E+01 -0.31416427900E+01  0.19321379757E+03  0.19334404891E+03  0.00000000000E+00 0.  1.
<mgrwt>
<rscale>  0 0.79016858E+02</rscale>
<asrwt>0</asrwt>
<pdfrwt beam="1">  1        2 0.12623963E+00 0.79016858E+02</pdfrwt>
<pdfrwt beam="2">  1       -1 0.29265577E-03 0.79016858E+02</pdfrwt>
<totfact> 0.35636653E+05</totfact>
</mgrwt>
</event>
<event>
 8    1  0.2389776E-024  0.7897542E+02  0.7818608E-02  0.1331984E+00
         -1   -1    0    0    0  501 -0.00000000000E+00  0.00000000000E+00  0.19279872603E+02  0.19279873261E+02  0.50400000000E-02 0.  1.
          2   -1    0    0  501    0  0.00000000000E+00 -0.00000000000E+00 -0.80876008474E+02  0.80876008514E+02  0.25500000000E-02 0. -1.
         24    2    1    2    0    0  0.00000000000E+00  0.22204460493E-15 -0.61596135871E+02  0.10015588178E+03  0.78975418327E+02 0.  0.
         66    2    3    3    0    0 -0.36236551115E+02  0.90301857148E+00 -0.50601990801E+02  0.62277319644E+02  0.19999974383E+01 0.  0.
        -13    1    3    3    0    0  0.36236551115E+02 -0.90301857148E+00 -0.10994145070E+02  0.37878562131E+02  0.10566000000E+00 0.  1.
         13    1    4    4    0    0 -0.93330578744E+01  0.27623185314E+00 -0.12717815490E+02  0.15777714290E+02  0.10566000000E+00 0. -1.
        -13    1    4    4    0    0 -0.13215366519E+02 -0.52663136785E+00 -0.18636828133E+02  0.22853135009E+02  0.10566000000E+00 0.  1.
        -14    1    4    4    0    0 -0.13688126722E+02  0.11534180862E+01 -0.19247347178E+02  0.23646470346E+02  0.00000000000E+00 0.  1.
<mgrwt>
<rscale>  0 0.78975418E+02</rscale>
<asrwt>0</asrwt>
<pdfrwt beam="1">  1        2 0.12442463E-01 0.78975418E+02</pdfrwt>
<pdfrwt beam="2">  1       -1 0.29661344E-02 0.78975418E+02</pdfrwt>
<totfact> 0.17333869E+05</totfact>
</mgrwt>
</event>
<event>
 8    1  0.2389776E-024  0.8019194E+02  0.7818608E-02  0.1328508E+00
          2   -1    0    0  501    0  0.00000000000E+00  0.00000000000E+00  0.66396787848E+03  0.66396787849E+03  0.25500000000E-02 0. -1.
         -1   -1    0    0    0  501 -0.00000000000E+00 -0.00000000000E+00 -0.24213293808E+01  0.24213346261E+01  0.50400000000E-02 0.  1.
         24    2    1    2    0    0 -0.35527136788E-14  0.00000000000E+00  0.66154654910E+03  0.66638921312E+03  0.80191936787E+02 0.  0.
         66    2    3    3    0    0  0.30503042405E+02 -0.55785189743E+01  0.54188144355E+03  0.54277164106E+03  0.20000011300E+01 0.  0.
        -13    1    3    3    0    0 -0.30503042405E+02  0.55785189743E+01  0.11966510556E+03  0.12361757206E+03  0.10566000000E+00 0.  1.
         13    1    4    4    0    0  0.49329660841E+01 -0.10691240836E+01  0.98119165135E+02  0.98248963920E+02  0.10566000000E+00 0.  1.
        -13    1    4    4    0    0  0.15423538050E+02 -0.22070629446E+01  0.26986962867E+03  0.27031904168E+03  0.10566000000E+00 0. -1.
        -14    1    4    4    0    0  0.10146538270E+02 -0.23023319461E+01  0.17389264974E+03  0.17420363546E+03  0.00000000000E+00 0.  1.
<mgrwt>
<rscale>  0 0.80191937E+02</rscale>
<asrwt>0</asrwt>
<pdfrwt beam="1">  1        2 0.10214896E+00 0.80191937E+02</pdfrwt>
<pdfrwt beam="2">  1       -1 0.37251241E-03 0.80191937E+02</pdfrwt>
<totfact> 0.32827884E+05</totfact>
</mgrwt>
</event>
<event>
 8    1  0.2389776E-024  0.7999743E+02  0.7818608E-02  0.1329059E+00
         -1   -1    0    0    0  501 -0.00000000000E+00  0.00000000000E+00  0.88300402140E+02  0.88300402284E+02  0.50400000000E-02 0.  1.
          2   -1    0    0  501    0  0.00000000000E+00 -0.00000000000E+00 -0.18118798130E+02  0.18118798309E+02  0.25500000000E-02 0. -1.
         24    2    1    2    0    0  0.00000000000E+00  0.00000000000E+00  0.70181604010E+02  0.10641920059E+03  0.79997429417E+02 0.  0.
         66    2    3    3    0    0 -0.79629022866E+01 -0.25920806557E+02 -0.39577147225E+01  0.27476526635E+02  0.19999961707E+01 0.  0.
        -13    1    3    3    0    0  0.79629022866E+01  0.25920806557E+02  0.74139318733E+02  0.78942673958E+02  0.10566000000E+00 0.  1.
         13    1    4    4    0    0 -0.51062453278E+01 -0.13458073397E+02 -0.21283038989E+01  0.14551093513E+02  0.10566000000E+00 0. -1.
        -13    1    4    4    0    0 -0.12607481318E+00 -0.71030527301E+00 -0.13652474479E+00  0.74177589670E+00  0.10566000000E+00 0. -1.
         14    1    4    4    0    0 -0.27305821456E+01 -0.11752427887E+02 -0.16928860788E+01  0.12183657225E+02  0.00000000000E+00 0. -1.
<mgrwt>
<rscale>  0 0.79997429E+02</rscale>
<asrwt>0</asrwt>
<pdfrwt beam="1">  1        2 0.27875075E-02 0.79997429E+02</pdfrwt>
<pdfrwt beam="2">  1       -1 0.13584677E-01 0.79997429E+02</pdfrwt>
<totfact> 0.12168490E+05</totfact>
</mgrwt>
</event>
<event>
 8    1  0.2389776E-024  0.8340182E+02  0.7818608E-02  0.1319666E+00
         -1   -1    0    0    0  501 -0.00000000000E+00  0.00000000000E+00  0.68843207434E+02  0.68843207618E+02  0.50400000000E-02 0.  1.
          2   -1    0    0  501    0  0.00000000000E+00 -0.00000000000E+00 -0.25259805770E+02  0.25259805898E+02  0.25500000000E-02 0. -1.
         24    2    1    2    0    0  0.35527136788E-14  0.00000000000E+00  0.43583401664E+02  0.94103013516E+02  0.83401824034E+02 0.  0.
         66    2    3    3    0    0  0.17895766197E+02 -0.18274675430E+02 -0.15322801362E+02  0.29883280343E+02  0.19999981642E+01 0.  0.
        -13    1    3    3    0    0 -0.17895766197E+02  0.18274675430E+02  0.58906203026E+02  0.64219733173E+02  0.10566000000E+00 0.  1.
         13    1    4    4    0    0  0.57868302478E+01 -0.54366384113E+01 -0.45006558233E+01  0.91275138131E+01  0.10566000000E+00 0. -1.
        -13    1    4    4    0    0  0.10123692232E+02 -0.10918127721E+02 -0.97236918296E+01  0.17783588057E+02  0.10566000000E+00 0.  1.
        -14    1    4    4    0    0  0.19852437174E+01 -0.19199092970E+01 -0.10984537090E+01  0.29721784733E+01  0.00000000000E+00 0.  1.
<mgrwt>
<rscale>  0 0.83401824E+02</rscale>
<asrwt>0</asrwt>
<pdfrwt beam="1">  1        2 0.38861240E-02 0.83401824E+02</pdfrwt>
<pdfrwt beam="2">  1       -1 0.10591263E-01 0.83401824E+02</pdfrwt>
<totfact> 0.11555631E+05</totfact>
</mgrwt>
</event>
<event>
 8    1  0.2389776E-024  0.8138873E+02  0.7818608E-02  0.1325156E+00
          2   -1    0    0  501    0  0.00000000000E+00  0.00000000000E+00  0.32880617952E+02  0.32880618050E+02  0.25500000000E-02 0. -1.
         -1   -1    0    0    0  501 -0.00000000000E+00 -0.00000000000E+00 -0.50364968525E+02  0.50364968777E+02  0.50400000000E-02 0.  1.
         24    2    1    2    0    0  0.35527136788E-14 -0.35527136788E-14 -0.17484350573E+02  0.83245586827E+02  0.81388729019E+02 0.  0.
         66    2    3    3    0    0 -0.16630631447E+02  0.14718379982E+02  0.26100649310E+02  0.34328596012E+02  0.19999995229E+01 0.  0.
        -13    1    3    3    0    0  0.16630631447E+02 -0.14718379982E+02 -0.43584999883E+02  0.48916990816E+02  0.10566000000E+00 0.  1.
         13    1    4    4    0    0 -0.52682914769E+01  0.47349291958E+01  0.72403084954E+01  0.10129544941E+02  0.10566000000E+00 0. -1.
        -13    1    4    4    0    0 -0.51283695810E+01  0.50120692557E+01  0.83649511462E+01  0.11018374857E+02  0.10566000000E+00 0.  1.
        -14    1    4    4    0    0 -0.62339703894E+01  0.49713815310E+01  0.10495389668E+02  0.13180676213E+02  0.00000000000E+00 0.  1.
<mgrwt>
<rscale>  0 0.81388729E+02</rscale>
<asrwt>0</asrwt>
<pdfrwt beam="1">  1        2 0.50585566E-02 0.81388729E+02</pdfrwt>
<pdfrwt beam="2">  1       -1 0.77484567E-02 0.81388729E+02</pdfrwt>
<totfact> 0.13058657E+05</totfact>
</mgrwt>
</event>
<event>
 8    1  0.2389776E-024  0.7479252E+02  0.7818608E-02  0.1344515E+00
         -1   -1    0    0    0  501 -0.00000000000E+00  0.00000000000E+00  0.81891959330E+02  0.81891959485E+02  0.50400000000E-02 0.  1.
          2   -1    0    0  501    0  0.00000000000E+00 -0.00000000000E+00 -0.17077137031E+02  0.17077137222E+02  0.25500000000E-02 0. -1.
         24    2    1    2    0    0 -0.17763568394E-14  0.35527136788E-14  0.64814822299E+02  0.98969096707E+02  0.74792519100E+02 0.  0.
         66    2    3    3    0    0 -0.15786789473E+02  0.20175326475E+02 -0.35708129540E+01  0.25942575543E+02  0.20000001087E+01 0.  0.
        -13    1    3    3    0    0  0.15786789473E+02 -0.20175326475E+02  0.68385635253E+02  0.73026521163E+02  0.10566000000E+00 0.  1.
         13    1    4    4    0    0 -0.98666997052E+01  0.13301120980E+02 -0.26320547908E+01  0.16769330900E+02  0.10566000000E+00 0. -1.
        -13    1    4    4    0    0 -0.15512032034E+01  0.22273949641E+01  0.62225316829E-01  0.27170858893E+01  0.10566000000E+00 0.  1.
        -14    1    4    4    0    0 -0.43688865645E+01  0.46468105313E+01 -0.10009834800E+01  0.64561587538E+01  0.00000000000E+00 0.  1.
<mgrwt>
<rscale>  0 0.74792519E+02</rscale>
<asrwt>0</asrwt>
<pdfrwt beam="1">  1        2 0.26272519E-02 0.74792519E+02</pdfrwt>
<pdfrwt beam="2">  1       -1 0.12598763E-01 0.74792519E+02</pdfrwt>
<totfact> 0.14592875E+05</totfact>
</mgrwt>
</event>
<event>
 8    1  0.2389776E-024  0.7987797E+02  0.7818608E-02  0.1329398E+00
          2   -1    0    0  501    0  0.00000000000E+00  0.00000000000E+00  0.10105752926E+03  0.10105752929E+03  0.25500000000E-02 0. -1.
         -1   -1    0    0    0  501 -0.00000000000E+00 -0.00000000000E+00 -0.15784302865E+02  0.15784303670E+02  0.50400000000E-02 0.  1.
         24    2    1    2    0    0  0.00000000000E+00  0.00000000000E+00  0.85273226395E+02  0.11684183296E+03  0.79877974374E+02 0.  0.
         66    2    3    3    0    0 -0.13100516971E+02 -0.12976652559E+02  0.94443536860E+02  0.96247590694E+02  0.20000007907E+01 0.  0.
        -13    1    3    3    0    0  0.13100516971E+02  0.12976652559E+02 -0.91703104648E+01  0.20594242268E+02  0.10566000000E+00 0.  1.
         13    1    4    4    0    0 -0.10487201260E+01 -0.92422717805E+00  0.96909214389E+01  0.97917890169E+01  0.10566000000E+00 0.  1.
        -13    1    4    4    0    0 -0.47792457138E+01 -0.53139274941E+01  0.37246186139E+02  0.37925829733E+02  0.10566000000E+00 0. -1.
         14    1    4    4    0    0 -0.72725511316E+01 -0.67384978865E+01  0.47506429282E+02  0.48529971944E+02  0.00000000000E+00 0. -1.
<mgrwt>
<rscale>  0 0.79877974E+02</rscale>
<asrwt>0</asrwt>
<pdfrwt beam="1">  1        2 0.15547313E-01 0.79877974E+02</pdfrwt>
<pdfrwt beam="2">  1       -1 0.24283543E-02 0.79877974E+02</pdfrwt>
<totfact> 0.17851046E+05</totfact>
</mgrwt>
</event>
<event>
 8    1  0.2389776E-024  0.7548725E+02  0.7818608E-02  0.1342369E+00
          2   -1    0    0  501    0  0.00000000000E+00  0.00000000000E+00  0.46675848328E+02  0.46675848398E+02  0.25500000000E-02 0. -1.
         -1   -1    0    0    0  501 -0.00000000000E+00 -0.00000000000E+00 -0.30520732924E+02  0.30520733340E+02  0.50400000000E-02 0.  1.
         24    2    1    2    0    0  0.35527136788E-14  0.00000000000E+00  0.16155115404E+02  0.77196581738E+02  0.75487247123E+02 0.  0.
         66    2    3    3    0    0 -0.12707086432E+02 -0.15796324305E+02  0.40608795655E+02  0.45432017378E+02  0.20000028367E+01 0.  0.
        -13    1    3    3    0    0  0.12707086432E+02  0.15796324305E+02 -0.24453680251E+02  0.31764564360E+02  0.10566000000E+00 0.  1.
         13    1    4    4    0    0 -0.26738852069E+01 -0.27790892682E+01  0.79003701156E+01  0.87920424965E+01  0.10566000000E+00 0. -1.
        -13    1    4    4    0    0 -0.52881321220E+01 -0.64078967190E+01  0.14876969552E+02  0.17039978544E+02  0.10566000000E+00 0.  1.
         14    1    4    4    0    0 -0.47450691029E+01 -0.66093383177E+01  0.17831455987E+02  0.19599996337E+02  0.00000000000E+00 0. -1.
<mgrwt>
<rscale>  0 0.75487247E+02</rscale>
<asrwt>0</asrwt>
<pdfrwt beam="1">  1        2 0.71808998E-02 0.75487247E+02</pdfrwt>
<pdfrwt beam="2">  1       -1 0.46954974E-02 0.75487247E+02</pdfrwt>
<totfact> 0.17257137E+05</totfact>
</mgrwt>
</event>
<event>
 8    1  0.2389776E-024  0.7961445E+02  0.7818608E-02  0.1330149E+00
         -1   -1    0    0    0  501 -0.00000000000E+00  0.00000000000E+00  0.47659164738E+01  0.47659191387E+01  0.50400000000E-02 0.  1.
          2   -1    0    0  501    0  0.00000000000E+00 -0.00000000000E+00 -0.33248898537E+03  0.33248898538E+03  0.25500000000E-02 0. -1.
         24    2    1    2    0    0  0.00000000000E+00  0.35527136788E-14 -0.32772306890E+03  0.33725490452E+03  0.79614450542E+02 0.  0.
         66    2    3    3    0    0  0.74879277448E+01  0.24509852933E+02 -0.29285693154E+03  0.29398296614E+03  0.20000195977E+01 0.  0.
        -13    1    3    3    0    0 -0.74879277448E+01 -0.24509852933E+02 -0.34866137362E+02  0.43271938382E+02  0.10566000000E+00 0.  1.
         13    1    4    4    0    0  0.28401332384E+01  0.12145310354E+02 -0.13987453709E+03  0.14042959877E+03  0.10566000000E+00 0. -1.
        -13    1    4    4    0    0  0.10911915079E+01  0.23223939795E+01 -0.31904072975E+02  0.32007268693E+02  0.10566000000E+00 0.  1.
         14    1    4    4    0    0  0.35566029985E+01  0.10042148599E+02 -0.12107832147E+03  0.12154609867E+03  0.00000000000E+00 0. -1.
<mgrwt>
<rscale>  0 0.79614451E+02</rscale>
<asrwt>0</asrwt>
<pdfrwt beam="1">  1        2 0.51152133E-01 0.79614451E+02</pdfrwt>
<pdfrwt beam="2">  1       -1 0.73321839E-03 0.79614451E+02</pdfrwt>
<totfact> 0.26795218E+05</totfact>
</mgrwt>
</event>
<event>
 8    1  0.2389776E-024  0.7943788E+02  0.7818608E-02  0.1330654E+00
          2   -1    0    0  501    0  0.00000000000E+00  0.00000000000E+00  0.29320617710E+02  0.29320617821E+02  0.25500000000E-02 0. -1.
         -1   -1    0    0    0  501 -0.00000000000E+00 -0.00000000000E+00 -0.53804939951E+02  0.53804940187E+02  0.50400000000E-02 0.  1.
         24    2    1    2    0    0  0.00000000000E+00  0.88817841970E-15 -0.24484322240E+02  0.83125558008E+02  0.79437877355E+02 0.  0.
         66    2    3    3    0    0 -0.16281657422E+02 -0.68254631330E+01  0.24951989323E+02  0.30631373755E+02  0.19999928808E+01 0.  0.
        -13    1    3    3    0    0  0.16281657422E+02  0.68254631330E+01 -0.49436311563E+02  0.52494184253E+02  0.10566000000E+00 0.  1.
         13    1    4    4    0    0 -0.10446634840E+02 -0.47355240763E+01  0.17571905545E+02  0.20984289273E+02  0.10566000000E+00 0. -1.
        -13    1    4    4    0    0 -0.20644051466E+01 -0.65901592854E+00  0.23200400365E+01  0.31764477660E+01  0.10566000000E+00 0. -1.
         14    1    4    4    0    0 -0.37706174358E+01 -0.14309231282E+01  0.50600437413E+01  0.64706367160E+01  0.00000000000E+00 0. -1.
<mgrwt>
<rscale>  0 0.79437877E+02</rscale>
<asrwt>0</asrwt>
<pdfrwt beam="1">  1        2 0.45108643E-02 0.79437877E+02</pdfrwt>
<pdfrwt beam="2">  1       -1 0.82776831E-02 0.79437877E+02</pdfrwt>
<totfact> 0.13662084E+05</totfact>
</mgrwt>
</event>
<event>
 8    1  0.2389776E-024  0.7953674E+02  0.7818608E-02  0.1330371E+00
          2   -1    0    0  501    0  0.00000000000E+00  0.00000000000E+00  0.42522702508E+03  0.42522702509E+03  0.25500000000E-02 0. -1.
         -1   -1    0    0    0  501 -0.00000000000E+00 -0.00000000000E+00 -0.37192428739E+01  0.37192462888E+01  0.50400000000E-02 0.  1.
         24    2    1    2    0    0  0.00000000000E+00  0.00000000000E+00  0.42150778221E+03  0.42894627138E+03  0.79536741619E+02 0.  0.
         66    2    3    3    0    0  0.34796574753E+02 -0.94844088405E+01  0.30093029840E+03  0.30309041577E+03  0.20000025667E+01 0.  0.
        -13    1    3    3    0    0 -0.34796574753E+02  0.94844088405E+01  0.12057748380E+03  0.12585585560E+03  0.10566000000E+00 0.  1.
         13    1    4    4    0    0  0.16472920144E+02 -0.54968938667E+01  0.14556286063E+03  0.14659512441E+03  0.10566000000E+00 0. -1.
        -13    1    4    4    0    0  0.14419434758E+02 -0.31617908973E+01  0.12145108432E+03  0.12234497974E+03  0.10566000000E+00 0.  1.
         14    1    4    4    0    0  0.39042198511E+01 -0.82572407649E+00  0.33916353445E+02  0.34150311622E+02  0.00000000000E+00 0. -1.
<mgrwt>
<rscale>  0 0.79536742E+02</rscale>
<asrwt>0</asrwt>
<pdfrwt beam="1">  1        2 0.65419571E-01 0.79536742E+02</pdfrwt>
<pdfrwt beam="2">  1       -1 0.57219123E-03 0.79536742E+02</pdfrwt>
<totfact> 0.29299227E+05</totfact>
</mgrwt>
</event>
<event>
 8    1  0.2389776E-024  0.7996631E+02  0.7818608E-02  0.1329147E+00
          2   -1    0    0  501    0  0.00000000000E+00  0.00000000000E+00  0.17820824887E+02  0.17820825069E+02  0.25500000000E-02 0. -1.
         -1   -1    0    0    0  501 -0.00000000000E+00 -0.00000000000E+00 -0.89707006021E+02  0.89707006162E+02  0.50400000000E-02 0.  1.
         24    2    1    2    0    0  0.88817841970E-15 -0.35527136788E-14 -0.71886181134E+02  0.10752783123E+03  0.79966314479E+02 0.  0.
         66    2    3    3    0    0 -0.66791103400E+01  0.13464174675E+02  0.13818911075E+02  0.20514794799E+02  0.19999969356E+01 0.  0.
        -13    1    3    3    0    0  0.66791103400E+01 -0.13464174675E+02 -0.85705092209E+02  0.87013036432E+02  0.10566000000E+00 0.  1.
         13    1    4    4    0    0 -0.16577786023E+01  0.30308972196E+01  0.32812161679E+01  0.47657225503E+01  0.10566000000E+00 0. -1.
        -13    1    4    4    0    0 -0.20863853678E+01  0.62797253054E+01  0.58990572142E+01  0.88655509624E+01  0.10566000000E+00 0.  1.
        -14    1    4    4    0    0 -0.29349463699E+01  0.41535521500E+01  0.46386376928E+01  0.68835212865E+01  0.00000000000E+00 0.  1.
<mgrwt>
<rscale>  0 0.79966314E+02</rscale>
<asrwt>0</asrwt>
<pdfrwt beam="1">  1        2 0.27416654E-02 0.79966314E+02</pdfrwt>
<pdfrwt beam="2">  1       -1 0.13801078E-01 0.79966314E+02</pdfrwt>
<totfact> 0.12140376E+05</totfact>
</mgrwt>
</event>
<event>
 8    1  0.2389776E-024  0.9010462E+02  0.7818608E-02  0.1302599E+00
         -1   -1    0    0    0  501 -0.00000000000E+00  0.00000000000E+00  0.18945464440E+01  0.18945531478E+01  0.50400000000E-02 0.  1.
          2   -1    0    0  501    0  0.00000000000E+00 -0.00000000000E+00 -0.10713418149E+04  0.10713418149E+04  0.25500000000E-02 0. -1.
         24    2    1    2    0    0  0.17763568394E-14  0.00000000000E+00 -0.10694472685E+04  0.10732363681E+04  0.90104615304E+02 0.  0.
         66    2    3    3    0    0  0.15101733341E+02  0.10772626250E+02 -0.10237140591E+04  0.10238840689E+04  0.19999998624E+01 0.  0.
        -13    1    3    3    0    0 -0.15101733341E+02 -0.10772626250E+02 -0.45733209432E+02  0.49352299189E+02  0.10566000000E+00 0.  1.
         13    1    4    4    0    0  0.70161211312E+01  0.54675812501E+01 -0.45556787452E+03  0.45565471561E+03  0.10566000000E+00 0. -1.
        -13    1    4    4    0    0  0.17181434185E+01  0.12949864232E+01 -0.14996496901E+03  0.14998043906E+03  0.10566000000E+00 0.  1.
         14    1    4    4    0    0  0.63674687918E+01  0.40100585772E+01 -0.41818121552E+03  0.41824891422E+03  0.00000000000E+00 0. -1.
<mgrwt>
<rscale>  0 0.90104615E+02</rscale>
<asrwt>0</asrwt>
<pdfrwt beam="1">  1        2 0.16482133E+00 0.90104615E+02</pdfrwt>
<pdfrwt beam="2">  1       -1 0.29147006E-03 0.90104615E+02</pdfrwt>
<totfact> 0.25852494E+05</totfact>
</mgrwt>
</event>
<event>
 8    1  0.2389776E-024  0.7858664E+02  0.7818608E-02  0.1333111E+00
         -1   -1    0    0    0  501 -0.00000000000E+00  0.00000000000E+00  0.55066596188E+01  0.55066619252E+01  0.50400000000E-02 0.  1.
          2   -1    0    0  501    0  0.00000000000E+00 -0.00000000000E+00 -0.28038132493E+03  0.28038132494E+03  0.25500000000E-02 0. -1.
         24    2    1    2    0    0  0.00000000000E+00 -0.17763568394E-14 -0.27487466531E+03  0.28588798686E+03  0.78586636299E+02 0.  0.
         66    2    3    3    0    0 -0.37804501533E+02 -0.10227794544E+02 -0.12712675656E+03  0.13303759000E+03  0.20000006495E+01 0.  0.
        -13    1    3    3    0    0  0.37804501533E+02  0.10227794544E+02 -0.14774790875E+03  0.15285039686E+03  0.10566000000E+00 0.  1.
         13    1    4    4    0    0 -0.10775195862E+02 -0.35020459198E+01 -0.34948931143E+02  0.36739734941E+02  0.10566000000E+00 0.  1.
        -13    1    4    4    0    0 -0.65678465445E+01 -0.14923088839E+01 -0.23411213792E+02  0.24361028084E+02  0.10566000000E+00 0. -1.
         14    1    4    4    0    0 -0.20461459127E+02 -0.52334397402E+01 -0.68766611628E+02  0.71936826980E+02  0.00000000000E+00 0. -1.
<mgrwt>
<rscale>  0 0.78586636E+02</rscale>
<asrwt>0</asrwt>
<pdfrwt beam="1">  1        2 0.43135577E-01 0.78586636E+02</pdfrwt>
<pdfrwt beam="2">  1       -1 0.84717880E-03 0.78586636E+02</pdfrwt>
<totfact> 0.26067713E+05</totfact>
</mgrwt>
</event>
<event>
 8    1  0.2389776E-024  0.8167474E+02  0.7818608E-02  0.1324365E+00
         -1   -1    0    0    0  501 -0.00000000000E+00  0.00000000000E+00  0.24721480199E+01  0.24721531575E+01  0.50400000000E-02 0.  1.
          2   -1    0    0  501    0  0.00000000000E+00 -0.00000000000E+00 -0.67459116873E+03  0.67459116874E+03  0.25500000000E-02 0. -1.
         24    2    1    2    0    0  0.00000000000E+00  0.00000000000E+00 -0.67211902071E+03  0.67706332190E+03  0.81674744270E+02 0.  0.
         66    2    3    3    0    0  0.12351083354E+01  0.16368493707E+02 -0.64601696644E+03  0.64622857721E+03  0.19999969716E+01 0.  0.
        -13    1    3    3    0    0 -0.12351083354E+01 -0.16368493707E+02 -0.26102054272E+02  0.30834744690E+02  0.10566000000E+00 0.  1.
         13    1    4    4    0    0  0.56915499802E+00  0.91853616640E+01 -0.36898532194E+03  0.36910008640E+03  0.10566000000E+00 0. -1.
        -13    1    4    4    0    0 -0.14019236010E+00  0.21406699739E+01 -0.65451465460E+02  0.65486698014E+02  0.10566000000E+00 0. -1.
        -14    1    4    4    0    0  0.80614569744E+00  0.50424620696E+01 -0.21158017904E+03  0.21164179279E+03  0.00000000000E+00 0.  1.
<mgrwt>
<rscale>  0 0.81674744E+02</rscale>
<asrwt>0</asrwt>
<pdfrwt beam="1">  1        2 0.10378311E+00 0.81674744E+02</pdfrwt>
<pdfrwt beam="2">  1       -1 0.38033140E-03 0.81674744E+02</pdfrwt>
<totfact> 0.31420802E+05</totfact>
</mgrwt>
</event>
<event>
 8    1  0.2389776E-024  0.7914315E+02  0.7818608E-02  0.1331501E+00
          2   -1    0    0  501    0  0.00000000000E+00  0.00000000000E+00  0.67415114390E+02  0.67415114438E+02  0.25500000000E-02 0. -1.
         -1   -1    0    0    0  501 -0.00000000000E+00 -0.00000000000E+00 -0.23227872112E+02  0.23227872659E+02  0.50400000000E-02 0.  1.
         24    2    1    2    0    0  0.17763568394E-14  0.00000000000E+00  0.44187242278E+02  0.90642987097E+02  0.79143153397E+02 0.  0.
         66    2    3    3    0    0  0.14393783554E+02 -0.17382222700E+02  0.59300677100E+02  0.63481438040E+02  0.20000000213E+01 0.  0.
        -13    1    3    3    0    0 -0.14393783554E+02  0.17382222700E+02 -0.15113434822E+02  0.27161549057E+02  0.10566000000E+00 0.  1.
         13    1    4    4    0    0  0.72654270171E+01 -0.86906058200E+01  0.30295024520E+02  0.32343666056E+02  0.10566000000E+00 0. -1.
        -13    1    4    4    0    0  0.50810164268E+01 -0.67588433599E+01  0.22987577113E+02  0.24493643197E+02  0.10566000000E+00 0.  1.
        -14    1    4    4    0    0  0.20473401103E+01 -0.19327735204E+01  0.60180754679E+01  0.66441287876E+01  0.00000000000E+00 0.  1.
<mgrwt>
<rscale>  0 0.79143153E+02</rscale>
<asrwt>0</asrwt>
<pdfrwt beam="1">  1        2 0.10371556E-01 0.79143153E+02</pdfrwt>
<pdfrwt beam="2">  1       -1 0.35735189E-02 0.79143153E+02</pdfrwt>
<totfact> 0.16473318E+05</totfact>
</mgrwt>
</event>
<event>
 8    1  0.2389776E-024  0.8000337E+02  0.7818608E-02  0.1329042E+00
          2   -1    0    0  501    0  0.00000000000E+00  0.00000000000E+00  0.67300899469E+03  0.67300899470E+03  0.25500000000E-02 0. -1.
         -1   -1    0    0    0  501 -0.00000000000E+00 -0.00000000000E+00 -0.23775802013E+01  0.23775855432E+01  0.50400000000E-02 0.  1.
         24    2    1    2    0    0  0.00000000000E+00 -0.11102230246E-15  0.67063141449E+03  0.67538658024E+03  0.80003366595E+02 0.  0.
         66    2    3    3    0    0 -0.22647933918E+02  0.64724156323E+00  0.61356985937E+03  0.61399130299E+03  0.19999954402E+01 0.  0.
        -13    1    3    3    0    0  0.22647933918E+02 -0.64724156323E+00  0.57061555122E+02  0.61395277256E+02  0.10566000000E+00 0.  1.
         13    1    4    4    0    0 -0.10029715042E+02  0.71030927365E+00  0.29521034598E+03  0.29538154862E+03  0.10566000000E+00 0. -1.
        -13    1    4    4    0    0 -0.30259015169E+01  0.18412674562E-01  0.80169027039E+02  0.80226183253E+02  0.10566000000E+00 0. -1.
         14    1    4    4    0    0 -0.95923173585E+01 -0.81480384983E-01  0.23819048635E+03  0.23838357112E+03  0.00000000000E+00 0. -1.
<mgrwt>
<rscale>  0 0.80003367E+02</rscale>
<asrwt>0</asrwt>
<pdfrwt beam="1">  1        2 0.10354004E+00 0.80003367E+02</pdfrwt>
<pdfrwt beam="2">  1       -1 0.36578131E-03 0.80003367E+02</pdfrwt>
<totfact> 0.33139197E+05</totfact>
</mgrwt>
</event>
<event>
 8    1  0.2389776E-024  0.7728690E+02  0.7818608E-02  0.1336932E+00
         -1   -1    0    0    0  501 -0.00000000000E+00  0.00000000000E+00  0.15263651587E+02  0.15263652419E+02  0.50400000000E-02 0.  1.
          2   -1    0    0  501    0  0.00000000000E+00 -0.00000000000E+00 -0.97834782433E+02  0.97834782466E+02  0.25500000000E-02 0. -1.
         24    2    1    2    0    0 -0.35527136788E-14  0.17763568394E-14 -0.82571130845E+02  0.11309843489E+03  0.77286896201E+02 0.  0.
         66    2    3    3    0    0  0.27584609214E+02 -0.15766622726E+02 -0.73434240055E+02  0.80038020565E+02  0.20000164640E+01 0.  0.
        -13    1    3    3    0    0 -0.27584609214E+02  0.15766622726E+02 -0.91368907907E+01  0.33060414320E+02  0.10566000000E+00 0.  1.
         13    1    4    4    0    0  0.96005055884E+01 -0.55469788696E+01 -0.24531931386E+02  0.26921469196E+02  0.10566000000E+00 0. -1.
        -13    1    4    4    0    0  0.12712253491E+02 -0.75582104265E+01 -0.36386814271E+02  0.39277720790E+02  0.10566000000E+00 0.  1.
        -14    1    4    4    0    0  0.52718501353E+01 -0.26614334298E+01 -0.12515494398E+02  0.13838830578E+02  0.00000000000E+00 0.  1.
<mgrwt>
<rscale>  0 0.77286896E+02</rscale>
<asrwt>0</asrwt>
<pdfrwt beam="1">  1        2 0.15051505E-01 0.77286896E+02</pdfrwt>
<pdfrwt beam="2">  1       -1 0.23482542E-02 0.77286896E+02</pdfrwt>
<totfact> 0.19321390E+05</totfact>
</mgrwt>
</event>
<event>
 8    1  0.2389776E-024  0.7930316E+02  0.7818608E-02  0.1331041E+00
          2   -1    0    0  501    0  0.00000000000E+00  0.00000000000E+00  0.17152508057E+03  0.17152508058E+03  0.25500000000E-02 0. -1.
         -1   -1    0    0    0  501 -0.00000000000E+00 -0.00000000000E+00 -0.91662853898E+01  0.91662867754E+01  0.50400000000E-02 0.  1.
         24    2    1    2    0    0 -0.17763568394E-14  0.00000000000E+00  0.16235879518E+03  0.18069136736E+03  0.79303164297E+02 0.  0.
         66    2    3    3    0    0  0.86866406194E+01  0.92317433340E+01  0.16677471862E+03  0.16726771830E+03  0.20000008068E+01 0.  0.
        -13    1    3    3    0    0 -0.86866406194E+01 -0.92317433340E+01 -0.44159234450E+01  0.13423649062E+02  0.10566000000E+00 0.  1.
         13    1    4    4    0    0  0.41262964160E+00  0.10607885420E+00  0.72143564614E+01  0.72276980521E+01  0.10566000000E+00 0. -1.
        -13    1    4    4    0    0  0.37824046859E+01  0.46003122336E+01  0.84184242334E+02  0.84394711204E+02  0.10566000000E+00 0.  1.
         14    1    4    4    0    0  0.44916062920E+01  0.45253522463E+01  0.75376119826E+02  0.75645309042E+02  0.00000000000E+00 0. -1.
<mgrwt>
<rscale>  0 0.79303164E+02</rscale>
<asrwt>0</asrwt>
<pdfrwt beam="1">  1        2 0.26388474E-01 0.79303164E+02</pdfrwt>
<pdfrwt beam="2">  1       -1 0.14101978E-02 0.79303164E+02</pdfrwt>
<totfact> 0.21421698E+05</totfact>
</mgrwt>
</event>
<event>
 8    1  0.2389776E-024  0.7842234E+02  0.7818608E-02  0.1333589E+00
         -1   -1    0    0    0  501 -0.00000000000E+00  0.00000000000E+00  0.35493067292E+01  0.35493103076E+01  0.50400000000E-02 0.  1.
          2   -1    0    0  501    0  0.00000000000E+00 -0.00000000000E+00 -0.43318747894E+03  0.43318747894E+03  0.25500000000E-02 0. -1.
         24    2    1    2    0    0 -0.44408920985E-15  0.00000000000E+00 -0.42963817221E+03  0.43673678925E+03  0.78422344190E+02 0.  0.
         66    2    3    3    0    0 -0.26144210935E+01  0.38786897851E+02 -0.24238411207E+03  0.24548995178E+03  0.19999991093E+01 0.  0.
        -13    1    3    3    0    0  0.26144210935E+01 -0.38786897851E+02 -0.18725406014E+03  0.19124683748E+03  0.10566000000E+00 0.  1.
         13    1    4    4    0    0 -0.18557440973E+01  0.20682564506E+02 -0.13256022747E+03  0.13417688822E+03  0.10566000000E+00 0. -1.
        -13    1    4    4    0    0 -0.50053834939E+00  0.14938593756E+02 -0.92634084074E+02  0.93832280258E+02  0.10566000000E+00 0.  1.
        -14    1    4    4    0    0 -0.25813864681E+00  0.31657395889E+01 -0.17189800528E+02  0.17480783303E+02  0.00000000000E+00 0.  1.
<mgrwt>
<rscale>  0 0.78422344E+02</rscale>
<asrwt>0</asrwt>
<pdfrwt beam="1">  1        2 0.66644186E-01 0.78422344E+02</pdfrwt>
<pdfrwt beam="2">  1       -1 0.54604781E-03 0.78422344E+02</pdfrwt>
<totfact> 0.30590158E+05</totfact>
</mgrwt>
</event>
<event>
 8    1  0.2389776E-024  0.8213252E+02  0.7818608E-02  0.1323106E+00
          2   -1    0    0  501    0  0.00000000000E+00  0.00000000000E+00  0.75679756363E+03  0.75679756363E+03  0.25500000000E-02 0. -1.
         -1   -1    0    0    0  501 -0.00000000000E+00 -0.00000000000E+00 -0.22283837546E+01  0.22283894541E+01  0.50400000000E-02 0.  1.
         24    2    1    2    0    0  0.00000000000E+00  0.00000000000E+00  0.75456917987E+03  0.75902595309E+03  0.82132516361E+02 0.  0.
         66    2    3    3    0    0  0.93535298134E+01 -0.26909031432E+02  0.65053796989E+03  0.65116452204E+03  0.20000007922E+01 0.  0.
        -13    1    3    3    0    0 -0.93535298134E+01  0.26909031432E+02  0.10403120998E+03  0.10786143105E+03  0.10566000000E+00 0.  1.
         13    1    4    4    0    0  0.41175878480E+01 -0.96767523147E+01  0.24538245329E+03  0.24560772303E+03  0.10566000000E+00 0. -1.
        -13    1    4    4    0    0  0.15845396144E+01 -0.44901307211E+01  0.99074812190E+02  0.99189221260E+02  0.10566000000E+00 0.  1.
         14    1    4    4    0    0  0.36514023510E+01 -0.12742148397E+02  0.30608070441E+03  0.30636757775E+03  0.00000000000E+00 0. -1.
<mgrwt>
<rscale>  0 0.82132516E+02</rscale>
<asrwt>0</asrwt>
<pdfrwt beam="1">  1        2 0.11643022E+00 0.82132516E+02</pdfrwt>
<pdfrwt beam="2">  1       -1 0.34282921E-03 0.82132516E+02</pdfrwt>
<totfact> 0.31763683E+05</totfact>
</mgrwt>
</event>
<event>
 8    1  0.2389776E-024  0.7605113E+02  0.7818608E-02  0.1340647E+00
          2   -1    0    0  501    0  0.00000000000E+00  0.00000000000E+00  0.11669637972E+03  0.11669637975E+03  0.25500000000E-02 0. -1.
         -1   -1    0    0    0  501 -0.00000000000E+00 -0.00000000000E+00 -0.12390645276E+02  0.12390646301E+02  0.50400000000E-02 0.  1.
         24    2    1    2    0    0  0.00000000000E+00  0.35527136788E-14  0.10430573444E+03  0.12908702605E+03  0.76051127910E+02 0.  0.
         66    2    3    3    0    0 -0.26261366083E+02  0.27170006303E+02  0.45384514572E+02  0.59089955352E+02  0.20000173749E+01 0.  0.
        -13    1    3    3    0    0  0.26261366083E+02 -0.27170006303E+02  0.58921219872E+02  0.69997070698E+02  0.10566000000E+00 0.  1.
         13    1    4    4    0    0 -0.45718206724E+01  0.50588783227E+01  0.88146476212E+01  0.11144638660E+02  0.10566000000E+00 0. -1.
        -13    1    4    4    0    0 -0.33310504005E+01  0.27477226848E+01  0.53708867310E+01  0.68922757516E+01  0.10566000000E+00 0.  1.
         14    1    4    4    0    0 -0.18358495010E+02  0.19363405296E+02  0.31198980220E+02  0.41053040940E+02  0.00000000000E+00 0. -1.
<mgrwt>
<rscale>  0 0.76051128E+02</rscale>
<asrwt>0</asrwt>
<pdfrwt beam="1">  1        2 0.17953289E-01 0.76051128E+02</pdfrwt>
<pdfrwt beam="2">  1       -1 0.19062532E-02 0.76051128E+02</pdfrwt>
<totfact> 0.21203895E+05</totfact>
</mgrwt>
</event>
<event>
 8    1  0.2389776E-024  0.7948998E+02  0.7818608E-02  0.1330505E+00
          2   -1    0    0  501    0  0.00000000000E+00  0.00000000000E+00  0.11260203543E+03  0.11260203545E+03  0.25500000000E-02 0. -1.
         -1   -1    0    0    0  501 -0.00000000000E+00 -0.00000000000E+00 -0.14028734908E+02  0.14028735813E+02  0.50400000000E-02 0.  1.
         24    2    1    2    0    0  0.71054273576E-14  0.17763568394E-14  0.98573300518E+02  0.12663077127E+03  0.79489978343E+02 0.  0.
         66    2    3    3    0    0  0.30525841789E+02  0.14678989122E+02  0.16269964072E+02  0.37629928054E+02  0.20000039736E+01 0.  0.
        -13    1    3    3    0    0 -0.30525841789E+02 -0.14678989122E+02  0.82303336446E+02  0.89000843214E+02  0.10566000000E+00 0.  1.
         13    1    4    4    0    0  0.49272984628E+01  0.16960466118E+01  0.23180212275E+01  0.57043168476E+01  0.10566000000E+00 0. -1.
        -13    1    4    4    0    0  0.54400691255E+01  0.31395795483E+01  0.31181617795E+01  0.70132309779E+01  0.10566000000E+00 0.  1.
         14    1    4    4    0    0  0.20158474201E+02  0.98433629622E+01  0.10833781065E+02  0.24912380229E+02  0.00000000000E+00 0. -1.
<mgrwt>
<rscale>  0 0.79489978E+02</rscale>
<asrwt>0</asrwt>
<pdfrwt beam="1">  1        2 0.17323391E-01 0.79489978E+02</pdfrwt>
<pdfrwt beam="2">  1       -1 0.21582669E-02 0.79489978E+02</pdfrwt>
<totfact> 0.18654017E+05</totfact>
</mgrwt>
</event>
<event>
 8    1  0.2389776E-024  0.8133256E+02  0.7818608E-02  0.1325312E+00
          2   -1    0    0  501    0  0.00000000000E+00  0.00000000000E+00  0.28688711130E+02  0.28688711243E+02  0.25500000000E-02 0. -1.
         -1   -1    0    0    0  501 -0.00000000000E+00 -0.00000000000E+00 -0.57644492208E+02  0.57644492428E+02  0.50400000000E-02 0.  1.
         24    2    1    2    0    0  0.35527136788E-14  0.00000000000E+00 -0.28955781078E+02  0.86333203672E+02  0.81332556817E+02 0.  0.
         66    2    3    3    0    0 -0.23971736449E+02  0.78171480161E+01  0.19347741362E+02  0.31844733372E+02  0.19999990532E+01 0.  0.
        -13    1    3    3    0    0  0.23971736449E+02 -0.78171480161E+01 -0.48303522440E+02  0.54488470300E+02  0.10566000000E+00 0.  1.
         13    1    4    4    0    0 -0.82072459912E+01  0.21246118664E+01  0.56011333747E+01  0.10161531452E+02  0.10566000000E+00 0. -1.
        -13    1    4    4    0    0 -0.12449355672E+02  0.45488984459E+01  0.11124080481E+02  0.17304197881E+02  0.10566000000E+00 0.  1.
         14    1    4    4    0    0 -0.33151347857E+01  0.11436377038E+01  0.26225275064E+01  0.43790040382E+01  0.00000000000E+00 0. -1.
<mgrwt>
<rscale>  0 0.81332557E+02</rscale>
<asrwt>0</asrwt>
<pdfrwt beam="1">  1        2 0.44136479E-02 0.81332557E+02</pdfrwt>
<pdfrwt beam="2">  1       -1 0.88683834E-02 0.81332557E+02</pdfrwt>
<totfact> 0.12731473E+05</totfact>
</mgrwt>
</event>
<event>
 8    1  0.2389776E-024  0.7942521E+02  0.7818608E-02  0.1330691E+00
         -1   -1    0    0    0  501 -0.00000000000E+00  0.00000000000E+00  0.56757372101E+01  0.56757394478E+01  0.50400000000E-02 0.  1.
          2   -1    0    0  501    0  0.00000000000E+00 -0.00000000000E+00 -0.27786532077E+03  0.27786532078E+03  0.25500000000E-02 0. -1.
         24    2    1    2    0    0  0.00000000000E+00  0.35527136788E-14 -0.27218958356E+03  0.28354106023E+03  0.79425206563E+02 0.  0.
         66    2    3    3    0    0 -0.24038058166E+02 -0.31268816361E+02 -0.12040894247E+03  0.12671969277E+03  0.19999982172E+01 0.  0.
        -13    1    3    3    0    0  0.24038058166E+02  0.31268816361E+02 -0.15178064109E+03  0.15682136746E+03  0.10566000000E+00 0.  1.
         13    1    4    4    0    0 -0.61405909569E+01 -0.72514946412E+01 -0.30507249831E+02  0.31953004368E+02  0.10566000000E+00 0. -1.
        -13    1    4    4    0    0 -0.61511350490E+01 -0.74695143292E+01 -0.28340230033E+02  0.29946784620E+02  0.10566000000E+00 0.  1.
        -14    1    4    4    0    0 -0.11746332160E+02 -0.16547807391E+02 -0.61561462605E+02  0.64819903785E+02  0.00000000000E+00 0.  1.
<mgrwt>
<rscale>  0 0.79425207E+02</rscale>
<asrwt>0</asrwt>
<pdfrwt beam="1">  1        2 0.42748500E-01 0.79425207E+02</pdfrwt>
<pdfrwt beam="2">  1       -1 0.87319073E-03 0.79425207E+02</pdfrwt>
<totfact> 0.25269924E+05</totfact>
</mgrwt>
</event>
<event>
 8    1  0.2389776E-024  0.7890380E+02  0.7818608E-02  0.1332191E+00
         -1   -1    0    0    0  501 -0.00000000000E+00  0.00000000000E+00  0.48248401699E+01  0.48248428022E+01  0.50400000000E-02 0.  1.
          2   -1    0    0  501    0  0.00000000000E+00 -0.00000000000E+00 -0.32259140399E+03  0.32259140400E+03  0.25500000000E-02 0. -1.
         24    2    1    2    0    0  0.00000000000E+00  0.00000000000E+00 -0.31776656382E+03  0.32741624680E+03  0.78903799580E+02 0.  0.
         66    2    3    3    0    0 -0.12091136408E+02  0.17522286696E+02 -0.29668687786E+03  0.29745643314E+03  0.20000023231E+01 0.  0.
        -13    1    3    3    0    0  0.12091136408E+02 -0.17522286696E+02 -0.21079685961E+02  0.29959813666E+02  0.10566000000E+00 0.  1.
         13    1    4    4    0    0 -0.46364100580E+01  0.72771794554E+01 -0.11699538611E+03  0.11731319267E+03  0.10566000000E+00 0. -1.
        -13    1    4    4    0    0 -0.59437918485E+01  0.86044195168E+01 -0.14082740733E+03  0.14121520639E+03  0.10566000000E+00 0. -1.
         14    1    4    4    0    0 -0.15109345014E+01  0.16406877236E+01 -0.38864084418E+02  0.38928034075E+02  0.00000000000E+00 0. -1.
<mgrwt>
<rscale>  0 0.78903800E+02</rscale>
<asrwt>0</asrwt>
<pdfrwt beam="1">  1        2 0.49629430E-01 0.78903800E+02</pdfrwt>
<pdfrwt beam="2">  1       -1 0.74228356E-03 0.78903800E+02</pdfrwt>
<totfact> 0.27134695E+05</totfact>
</mgrwt>
</event>
<event>
 8    1  0.2389776E-024  0.8135250E+02  0.7818608E-02  0.1325256E+00
          2   -1    0    0  501    0  0.00000000000E+00  0.00000000000E+00  0.58285207998E+02  0.58285208054E+02  0.25500000000E-02 0. -1.
         -1   -1    0    0    0  501 -0.00000000000E+00 -0.00000000000E+00 -0.28387255477E+02  0.28387255924E+02  0.50400000000E-02 0.  1.
         24    2    1    2    0    0 -0.35527136788E-14 -0.44408920985E-15  0.29897952521E+02  0.86672463978E+02  0.81352495027E+02 0.  0.
         66    2    3    3    0    0 -0.30426791155E+02 -0.32787706788E+01  0.43466230213E+02  0.53196363836E+02  0.19999998190E+01 0.  0.
        -13    1    3    3    0    0  0.30426791155E+02  0.32787706788E+01 -0.13568277692E+02  0.33476100142E+02  0.10566000000E+00 0.  1.
         13    1    4    4    0    0 -0.13342283380E+02 -0.15299124012E+01  0.18357095802E+02  0.22745357506E+02  0.10566000000E+00 0. -1.
        -13    1    4    4    0    0 -0.24987179482E+01 -0.58756538786E+00  0.31719304135E+01  0.40818048770E+01  0.10566000000E+00 0.  1.
        -14    1    4    4    0    0 -0.14585789826E+02 -0.11612928898E+01  0.21937203998E+02  0.26369201453E+02  0.00000000000E+00 0.  1.
<mgrwt>
<rscale>  0 0.81352495E+02</rscale>
<asrwt>0</asrwt>
<pdfrwt beam="1">  1        2 0.89669551E-02 0.81352495E+02</pdfrwt>
<pdfrwt beam="2">  1       -1 0.43672701E-02 0.81352495E+02</pdfrwt>
<totfact> 0.14771811E+05</totfact>
</mgrwt>
</event>
<event>
 8    1  0.2389776E-024  0.8054857E+02  0.7818608E-02  0.1327502E+00
          2   -1    0    0  501    0  0.00000000000E+00  0.00000000000E+00  0.80718686169E+02  0.80718686210E+02  0.25500000000E-02 0. -1.
         -1   -1    0    0    0  501 -0.00000000000E+00 -0.00000000000E+00 -0.20094704073E+02  0.20094704705E+02  0.50400000000E-02 0.  1.
         24    2    1    2    0    0 -0.17763568394E-14  0.35527136788E-14  0.60623982097E+02  0.10081339091E+03  0.80548572814E+02 0.  0.
         66    2    3    3    0    0 -0.12848905554E+02  0.16423673584E+02  0.73418280874E+02  0.76348381755E+02  0.20000005306E+01 0.  0.
        -13    1    3    3    0    0  0.12848905554E+02 -0.16423673584E+02 -0.12794298777E+02  0.24465009160E+02  0.10566000000E+00 0.  1.
         13    1    4    4    0    0 -0.36945896110E+01  0.58419713938E+01  0.22789540269E+02  0.23814972851E+02  0.10566000000E+00 0. -1.
        -13    1    4    4    0    0 -0.35217161729E+01  0.42149761909E+01  0.21368452404E+02  0.22063327747E+02  0.10566000000E+00 0.  1.
         14    1    4    4    0    0 -0.56325997698E+01  0.63667259997E+01  0.29260288201E+02  0.30470081158E+02  0.00000000000E+00 0. -1.
<mgrwt>
<rscale>  0 0.80548573E+02</rscale>
<asrwt>0</asrwt>
<pdfrwt beam="1">  1        2 0.12418259E-01 0.80548573E+02</pdfrwt>
<pdfrwt beam="2">  1       -1 0.30914930E-02 0.80548573E+02</pdfrwt>
<totfact> 0.16428598E+05</totfact>
</mgrwt>
</event>
<event>
 8    1  0.2389776E-024  0.8052575E+02  0.7818608E-02  0.1327566E+00
          2   -1    0    0  501    0  0.00000000000E+00  0.00000000000E+00  0.18224961311E+02  0.18224961489E+02  0.25500000000E-02 0. -1.
         -1   -1    0    0    0  501 -0.00000000000E+00 -0.00000000000E+00 -0.88949375025E+02  0.88949375168E+02  0.50400000000E-02 0.  1.
         24    2    1    2    0    0 -0.35527136788E-14  0.00000000000E+00 -0.70724413714E+02  0.10717433666E+03  0.80525745837E+02 0.  0.
         66    2    3    3    0    0 -0.23661516433E+02  0.32285700082E+02 -0.29919003009E+02  0.50013803974E+02  0.20000143082E+01 0.  0.
        -13    1    3    3    0    0  0.23661516433E+02 -0.32285700082E+02 -0.40805410705E+02  0.57160532682E+02  0.10566000000E+00 0.  1.
         13    1    4    4    0    0 -0.71352605723E+01  0.10036645754E+02 -0.92892787386E+01  0.15425565304E+02  0.10566000000E+00 0. -1.
        -13    1    4    4    0    0 -0.98973934703E+00  0.19893669083E+01 -0.18682825261E+01  0.29049627026E+01  0.10566000000E+00 0.  1.
         14    1    4    4    0    0 -0.15536516513E+02  0.20259687420E+02 -0.18761441744E+02  0.31683275968E+02  0.00000000000E+00 0. -1.
<mgrwt>
<rscale>  0 0.80525746E+02</rscale>
<asrwt>0</asrwt>
<pdfrwt beam="1">  1        2 0.28038403E-02 0.80525746E+02</pdfrwt>
<pdfrwt beam="2">  1       -1 0.13684519E-01 0.80525746E+02</pdfrwt>
<totfact> 0.11953331E+05</totfact>
</mgrwt>
</event>
<event>
 8    1  0.2389776E-024  0.8084501E+02  0.7818608E-02  0.1326670E+00
          2   -1    0    0  501    0  0.00000000000E+00  0.00000000000E+00  0.92216103747E+02  0.92216103782E+02  0.25500000000E-02 0. -1.
         -1   -1    0    0    0  501 -0.00000000000E+00 -0.00000000000E+00 -0.17719016750E+02  0.17719017466E+02  0.50400000000E-02 0.  1.
         24    2    1    2    0    0  0.00000000000E+00  0.88817841970E-15  0.74497086997E+02  0.10993512125E+03  0.80845005491E+02 0.  0.
         66    2    3    3    0    0  0.27762438176E+02  0.70888946004E+01  0.75995722418E+02  0.81242570433E+02  0.20000061555E+01 0.  0.
        -13    1    3    3    0    0 -0.27762438176E+02 -0.70888946004E+01 -0.14986354208E+01  0.28692550815E+02  0.10566000000E+00 0.  1.
         13    1    4    4    0    0  0.22947071183E+02  0.56973688306E+01  0.62005255802E+02  0.66360311923E+02  0.10566000000E+00 0. -1.
        -13    1    4    4    0    0  0.22225614798E+01  0.51870160491E+00  0.74563383845E+01  0.77985240287E+01  0.10566000000E+00 0.  1.
         14    1    4    4    0    0  0.25928055127E+01  0.87282416496E+00  0.65341282319E+01  0.70837344812E+01  0.00000000000E+00 0. -1.
<mgrwt>
<rscale>  0 0.80845005E+02</rscale>
<asrwt>0</asrwt>
<pdfrwt beam="1">  1        2 0.14187093E-01 0.80845005E+02</pdfrwt>
<pdfrwt beam="2">  1       -1 0.27260027E-02 0.80845005E+02</pdfrwt>
<totfact> 0.16851841E+05</totfact>
</mgrwt>
</event>
<event>
 8    1  0.2389776E-024  0.8111935E+02  0.7818608E-02  0.1325905E+00
         -1   -1    0    0    0  501 -0.00000000000E+00  0.00000000000E+00  0.33783915431E+01  0.33783953025E+01  0.50400000000E-02 0.  1.
          2   -1    0    0  501    0  0.00000000000E+00 -0.00000000000E+00 -0.48694370823E+03  0.48694370823E+03  0.25500000000E-02 0. -1.
         24    2    1    2    0    0 -0.17763568394E-14  0.00000000000E+00 -0.48356531668E+03  0.49032210354E+03  0.81119354759E+02 0.  0.
         66    2    3    3    0    0  0.11944463970E+02  0.35662429118E+02 -0.33331914355E+03  0.33544020409E+03  0.19999985166E+01 0.  0.
        -13    1    3    3    0    0 -0.11944463970E+02 -0.35662429118E+02 -0.15024617314E+03  0.15488189945E+03  0.10566000000E+00 0.  1.
         13    1    4    4    0    0  0.11363833008E+01  0.36113038879E+01 -0.31991929500E+02  0.32215331753E+02  0.10566000000E+00 0. -1.
        -13    1    4    4    0    0  0.64368056417E+00  0.24586398608E+01 -0.26720561712E+02  0.26841363916E+02  0.10566000000E+00 0.  1.
         14    1    4    4    0    0  0.10164400105E+02  0.29592485369E+02 -0.27460665234E+03  0.27638350842E+03  0.00000000000E+00 0. -1.
<mgrwt>
<rscale>  0 0.81119355E+02</rscale>
<asrwt>0</asrwt>
<pdfrwt beam="1">  1        2 0.74914361E-01 0.81119355E+02</pdfrwt>
<pdfrwt beam="2">  1       -1 0.51975322E-03 0.81119355E+02</pdfrwt>
<totfact> 0.29118941E+05</totfact>
</mgrwt>
</event>
<event>
 8    1  0.2389776E-024  0.7289795E+02  0.7818608E-02  0.1350507E+00
         -1   -1    0    0    0  501 -0.00000000000E+00  0.00000000000E+00  0.36280574558E+03  0.36280574562E+03  0.50400000000E-02 0.  1.
          2   -1    0    0  501    0  0.00000000000E+00 -0.00000000000E+00 -0.36618155058E+01  0.36618163937E+01  0.25500000000E-02 0. -1.
         24    2    1    2    0    0  0.71054273576E-14  0.17763568394E-14  0.35914393008E+03  0.36646756201E+03  0.72897952616E+02 0.  0.
         66    2    3    3    0    0 -0.33121823790E+02 -0.13879776111E+02  0.21021097897E+03  0.21326593511E+03  0.20000005888E+01 0.  0.
        -13    1    3    3    0    0  0.33121823790E+02  0.13879776111E+02  0.14893295110E+03  0.15320162690E+03  0.10566000000E+00 0.  1.
         13    1    4    4    0    0 -0.10255242474E+01 -0.28789750593E+00  0.56849178479E+01  0.57848111403E+01  0.10566000000E+00 0. -1.
        -13    1    4    4    0    0 -0.55444538040E+01 -0.25698719611E+01  0.32592682127E+02  0.33160809733E+02  0.10566000000E+00 0.  1.
         14    1    4    4    0    0 -0.26551845739E+02 -0.11022006644E+02  0.17193337900E+03  0.17432031424E+03  0.00000000000E+00 0. -1.
<mgrwt>
<rscale>  0 0.72897953E+02</rscale>
<asrwt>0</asrwt>
<pdfrwt beam="1">  1        2 0.56335630E-03 0.72897953E+02</pdfrwt>
<pdfrwt beam="2">  1       -1 0.55816269E-01 0.72897953E+02</pdfrwt>
<totfact> 0.10092309E+05</totfact>
</mgrwt>
</event>
<event>
 8    1  0.2389776E-024  0.8078418E+02  0.7818608E-02  0.1326841E+00
         -1   -1    0    0    0  501 -0.00000000000E+00  0.00000000000E+00  0.20038065422E+01  0.20038128805E+01  0.50400000000E-02 0.  1.
          2   -1    0    0  501    0  0.00000000000E+00 -0.00000000000E+00 -0.81420950605E+03  0.81420950606E+03  0.25500000000E-02 0. -1.
         24    2    1    2    0    0  0.00000000000E+00  0.71054273576E-14 -0.81220569951E+03  0.81621331894E+03  0.80784179720E+02 0.  0.
         66    2    3    3    0    0  0.93706447520E+01  0.33389951335E+02 -0.61508774990E+03  0.61606788418E+03  0.20000005675E+01 0.  0.
        -13    1    3    3    0    0 -0.93706447520E+01 -0.33389951335E+02 -0.19711794961E+03  0.20014543476E+03  0.10566000000E+00 0.  1.
         13    1    4    4    0    0  0.44746742267E+01  0.12918704642E+02 -0.24819233067E+03  0.24856862192E+03  0.10566000000E+00 0. -1.
        -13    1    4    4    0    0  0.22415149354E+00  0.13547339712E+01 -0.25330913453E+02  0.25368324510E+02  0.10566000000E+00 0.  1.
        -14    1    4    4    0    0  0.46718190318E+01  0.19116512721E+02 -0.34156450578E+03  0.34213093774E+03  0.00000000000E+00 0.  1.
<mgrwt>
<rscale>  0 0.80784180E+02</rscale>
<asrwt>0</asrwt>
<pdfrwt beam="1">  1        2 0.12526274E+00 0.80784180E+02</pdfrwt>
<pdfrwt beam="2">  1       -1 0.30827907E-03 0.80784180E+02</pdfrwt>
<totfact> 0.33604806E+05</totfact>
</mgrwt>
</event>
<event>
 8    1  0.2389776E-024  0.8142434E+02  0.7818608E-02  0.1325057E+00
         -1   -1    0    0    0  501 -0.00000000000E+00  0.00000000000E+00  0.59919097721E+01  0.59919118917E+01  0.50400000000E-02 0.  1.
          2   -1    0    0  501    0  0.00000000000E+00 -0.00000000000E+00 -0.27661970728E+03  0.27661970729E+03  0.25500000000E-02 0. -1.
         24    2    1    2    0    0 -0.17763568394E-14  0.00000000000E+00 -0.27062779751E+03  0.28261161918E+03  0.81424336125E+02 0.  0.
         66    2    3    3    0    0 -0.11253504946E+02 -0.13852205236E+02 -0.26230461859E+03  0.26291869063E+03  0.19999968660E+01 0.  0.
        -13    1    3    3    0    0  0.11253504946E+02  0.13852205236E+02 -0.83231789162E+01  0.19692928548E+02  0.10566000000E+00 0.  1.
         13    1    4    4    0    0 -0.10771452178E+01 -0.18550916505E+01 -0.24634952411E+02  0.24728397667E+02  0.10566000000E+00 0.  1.
        -13    1    4    4    0    0 -0.17325202237E+01 -0.19479806257E+01 -0.37195739716E+02  0.37287135475E+02  0.10566000000E+00 0.  1.
         14    1    4    4    0    0 -0.84438395049E+01 -0.10049132960E+02 -0.20047392646E+03  0.20090315749E+03  0.00000000000E+00 0. -1.
<mgrwt>
<rscale>  0 0.81424336E+02</rscale>
<asrwt>0</asrwt>
<pdfrwt beam="1">  1        2 0.42556868E-01 0.81424336E+02</pdfrwt>
<pdfrwt beam="2">  1       -1 0.92183265E-03 0.81424336E+02</pdfrwt>
<totfact> 0.23634476E+05</totfact>
</mgrwt>
</event>
<event>
 8    1  0.2389776E-024  0.7954276E+02  0.7818608E-02  0.1330354E+00
          2   -1    0    0  501    0  0.00000000000E+00  0.00000000000E+00  0.84286807150E+02  0.84286807189E+02  0.25500000000E-02 0. -1.
         -1   -1    0    0    0  501 -0.00000000000E+00 -0.00000000000E+00 -0.18766433312E+02  0.18766433988E+02  0.50400000000E-02 0.  1.
         24    2    1    2    0    0 -0.35527136788E-14  0.00000000000E+00  0.65520373839E+02  0.10305324118E+03  0.79542762896E+02 0.  0.
         66    2    3    3    0    0 -0.31362901449E+02 -0.26459285905E+00  0.64411234219E+02  0.71669440398E+02  0.19999991575E+01 0.  0.
        -13    1    3    3    0    0  0.31362901449E+02  0.26459285905E+00  0.11091396196E+01  0.31383800780E+02  0.10566000000E+00 0.  1.
         13    1    4    4    0    0 -0.45687528364E+01  0.51976957203E+00  0.10178800692E+02  0.11169727412E+02  0.10566000000E+00 0. -1.
        -13    1    4    4    0    0 -0.19245654631E+02 -0.76669732765E+00  0.38404803214E+02  0.42964207439E+02  0.10566000000E+00 0.  1.
        -14    1    4    4    0    0 -0.75484939813E+01 -0.17665103428E-01  0.15827630313E+02  0.17535505546E+02  0.00000000000E+00 0.  1.
<mgrwt>
<rscale>  0 0.79542763E+02</rscale>
<asrwt>0</asrwt>
<pdfrwt beam="1">  1        2 0.12967201E-01 0.79542763E+02</pdfrwt>
<pdfrwt beam="2">  1       -1 0.28871437E-02 0.79542763E+02</pdfrwt>
<totfact> 0.17186340E+05</totfact>
</mgrwt>
</event>
<event>
 8    1  0.2389776E-024  0.7956568E+02  0.7818608E-02  0.1330289E+00
         -1   -1    0    0    0  501 -0.00000000000E+00  0.00000000000E+00  0.19491068120E+01  0.19491133282E+01  0.50400000000E-02 0.  1.
          2   -1    0    0  501    0  0.00000000000E+00 -0.00000000000E+00 -0.81199844554E+03  0.81199844554E+03  0.25500000000E-02 0. -1.
         24    2    1    2    0    0  0.00000000000E+00  0.00000000000E+00 -0.81004933873E+03  0.81394755887E+03  0.79565679914E+02 0.  0.
         66    2    3    3    0    0 -0.32443947854E+02  0.56502462974E+01 -0.63314102556E+03  0.63400007357E+03  0.20000001306E+01 0.  0.
        -13    1    3    3    0    0  0.32443947854E+02 -0.56502462974E+01 -0.17690831317E+03  0.17994748531E+03  0.10566000000E+00 0.  1.
         13    1    4    4    0    0 -0.14847310234E+02  0.31479640938E+01 -0.29589812400E+03  0.29628712974E+03  0.10566000000E+00 0. -1.
        -13    1    4    4    0    0 -0.97763008599E+01  0.16267975515E+01 -0.19785209685E+03  0.19810019162E+03  0.10566000000E+00 0.  1.
        -14    1    4    4    0    0 -0.78203367606E+01  0.87548465213E+00 -0.13939080471E+03  0.13961275221E+03  0.00000000000E+00 0.  1.
<mgrwt>
<rscale>  0 0.79565680E+02</rscale>
<asrwt>0</asrwt>
<pdfrwt beam="1">  1        2 0.12492257E+00 0.79565680E+02</pdfrwt>
<pdfrwt beam="2">  1       -1 0.29986374E-03 0.79565680E+02</pdfrwt>
<totfact> 0.34942619E+05</totfact>
</mgrwt>
</event>
<event>
 8    1  0.2389776E-024  0.7959822E+02  0.7818608E-02  0.1330196E+00
         -1   -1    0    0    0  501 -0.00000000000E+00  0.00000000000E+00  0.62648710160E+02  0.62648710363E+02  0.50400000000E-02 0.  1.
          2   -1    0    0  501    0  0.00000000000E+00 -0.00000000000E+00 -0.25283348509E+02  0.25283348638E+02  0.25500000000E-02 0. -1.
         24    2    1    2    0    0  0.00000000000E+00  0.00000000000E+00  0.37365361651E+02  0.87932059001E+02  0.79598220764E+02 0.  0.
         66    2    3    3    0    0  0.52119889175E+01 -0.19184934184E+02 -0.19361392037E+02  0.27822473441E+02  0.19999996598E+01 0.  0.
        -13    1    3    3    0    0 -0.52119889175E+01  0.19184934184E+02  0.56726753689E+02  0.60109585560E+02  0.10566000000E+00 0.  1.
         13    1    4    4    0    0  0.21888408852E+01 -0.67260364145E+01 -0.75510451708E+01  0.10346982047E+02  0.10566000000E+00 0. -1.
        -13    1    4    4    0    0  0.31325576103E+01 -0.11787155716E+02 -0.11096475369E+02  0.16489174834E+02  0.10566000000E+00 0.  1.
        -14    1    4    4    0    0 -0.10940957802E+00 -0.67174205297E+00 -0.71387149770E+00  0.98631656010E+00  0.00000000000E+00 0.  1.
<mgrwt>
<rscale>  0 0.79598221E+02</rscale>
<asrwt>0</asrwt>
<pdfrwt beam="1">  1        2 0.38897460E-02 0.79598221E+02</pdfrwt>
<pdfrwt beam="2">  1       -1 0.96382630E-02 0.79598221E+02</pdfrwt>
<totfact> 0.13195871E+05</totfact>
</mgrwt>
</event>
<event>
 8    1  0.2389776E-024  0.8269776E+02  0.7818608E-02  0.1321565E+00
          2   -1    0    0  501    0  0.00000000000E+00  0.00000000000E+00  0.51847838718E+03  0.51847838718E+03  0.25500000000E-02 0. -1.
         -1   -1    0    0    0  501 -0.00000000000E+00 -0.00000000000E+00 -0.32975896956E+01  0.32975935472E+01  0.50400000000E-02 0.  1.
         24    2    1    2    0    0  0.00000000000E+00  0.35527136788E-14  0.51518079748E+03  0.52177598073E+03  0.82697762809E+02 0.  0.
         66    2    3    3    0    0 -0.13400908840E+02  0.20432536085E+02  0.46801162226E+03  0.46865333825E+03  0.19999994539E+01 0.  0.
        -13    1    3    3    0    0  0.13400908840E+02 -0.20432536085E+02  0.47169175226E+02  0.53122642481E+02  0.10566000000E+00 0.  1.
         13    1    4    4    0    0 -0.20291746512E+01  0.22191084034E+01  0.57821581171E+02  0.57899813515E+02  0.10566000000E+00 0. -1.
        -13    1    4    4    0    0 -0.10155251603E+02  0.16622323318E+02  0.37740203562E+03  0.37790440381E+03  0.10566000000E+00 0.  1.
        -14    1    4    4    0    0 -0.12164825853E+01  0.15911043639E+01  0.32788005469E+02  0.32849120926E+02  0.00000000000E+00 0.  1.
<mgrwt>
<rscale>  0 0.82697763E+02</rscale>
<asrwt>0</asrwt>
<pdfrwt beam="1">  1        2 0.79765916E-01 0.82697763E+02</pdfrwt>
<pdfrwt beam="2">  1       -1 0.50732172E-03 0.82697763E+02</pdfrwt>
<totfact> 0.28247943E+05</totfact>
</mgrwt>
</event>
<event>
 8    1  0.2389776E-024  0.7936430E+02  0.7818608E-02  0.1330865E+00
          2   -1    0    0  501    0  0.00000000000E+00  0.00000000000E+00  0.39958517719E+02  0.39958517801E+02  0.25500000000E-02 0. -1.
         -1   -1    0    0    0  501 -0.00000000000E+00 -0.00000000000E+00 -0.39407695327E+02  0.39407695650E+02  0.50400000000E-02 0.  1.
         24    2    1    2    0    0  0.00000000000E+00  0.00000000000E+00  0.55082239190E+00  0.79366213451E+02  0.79364302001E+02 0.  0.
         66    2    3    3    0    0 -0.31594931439E+02 -0.44586722030E+01  0.23825010656E+02  0.39871676437E+02  0.19999996673E+01 0.  0.
        -13    1    3    3    0    0  0.31594931439E+02  0.44586722030E+01 -0.23274188264E+02  0.39494537013E+02  0.10566000000E+00 0.  1.
         13    1    4    4    0    0 -0.16787856335E+02 -0.20390781137E+01  0.13091860057E+02  0.21386863344E+02  0.10566000000E+00 0. -1.
        -13    1    4    4    0    0 -0.25307572341E+01 -0.79231989230E-01  0.14802254209E+01  0.29348324003E+01  0.10566000000E+00 0.  1.
         14    1    4    4    0    0 -0.12276317870E+02 -0.23403621000E+01  0.92529251782E+01  0.15549980693E+02  0.00000000000E+00 0. -1.
<mgrwt>
<rscale>  0 0.79364302E+02</rscale>
<asrwt>0</asrwt>
<pdfrwt beam="1">  1        2 0.61474643E-02 0.79364302E+02</pdfrwt>
<pdfrwt beam="2">  1       -1 0.60627224E-02 0.79364302E+02</pdfrwt>
<totfact> 0.14569843E+05</totfact>
</mgrwt>
</event>
<event>
 8    1  0.2389776E-024  0.8141529E+02  0.7818608E-02  0.1325082E+00
         -1   -1    0    0    0  501 -0.00000000000E+00  0.00000000000E+00  0.52762957776E+03  0.52762957779E+03  0.50400000000E-02 0.  1.
          2   -1    0    0  501    0  0.00000000000E+00 -0.00000000000E+00 -0.31406730616E+01  0.31406740969E+01  0.25500000000E-02 0. -1.
         24    2    1    2    0    0  0.00000000000E+00  0.35527136788E-14  0.52448890470E+03  0.53077025189E+03  0.81415288061E+02 0.  0.
         66    2    3    3    0    0 -0.31198927631E+02  0.19006805600E+02  0.37910957719E+03  0.38087097979E+03  0.19999949479E+01 0.  0.
        -13    1    3    3    0    0  0.31198927631E+02 -0.19006805600E+02  0.14537932751E+03  0.14989927210E+03  0.10566000000E+00 0.  1.
         13    1    4    4    0    0 -0.77675812848E+00  0.50714490462E+00  0.10301834238E+02  0.10344056353E+02  0.10566000000E+00 0.  1.
        -13    1    4    4    0    0 -0.35637943011E+01  0.26973299265E+01  0.50407270647E+02  0.50605141208E+02  0.10566000000E+00 0.  1.
         14    1    4    4    0    0 -0.26858375202E+02  0.15802330769E+02  0.31840047231E+03  0.31992178223E+03  0.00000000000E+00 0. -1.
<mgrwt>
<rscale>  0 0.81415288E+02</rscale>
<asrwt>0</asrwt>
<pdfrwt beam="1">  1        2 0.48318115E-03 0.81415288E+02</pdfrwt>
<pdfrwt beam="2">  1       -1 0.81173680E-01 0.81415288E+02</pdfrwt>
<totfact> 0.61676130E+04</totfact>
</mgrwt>
</event>
<event>
 8    1  0.2389776E-024  0.8016204E+02  0.7818608E-02  0.1328592E+00
          2   -1    0    0  501    0  0.00000000000E+00  0.00000000000E+00  0.37916049020E+03  0.37916049021E+03  0.25500000000E-02 0. -1.
         -1   -1    0    0    0  501 -0.00000000000E+00 -0.00000000000E+00 -0.42369593691E+01  0.42369623667E+01  0.50400000000E-02 0.  1.
         24    2    1    2    0    0  0.00000000000E+00  0.17763568394E-14  0.37492353083E+03  0.38339745258E+03  0.80162040085E+02 0.  0.
         66    2    3    3    0    0 -0.36814929019E+02  0.90257816494E+01  0.24951088664E+03  0.25238162826E+03  0.20000000533E+01 0.  0.
        -13    1    3    3    0    0  0.36814929019E+02 -0.90257816494E+01  0.12541264420E+03  0.13101582432E+03  0.10566000000E+00 0.  1.
         13    1    4    4    0    0 -0.20310115539E+02  0.44711635729E+01  0.13367812307E+03  0.13528615542E+03  0.10566000000E+00 0. -1.
        -13    1    4    4    0    0 -0.13695223996E+02  0.34236572787E+01  0.96341682498E+02  0.97370485980E+02  0.10566000000E+00 0.  1.
        -14    1    4    4    0    0 -0.28095894838E+01  0.11309607978E+01  0.19491081066E+02  0.19724986857E+02  0.00000000000E+00 0.  1.
<mgrwt>
<rscale>  0 0.80162040E+02</rscale>
<asrwt>0</asrwt>
<pdfrwt beam="1">  1        2 0.58332416E-01 0.80162040E+02</pdfrwt>
<pdfrwt beam="2">  1       -1 0.65183977E-03 0.80162040E+02</pdfrwt>
<totfact> 0.27580330E+05</totfact>
</mgrwt>
</event>
<event>
 8    1  0.2389776E-024  0.7506620E+02  0.7818608E-02  0.1343666E+00
          2   -1    0    0  501    0  0.00000000000E+00  0.00000000000E+00  0.83986755937E+01  0.83986759808E+01  0.25500000000E-02 0. -1.
         -1   -1    0    0    0  501 -0.00000000000E+00 -0.00000000000E+00 -0.16773280798E+03  0.16773280806E+03  0.50400000000E-02 0.  1.
         24    2    1    2    0    0  0.35527136788E-14  0.00000000000E+00 -0.15933413239E+03  0.17613148404E+03  0.75066196958E+02 0.  0.
         66    2    3    3    0    0 -0.19683056810E+02 -0.24814642740E+02 -0.32589325649E+02  0.45489046756E+02  0.20000021943E+01 0.  0.
        -13    1    3    3    0    0  0.19683056810E+02  0.24814642740E+02 -0.12674480674E+03  0.13064243728E+03  0.10566000000E+00 0.  1.
         13    1    4    4    0    0 -0.15863897322E+01 -0.23403950182E+01 -0.35357894806E+01  0.45284713216E+01  0.10566000000E+00 0. -1.
        -13    1    4    4    0    0 -0.59841701234E+01 -0.72348769845E+01 -0.88031004725E+01  0.12870877166E+02  0.10566000000E+00 0.  1.
         14    1    4    4    0    0 -0.12112496955E+02 -0.15239370738E+02 -0.20250435696E+02  0.28089698268E+02  0.00000000000E+00 0. -1.
<mgrwt>
<rscale>  0 0.75066197E+02</rscale>
<asrwt>0</asrwt>
<pdfrwt beam="1">  1        2 0.12921041E-02 0.75066197E+02</pdfrwt>
<pdfrwt beam="2">  1       -1 0.25805045E-01 0.75066197E+02</pdfrwt>
<totfact> 0.12307246E+05</totfact>
</mgrwt>
</event>
<event>
 8    1  0.2389776E-024  0.7887553E+02  0.7818608E-02  0.1332273E+00
          2   -1    0    0  501    0  0.00000000000E+00  0.00000000000E+00  0.76839685929E+03  0.76839685929E+03  0.25500000000E-02 0. -1.
         -1   -1    0    0    0  501 -0.00000000000E+00 -0.00000000000E+00 -0.20241294853E+01  0.20241357600E+01  0.50400000000E-02 0.  1.
         24    2    1    2    0    0  0.00000000000E+00  0.00000000000E+00  0.76637272980E+03  0.77042099505E+03  0.78875526191E+02 0.  0.
         66    2    3    3    0    0  0.29158602944E+01 -0.32748339609E+02  0.59572220255E+03  0.59663213003E+03  0.19999975634E+01 0.  0.
        -13    1    3    3    0    0 -0.29158602944E+01  0.32748339609E+02  0.17065052725E+03  0.17378886502E+03  0.10566000000E+00 0.  1.
         13    1    4    4    0    0  0.11536366382E+01 -0.89056595863E+01  0.15252406078E+03  0.15278822576E+03  0.10566000000E+00 0. -1.
        -13    1    4    4    0    0  0.90765596873E+00 -0.85473091835E+01  0.15105066022E+03  0.15129505428E+03  0.10566000000E+00 0.  1.
        -14    1    4    4    0    0  0.85456768742E+00 -0.15295370840E+02  0.29214748155E+03  0.29254884999E+03  0.00000000000E+00 0.  1.
<mgrwt>
<rscale>  0 0.78875526E+02</rscale>
<asrwt>0</asrwt>
<pdfrwt beam="1">  1        2 0.11821499E+00 0.78875526E+02</pdfrwt>
<pdfrwt beam="2">  1       -1 0.31140480E-03 0.78875526E+02</pdfrwt>
<totfact> 0.35391873E+05</totfact>
</mgrwt>
</event>
<event>
 8    1  0.2389776E-024  0.7866667E+02  0.7818608E-02  0.1332878E+00
         -1   -1    0    0    0  501 -0.00000000000E+00  0.00000000000E+00  0.22570674535E+01  0.22570730806E+01  0.50400000000E-02 0.  1.
          2   -1    0    0  501    0  0.00000000000E+00 -0.00000000000E+00 -0.68545114250E+03  0.68545114250E+03  0.25500000000E-02 0. -1.
         24    2    1    2    0    0  0.00000000000E+00  0.00000000000E+00 -0.68319407504E+03  0.68770821558E+03  0.78666674042E+02 0.  0.
         66    2    3    3    0    0 -0.14099140819E+02  0.28647265571E+02 -0.54224769851E+03  0.54319059099E+03  0.20000003894E+01 0.  0.
        -13    1    3    3    0    0  0.14099140819E+02 -0.28647265571E+02 -0.14094637653E+03  0.14451762459E+03  0.10566000000E+00 0.  1.
         13    1    4    4    0    0 -0.18764807474E+01  0.35278011815E+01 -0.64856780850E+02  0.64979841085E+02  0.10566000000E+00 0. -1.
        -13    1    4    4    0    0 -0.58001598329E+01  0.99908035037E+01 -0.19461239350E+03  0.19495500219E+03  0.10566000000E+00 0.  1.
        -14    1    4    4    0    0 -0.64225002385E+01  0.15128660886E+02 -0.28277852416E+03  0.28325574772E+03  0.00000000000E+00 0.  1.
<mgrwt>
<rscale>  0 0.78666674E+02</rscale>
<asrwt>0</asrwt>
<pdfrwt beam="1">  1        2 0.10545386E+00 0.78666674E+02</pdfrwt>
<pdfrwt beam="2">  1       -1 0.34724213E-03 0.78666674E+02</pdfrwt>
<totfact> 0.34774156E+05</totfact>
</mgrwt>
</event>
<event>
 8    1  0.2389776E-024  0.7975716E+02  0.7818608E-02  0.1329742E+00
          2   -1    0    0  501    0  0.00000000000E+00  0.00000000000E+00  0.69675771546E+01  0.69675776213E+01  0.25500000000E-02 0. -1.
         -1   -1    0    0    0  501 -0.00000000000E+00 -0.00000000000E+00 -0.22824307741E+03  0.22824307746E+03  0.50400000000E-02 0.  1.
         24    2    1    2    0    0 -0.88817841970E-15  0.00000000000E+00 -0.22127550025E+03  0.23521065509E+03  0.79757164275E+02 0.  0.
         66    2    3    3    0    0 -0.49416826636E+01  0.36947401848E+02 -0.15228458378E+03  0.15679325618E+03  0.19999990069E+01 0.  0.
        -13    1    3    3    0    0  0.49416826636E+01 -0.36947401848E+02 -0.68990916471E+02  0.78417398901E+02  0.10566000000E+00 0.  1.
         13    1    4    4    0    0 -0.18595389627E+01  0.21127917464E+02 -0.86144963584E+02  0.88717600827E+02  0.10566000000E+00 0. -1.
        -13    1    4    4    0    0 -0.19973090570E+01  0.10905514010E+02 -0.45440229159E+02  0.46773337163E+02  0.10566000000E+00 0.  1.
         14    1    4    4    0    0 -0.10848346439E+01  0.49139703740E+01 -0.20699391040E+02  0.21302318195E+02  0.00000000000E+00 0. -1.
<mgrwt>
<rscale>  0 0.79757164E+02</rscale>
<asrwt>0</asrwt>
<pdfrwt beam="1">  1        2 0.10719352E-02 0.79757164E+02</pdfrwt>
<pdfrwt beam="2">  1       -1 0.35114314E-01 0.79757164E+02</pdfrwt>
<totfact> 0.96273972E+04</totfact>
</mgrwt>
</event>
<event>
 8    1  0.2389776E-024  0.8069312E+02  0.7818608E-02  0.1327096E+00
         -1   -1    0    0    0  501 -0.00000000000E+00  0.00000000000E+00  0.34844580824E+01  0.34844617274E+01  0.50400000000E-02 0.  1.
          2   -1    0    0  501    0  0.00000000000E+00 -0.00000000000E+00 -0.46717278301E+03  0.46717278301E+03  0.25500000000E-02 0. -1.
         24    2    1    2    0    0  0.00000000000E+00  0.00000000000E+00 -0.46368832493E+03  0.47065724474E+03  0.80693118394E+02 0.  0.
         66    2    3    3    0    0  0.30786406359E+02  0.50477544588E+01 -0.38098319826E+03  0.38226362629E+03  0.19999973809E+01 0.  0.
        -13    1    3    3    0    0 -0.30786406359E+02 -0.50477544588E+01 -0.82705126670E+02  0.88393618453E+02  0.10566000000E+00 0.  1.
         13    1    4    4    0    0  0.15300715074E+02  0.16779463650E+01 -0.18917171214E+03  0.18979693154E+03  0.10566000000E+00 0. -1.
        -13    1    4    4    0    0  0.68099467728E+01  0.18662760962E+01 -0.86301331306E+02  0.86589776017E+02  0.10566000000E+00 0.  1.
         14    1    4    4    0    0  0.86757445127E+01  0.15035319977E+01 -0.10551015481E+03  0.10587691873E+03  0.00000000000E+00 0. -1.
<mgrwt>
<rscale>  0 0.80693118E+02</rscale>
<asrwt>0</asrwt>
<pdfrwt beam="1">  1        2 0.71872686E-01 0.80693118E+02</pdfrwt>
<pdfrwt beam="2">  1       -1 0.53607113E-03 0.80693118E+02</pdfrwt>
<totfact> 0.29124634E+05</totfact>
</mgrwt>
</event>
<event>
 8    1  0.2389776E-024  0.8002592E+02  0.7818608E-02  0.1328978E+00
         -1   -1    0    0    0  501 -0.00000000000E+00  0.00000000000E+00  0.57246051169E+01  0.57246073355E+01  0.50400000000E-02 0.  1.
          2   -1    0    0  501    0  0.00000000000E+00 -0.00000000000E+00 -0.27967638088E+03  0.27967638090E+03  0.25500000000E-02 0. -1.
         24    2    1    2    0    0 -0.13183898417E-15  0.00000000000E+00 -0.27395177577E+03  0.28540098823E+03  0.80025924783E+02 0.  0.
         66    2    3    3    0    0  0.60956609727E-01 -0.14626106726E+02 -0.26979031760E+03  0.27019389739E+03  0.20000008136E+01 0.  0.
        -13    1    3    3    0    0 -0.60956609727E-01  0.14626106726E+02 -0.41614581660E+01  0.15207090838E+02  0.10566000000E+00 0.  1.
         13    1    4    4    0    0  0.69419852745E+00 -0.80297368880E+01 -0.13623876540E+03  0.13647699787E+03  0.10566000000E+00 0. -1.
        -13    1    4    4    0    0 -0.39656984376E+00 -0.18477129976E+01 -0.37351147947E+02  0.37399073892E+02  0.10566000000E+00 0. -1.
        -14    1    4    4    0    0 -0.23667207396E+00 -0.47486568403E+01 -0.96200404250E+02  0.96317825626E+02  0.00000000000E+00 0.  1.
<mgrwt>
<rscale>  0 0.80025925E+02</rscale>
<asrwt>0</asrwt>
<pdfrwt beam="1">  1        2 0.43027125E-01 0.80025925E+02</pdfrwt>
<pdfrwt beam="2">  1       -1 0.88070887E-03 0.80025925E+02</pdfrwt>
<totfact> 0.24833638E+05</totfact>
</mgrwt>
</event>
<event>
 8    1  0.2389776E-024  0.8241189E+02  0.7818608E-02  0.1322343E+00
         -1   -1    0    0    0  501 -0.00000000000E+00  0.00000000000E+00  0.22080423735E+02  0.22080424310E+02  0.50400000000E-02 0.  1.
          2   -1    0    0  501    0  0.00000000000E+00 -0.00000000000E+00 -0.76897517021E+02  0.76897517064E+02  0.25500000000E-02 0. -1.
         24    2    1    2    0    0  0.00000000000E+00  0.17763568394E-14 -0.54817093287E+02  0.98977941374E+02  0.82411887263E+02 0.  0.
         66    2    3    3    0    0  0.31340905227E+02 -0.13404452813E+02 -0.55178055717E+02  0.64888747285E+02  0.19999989601E+01 0.  0.
        -13    1    3    3    0    0 -0.31340905227E+02  0.13404452813E+02  0.36096243048E+00  0.34089194088E+02  0.10566000000E+00 0.  1.
         13    1    4    4    0    0  0.47951915732E+01 -0.21687150089E+01 -0.88930640028E+01  0.10334163653E+02  0.10566000000E+00 0. -1.
        -13    1    4    4    0    0  0.53762476802E+01 -0.24843514744E+01 -0.10810176189E+02  0.12326683034E+02  0.10566000000E+00 0.  1.
        -14    1    4    4    0    0  0.21169465974E+02 -0.87513863297E+01 -0.35474815526E+02  0.42227900598E+02  0.00000000000E+00 0.  1.
<mgrwt>
<rscale>  0 0.82411887E+02</rscale>
<asrwt>0</asrwt>
<pdfrwt beam="1">  1        2 0.11830387E-01 0.82411887E+02</pdfrwt>
<pdfrwt beam="2">  1       -1 0.33969884E-02 0.82411887E+02</pdfrwt>
<totfact> 0.15252493E+05</totfact>
</mgrwt>
</event>
<event>
 8    1  0.2389776E-024  0.7978928E+02  0.7818608E-02  0.1329650E+00
          2   -1    0    0  501    0  0.00000000000E+00  0.00000000000E+00  0.43670495739E+03  0.43670495740E+03  0.25500000000E-02 0. -1.
         -1   -1    0    0    0  501 -0.00000000000E+00 -0.00000000000E+00 -0.36445235701E+01  0.36445270550E+01  0.50400000000E-02 0.  1.
         24    2    1    2    0    0  0.00000000000E+00  0.00000000000E+00  0.43306043382E+03  0.44034948446E+03  0.79789279464E+02 0.  0.
         66    2    3    3    0    0  0.36504257821E+02 -0.63156132809E+01  0.29798869432E+03  0.30028937669E+03  0.20000004207E+01 0.  0.
        -13    1    3    3    0    0 -0.36504257821E+02  0.63156132809E+01  0.13507173950E+03  0.14006010776E+03  0.10566000000E+00 0.  1.
         13    1    4    4    0    0  0.10047539231E+02 -0.13615490983E+01  0.87440832860E+02  0.88026798623E+02  0.10566000000E+00 0. -1.
        -13    1    4    4    0    0  0.11734662678E+02 -0.20651115729E+01  0.90712371225E+02  0.91491597709E+02  0.10566000000E+00 0.  1.
         14    1    4    4    0    0  0.14722055912E+02 -0.28889526097E+01  0.11983549024E+03  0.12077098036E+03  0.00000000000E+00 0. -1.
<mgrwt>
<rscale>  0 0.79789279E+02</rscale>
<asrwt>0</asrwt>
<pdfrwt beam="1">  1        2 0.67185316E-01 0.79789279E+02</pdfrwt>
<pdfrwt beam="2">  1       -1 0.56069673E-03 0.79789279E+02</pdfrwt>
<totfact> 0.29323184E+05</totfact>
</mgrwt>
</event>
<event>
 8    1  0.2389776E-024  0.7932365E+02  0.7818608E-02  0.1330982E+00
         -1   -1    0    0    0  501 -0.00000000000E+00  0.00000000000E+00  0.89035711271E+01  0.89035725536E+01  0.50400000000E-02 0.  1.
          2   -1    0    0  501    0  0.00000000000E+00 -0.00000000000E+00 -0.17667742733E+03  0.17667742735E+03  0.25500000000E-02 0. -1.
         24    2    1    2    0    0  0.00000000000E+00  0.88817841970E-15 -0.16777385621E+03  0.18558099991E+03  0.79323645274E+02 0.  0.
         66    2    3    3    0    0  0.27652824168E+02  0.31974778022E+01 -0.14995303899E+03  0.15252808416E+03  0.20000020628E+01 0.  0.
        -13    1    3    3    0    0 -0.27652824168E+02 -0.31974778022E+01 -0.17820817222E+02  0.33052915745E+02  0.10566000000E+00 0.  1.
         13    1    4    4    0    0  0.11115074215E+02  0.95345988047E+00 -0.58353858279E+02  0.59410755765E+02  0.10566000000E+00 0. -1.
        -13    1    4    4    0    0  0.20310379974E+01 -0.15122348306E+00 -0.10555336696E+02  0.10750547925E+02  0.10566000000E+00 0.  1.
        -14    1    4    4    0    0  0.14506711956E+02  0.23952414048E+01 -0.81043844010E+02  0.82366780471E+02  0.00000000000E+00 0.  1.
<mgrwt>
<rscale>  0 0.79323645E+02</rscale>
<asrwt>0</asrwt>
<pdfrwt beam="1">  1        2 0.27181140E-01 0.79323645E+02</pdfrwt>
<pdfrwt beam="2">  1       -1 0.13697804E-02 0.79323645E+02</pdfrwt>
<totfact> 0.21620420E+05</totfact>
</mgrwt>
</event>
<event>
 8    1  0.2389776E-024  0.7232563E+02  0.7818608E-02  0.1352359E+00
          2   -1    0    0  501    0  0.00000000000E+00  0.00000000000E+00  0.34615148994E+02  0.34615149088E+02  0.25500000000E-02 0. -1.
         -1   -1    0    0    0  501 -0.00000000000E+00 -0.00000000000E+00 -0.37779674136E+02  0.37779674472E+02  0.50400000000E-02 0.  1.
         24    2    1    2    0    0  0.00000000000E+00  0.00000000000E+00 -0.31645251425E+01  0.72394823560E+02  0.72325626571E+02 0.  0.
         66    2    3    3    0    0 -0.17128625175E+02  0.23979480604E+02  0.19349189476E+02  0.35310004559E+02  0.19999995332E+01 0.  0.
        -13    1    3    3    0    0  0.17128625175E+02 -0.23979480604E+02 -0.22513714619E+02  0.37084819002E+02  0.10566000000E+00 0.  1.
         13    1    4    4    0    0 -0.11440481134E+02  0.17057748041E+02  0.13962013664E+02  0.24835465898E+02  0.10566000000E+00 0. -1.
        -13    1    4    4    0    0 -0.38735733999E+01  0.42430637430E+01  0.35331270170E+01  0.67455401093E+01  0.10566000000E+00 0.  1.
         14    1    4    4    0    0 -0.18145706411E+01  0.26786688198E+01  0.18540487954E+01  0.37289985510E+01  0.00000000000E+00 0. -1.
<mgrwt>
<rscale>  0 0.72325627E+02</rscale>
<asrwt>0</asrwt>
<pdfrwt beam="1">  1        2 0.53254076E-02 0.72325627E+02</pdfrwt>
<pdfrwt beam="2">  1       -1 0.58122576E-02 0.72325627E+02</pdfrwt>
<totfact> 0.18282549E+05</totfact>
</mgrwt>
</event>
<event>
 8    1  0.2389776E-024  0.8067259E+02  0.7818608E-02  0.1327153E+00
          2   -1    0    0  501    0  0.00000000000E+00  0.00000000000E+00  0.50423529341E+03  0.50423529342E+03  0.25500000000E-02 0. -1.
         -1   -1    0    0    0  501 -0.00000000000E+00 -0.00000000000E+00 -0.32266996917E+01  0.32267036279E+01  0.50400000000E-02 0.  1.
         24    2    1    2    0    0  0.35527136788E-14  0.00000000000E+00  0.50100859372E+03  0.50746199705E+03  0.80672594261E+02 0.  0.
         66    2    3    3    0    0 -0.24860237350E+02 -0.30373834177E+02  0.30845096373E+03  0.31094468678E+03  0.20000014083E+01 0.  0.
        -13    1    3    3    0    0  0.24860237350E+02  0.30373834177E+02  0.19255762999E+03  0.19651731027E+03  0.10566000000E+00 0.  1.
         13    1    4    4    0    0 -0.32960113319E+00 -0.45418183175E+00  0.47439140605E+01  0.47781589229E+01  0.10566000000E+00 0.  1.
        -13    1    4    4    0    0 -0.52832754235E+01 -0.74245738755E+01  0.74594687817E+02  0.75149290821E+02  0.10566000000E+00 0.  1.
         14    1    4    4    0    0 -0.19247360793E+02 -0.22495078470E+02  0.22911236185E+03  0.23101723704E+03  0.00000000000E+00 0. -1.
<mgrwt>
<rscale>  0 0.80672594E+02</rscale>
<asrwt>0</asrwt>
<pdfrwt beam="1">  1        2 0.77574616E-01 0.80672594E+02</pdfrwt>
<pdfrwt beam="2">  1       -1 0.49641593E-03 0.80672594E+02</pdfrwt>
<totfact> 0.29873857E+05</totfact>
</mgrwt>
</event>
<event>
 8    1  0.2389776E-024  0.8039464E+02  0.7818608E-02  0.1327935E+00
         -1   -1    0    0    0  501 -0.00000000000E+00  0.00000000000E+00  0.10774036527E+02  0.10774037706E+02  0.50400000000E-02 0.  1.
          2   -1    0    0  501    0  0.00000000000E+00 -0.00000000000E+00 -0.14997390154E+03  0.14997390157E+03  0.25500000000E-02 0. -1.
         24    2    1    2    0    0 -0.35527136788E-14  0.17763568394E-14 -0.13919986502E+03  0.16074793927E+03  0.80394636385E+02 0.  0.
         66    2    3    3    0    0 -0.23074059826E+02  0.12360074835E+02 -0.13057426917E+03  0.13318717450E+03  0.19999993342E+01 0.  0.
        -13    1    3    3    0    0  0.23074059826E+02 -0.12360074835E+02 -0.86255958511E+01  0.27560764768E+02  0.10566000000E+00 0.  1.
         13    1    4    4    0    0 -0.35845111018E+01  0.21181464315E+01 -0.21417626341E+02  0.21818825502E+02  0.10566000000E+00 0. -1.
        -13    1    4    4    0    0 -0.43657365188E-01  0.32690811895E-01 -0.73481748295E+00  0.74437586176E+00  0.10566000000E+00 0.  1.
         14    1    4    4    0    0 -0.19445891359E+02  0.10209237592E+02 -0.10842182534E+03  0.11062397314E+03  0.00000000000E+00 0. -1.
<mgrwt>
<rscale>  0 0.80394636E+02</rscale>
<asrwt>0</asrwt>
<pdfrwt beam="1">  1        2 0.23072906E-01 0.80394636E+02</pdfrwt>
<pdfrwt beam="2">  1       -1 0.16575443E-02 0.80394636E+02</pdfrwt>
<totfact> 0.19768996E+05</totfact>
</mgrwt>
</event>
<event>
 8    1  0.2389776E-024  0.8079281E+02  0.7818608E-02  0.1326816E+00
         -1   -1    0    0    0  501 -0.00000000000E+00  0.00000000000E+00  0.16125614317E+02  0.16125615105E+02  0.50400000000E-02 0.  1.
          2   -1    0    0  501    0  0.00000000000E+00 -0.00000000000E+00 -0.10119735621E+03  0.10119735624E+03  0.25500000000E-02 0. -1.
         24    2    1    2    0    0 -0.17763568394E-14  0.00000000000E+00 -0.85071741888E+02  0.11732297134E+03  0.80792811169E+02 0.  0.
         66    2    3    3    0    0 -0.88690971360E+01  0.18803798664E+02 -0.92815791980E+02  0.95136822418E+02  0.20000027012E+01 0.  0.
        -13    1    3    3    0    0  0.88690971360E+01 -0.18803798664E+02  0.77440500920E+01  0.22186148924E+02  0.10566000000E+00 0.  1.
         13    1    4    4    0    0 -0.21396505838E+01  0.43401161834E+01 -0.24126091312E+02  0.24606790915E+02  0.10566000000E+00 0. -1.
        -13    1    4    4    0    0 -0.65408045363E+01  0.13760625812E+02 -0.64311669037E+02  0.66091897272E+02  0.10566000000E+00 0.  1.
        -14    1    4    4    0    0 -0.18864201592E+00  0.70305666827E+00 -0.43780316310E+01  0.44381342309E+01  0.00000000000E+00 0.  1.
<mgrwt>
<rscale>  0 0.80792811E+02</rscale>
<asrwt>0</asrwt>
<pdfrwt beam="1">  1        2 0.15568824E-01 0.80792811E+02</pdfrwt>
<pdfrwt beam="2">  1       -1 0.24808639E-02 0.80792811E+02</pdfrwt>
<totfact> 0.17321325E+05</totfact>
</mgrwt>
</event>
<event>
 8    1  0.2389776E-024  0.8042736E+02  0.7818608E-02  0.1327843E+00
          2   -1    0    0  501    0  0.00000000000E+00  0.00000000000E+00  0.21640261320E+03  0.21640261321E+03  0.25500000000E-02 0. -1.
         -1   -1    0    0    0  501 -0.00000000000E+00 -0.00000000000E+00 -0.74728303891E+01  0.74728320887E+01  0.50400000000E-02 0.  1.
         24    2    1    2    0    0  0.00000000000E+00  0.35527136788E-14  0.20892978281E+03  0.22387544530E+03  0.80427363904E+02 0.  0.
         66    2    3    3    0    0 -0.23613390833E+02  0.14603143151E+02  0.18541072974E+03  0.18748862025E+03  0.20000003419E+01 0.  0.
        -13    1    3    3    0    0  0.23613390833E+02 -0.14603143151E+02  0.23519053067E+02  0.36386825057E+02  0.10566000000E+00 0.  1.
         13    1    4    4    0    0 -0.42219656511E+01  0.28045014185E+01  0.35259821644E+02  0.35622414413E+02  0.10566000000E+00 0. -1.
        -13    1    4    4    0    0 -0.15816910617E+02  0.10072578257E+02  0.12713559441E+03  0.12851109690E+03  0.10566000000E+00 0.  1.
        -14    1    4    4    0    0 -0.35745145646E+01  0.17260634764E+01  0.23015313684E+02  0.23355108938E+02  0.00000000000E+00 0.  1.
<mgrwt>
<rscale>  0 0.80427364E+02</rscale>
<asrwt>0</asrwt>
<pdfrwt beam="1">  1        2 0.33292708E-01 0.80427364E+02</pdfrwt>
<pdfrwt beam="2">  1       -1 0.11496664E-02 0.80427364E+02</pdfrwt>
<totfact> 0.22358870E+05</totfact>
</mgrwt>
</event>
<event>
 8    1  0.2389776E-024  0.7095812E+02  0.7818608E-02  0.1356865E+00
         -1   -1    0    0    0  501 -0.00000000000E+00  0.00000000000E+00  0.11137330993E+01  0.11137445030E+01  0.50400000000E-02 0.  1.
          2   -1    0    0  501    0  0.00000000000E+00 -0.00000000000E+00 -0.11302144837E+04  0.11302144837E+04  0.25500000000E-02 0. -1.
         24    2    1    2    0    0  0.00000000000E+00  0.00000000000E+00 -0.11291007506E+04  0.11313282282E+04  0.70958120946E+02 0.  0.
         66    2    3    3    0    0  0.20942670296E+01  0.15513267688E+02 -0.10721224352E+04  0.10722385758E+04  0.19999987835E+01 0.  0.
        -13    1    3    3    0    0 -0.20942670296E+01 -0.15513267688E+02 -0.56978315390E+02  0.59089652372E+02  0.10566000000E+00 0.  1.
         13    1    4    4    0    0  0.12985964950E+01  0.71190083127E+01 -0.47558494182E+03  0.47564000534E+03  0.10566000000E+00 0. -1.
        -13    1    4    4    0    0  0.26925267570E+00  0.16337222057E+01 -0.15710497459E+03  0.15711373508E+03  0.10566000000E+00 0.  1.
        -14    1    4    4    0    0  0.52641785890E+00  0.67605371693E+01 -0.43943251876E+03  0.43948483537E+03  0.00000000000E+00 0.  1.
<mgrwt>
<rscale>  0 0.70958121E+02</rscale>
<asrwt>0</asrwt>
<pdfrwt beam="1">  1        2 0.17387823E+00 0.70958121E+02</pdfrwt>
<pdfrwt beam="2">  1       -1 0.17134534E-03 0.70958121E+02</pdfrwt>
<totfact> 0.47982275E+05</totfact>
</mgrwt>
</event>
<event>
 8    1  0.2389776E-024  0.7924907E+02  0.7818608E-02  0.1331196E+00
          2   -1    0    0  501    0  0.00000000000E+00  0.00000000000E+00  0.18061397729E+02  0.18061397909E+02  0.25500000000E-02 0. -1.
         -1   -1    0    0    0  501 -0.00000000000E+00 -0.00000000000E+00 -0.86931474480E+02  0.86931474627E+02  0.50400000000E-02 0.  1.
         24    2    1    2    0    0 -0.35527136788E-14  0.00000000000E+00 -0.68870076751E+02  0.10499287254E+03  0.79249074516E+02 0.  0.
         66    2    3    3    0    0 -0.28207317172E+02  0.25768765288E+02 -0.20662143685E+02  0.43481101458E+02  0.19999989607E+01 0.  0.
        -13    1    3    3    0    0  0.28207317172E+02 -0.25768765288E+02 -0.48207933066E+02  0.61511771077E+02  0.10566000000E+00 0.  1.
         13    1    4    4    0    0 -0.42633574983E+01  0.37101835934E+01 -0.24991347049E+01  0.61804949449E+01  0.10566000000E+00 0. -1.
        -13    1    4    4    0    0 -0.98015020566E+01  0.83679638424E+01 -0.75942840738E+01  0.14959163615E+02  0.10566000000E+00 0.  1.
        -14    1    4    4    0    0 -0.14142457617E+02  0.13690617853E+02 -0.10568724906E+02  0.22341442899E+02  0.00000000000E+00 0.  1.
<mgrwt>
<rscale>  0 0.79249075E+02</rscale>
<asrwt>0</asrwt>
<pdfrwt beam="1">  1        2 0.27786766E-02 0.79249075E+02</pdfrwt>
<pdfrwt beam="2">  1       -1 0.13374073E-01 0.79249075E+02</pdfrwt>
<totfact> 0.12495426E+05</totfact>
</mgrwt>
</event>
<event>
 8    1  0.2389776E-024  0.8018070E+02  0.7818608E-02  0.1328539E+00
         -1   -1    0    0    0  501 -0.00000000000E+00  0.00000000000E+00  0.50444283897E+01  0.50444309075E+01  0.50400000000E-02 0.  1.
          2   -1    0    0  501    0  0.00000000000E+00 -0.00000000000E+00 -0.31861605882E+03  0.31861605883E+03  0.25500000000E-02 0. -1.
         24    2    1    2    0    0  0.00000000000E+00  0.00000000000E+00 -0.31357163043E+03  0.32366048974E+03  0.80180703455E+02 0.  0.
         66    2    3    3    0    0 -0.66475510918E+01 -0.16711333933E+02 -0.30140222231E+03  0.30194495900E+03  0.20000082949E+01 0.  0.
        -13    1    3    3    0    0  0.66475510918E+01  0.16711333933E+02 -0.12169408123E+02  0.21715530743E+02  0.10566000000E+00 0.  1.
         13    1    4    4    0    0 -0.13796828765E+01 -0.29378340532E+01 -0.44874632065E+02  0.44991978850E+02  0.10566000000E+00 0. -1.
        -13    1    4    4    0    0 -0.17007194158E+01 -0.57051628790E+01 -0.10610544710E+03  0.10627237834E+03  0.10566000000E+00 0. -1.
         14    1    4    4    0    0 -0.35671487995E+01 -0.80683370013E+01 -0.15042214314E+03  0.15068060180E+03  0.00000000000E+00 0. -1.
<mgrwt>
<rscale>  0 0.80180703E+02</rscale>
<asrwt>0</asrwt>
<pdfrwt beam="1">  1        2 0.49017839E-01 0.80180703E+02</pdfrwt>
<pdfrwt beam="2">  1       -1 0.77606635E-03 0.80180703E+02</pdfrwt>
<totfact> 0.25901898E+05</totfact>
</mgrwt>
</event>
<event>
 8    1  0.2389776E-024  0.8397848E+02  0.7818608E-02  0.1318126E+00
         -1   -1    0    0    0  501 -0.00000000000E+00  0.00000000000E+00  0.20539644128E+01  0.20539705964E+01  0.50400000000E-02 0.  1.
          2   -1    0    0  501    0  0.00000000000E+00 -0.00000000000E+00 -0.85838572610E+03  0.85838572610E+03  0.25500000000E-02 0. -1.
         24    2    1    2    0    0 -0.88817841970E-15  0.35527136788E-14 -0.85633176168E+03  0.86043969670E+03  0.83978482858E+02 0.  0.
         66    2    3    3    0    0 -0.69556908947E+01 -0.26563976243E+02 -0.75355609562E+03  0.75405889407E+03  0.20000007157E+01 0.  0.
        -13    1    3    3    0    0  0.69556908947E+01  0.26563976243E+02 -0.10277566606E+03  0.10638080263E+03  0.10566000000E+00 0.  1.
         13    1    4    4    0    0 -0.54132062777E+01 -0.19119207874E+02 -0.55975158179E+03  0.56010417906E+03  0.10566000000E+00 0. -1.
        -13    1    4    4    0    0 -0.13170417882E+01 -0.48940154018E+01 -0.12681074907E+03  0.12691202949E+03  0.10566000000E+00 0.  1.
         14    1    4    4    0    0 -0.22544282888E+00 -0.25507529674E+01 -0.66993764766E+02  0.67042685527E+02  0.00000000000E+00 0. -1.
<mgrwt>
<rscale>  0 0.83978483E+02</rscale>
<asrwt>0</asrwt>
<pdfrwt beam="1">  1        2 0.13205906E+00 0.83978483E+02</pdfrwt>
<pdfrwt beam="2">  1       -1 0.31599569E-03 0.83978483E+02</pdfrwt>
<totfact> 0.30619026E+05</totfact>
</mgrwt>
</event>
<event>
 8    1  0.2389776E-024  0.8185970E+02  0.7818608E-02  0.1323855E+00
         -1   -1    0    0    0  501 -0.00000000000E+00  0.00000000000E+00  0.29023736529E+02  0.29023736967E+02  0.50400000000E-02 0.  1.
          2   -1    0    0  501    0  0.00000000000E+00 -0.00000000000E+00 -0.57720083836E+02  0.57720083892E+02  0.25500000000E-02 0. -1.
         24    2    1    2    0    0  0.00000000000E+00  0.00000000000E+00 -0.28696347306E+02  0.86743820859E+02  0.81859697705E+02 0.  0.
         66    2    3    3    0    0  0.32101474211E+02 -0.22359729673E+02 -0.16944838939E+01  0.39208844795E+02  0.20000192255E+01 0.  0.
        -13    1    3    3    0    0 -0.32101474211E+02  0.22359729673E+02 -0.27001863412E+02  0.47534976064E+02  0.10566000000E+00 0.  1.
         13    1    4    4    0    0  0.10169667083E+02 -0.75070942506E+01 -0.75347918958E+00  0.12663233694E+02  0.10566000000E+00 0. -1.
        -13    1    4    4    0    0  0.43280076871E+01 -0.35185871330E+01 -0.53947326686E+00  0.56048462417E+01  0.10566000000E+00 0.  1.
        -14    1    4    4    0    0  0.17603799441E+02 -0.11334048289E+02 -0.40153143750E+00  0.20940764859E+02  0.00000000000E+00 0.  1.
<mgrwt>
<rscale>  0 0.81859698E+02</rscale>
<asrwt>0</asrwt>
<pdfrwt beam="1">  1        2 0.88800129E-02 0.81859698E+02</pdfrwt>
<pdfrwt beam="2">  1       -1 0.44651903E-02 0.81859698E+02</pdfrwt>
<totfact> 0.14490554E+05</totfact>
</mgrwt>
</event>
<event>
 8    1  0.2389776E-024  0.8036569E+02  0.7818608E-02  0.1328017E+00
          2   -1    0    0  501    0  0.00000000000E+00  0.00000000000E+00  0.23029931087E+03  0.23029931088E+03  0.25500000000E-02 0. -1.
         -1   -1    0    0    0  501 -0.00000000000E+00 -0.00000000000E+00 -0.70111402142E+01  0.70111420257E+01  0.50400000000E-02 0.  1.
         24    2    1    2    0    0  0.00000000000E+00  0.35527136788E-14  0.22328817065E+03  0.23731045291E+03  0.80365688608E+02 0.  0.
         66    2    3    3    0    0  0.14379391187E+02  0.28181657289E+02  0.18474441745E+03  0.18744458508E+03  0.20000003410E+01 0.  0.
        -13    1    3    3    0    0 -0.14379391187E+02 -0.28181657289E+02  0.38543753207E+02  0.49865867823E+02  0.10566000000E+00 0.  1.
         13    1    4    4    0    0  0.72140798480E+01  0.14438535603E+02  0.89225277477E+02  0.90673455671E+02  0.10566000000E+00 0. -1.
        -13    1    4    4    0    0  0.25287081540E+00  0.74898113230E+00  0.48392617431E+01  0.49045422457E+01  0.10566000000E+00 0. -1.
         14    1    4    4    0    0  0.69124405232E+01  0.12994140554E+02  0.90679878227E+02  0.91866587168E+02  0.00000000000E+00 0. -1.
<mgrwt>
<rscale>  0 0.80365689E+02</rscale>
<asrwt>0</asrwt>
<pdfrwt beam="1">  1        2 0.35430656E-01 0.80365689E+02</pdfrwt>
<pdfrwt beam="2">  1       -1 0.10786373E-02 0.80365689E+02</pdfrwt>
<totfact> 0.22902938E+05</totfact>
</mgrwt>
</event>
<event>
 8    1  0.2389776E-024  0.7733164E+02  0.7818608E-02  0.1336799E+00
          2   -1    0    0  501    0  0.00000000000E+00  0.00000000000E+00  0.11200745477E+04  0.11200745477E+04  0.25500000000E-02 0. -1.
         -1   -1    0    0    0  501 -0.00000000000E+00 -0.00000000000E+00 -0.13347685781E+01  0.13347780934E+01  0.50400000000E-02 0.  1.
         24    2    1    2    0    0  0.00000000000E+00  0.00000000000E+00  0.11187397791E+04  0.11214093258E+04  0.77331640311E+02 0.  0.
         66    2    3    3    0    0  0.19774094051E+02  0.16996442308E+02  0.97325816048E+03  0.97360943955E+03  0.20000000127E+01 0.  0.
        -13    1    3    3    0    0 -0.19774094051E+02 -0.16996442308E+02  0.14548161863E+03  0.14779988623E+03  0.10566000000E+00 0.  1.
         13    1    4    4    0    0  0.11082099652E+01  0.13598193784E+01  0.71362486569E+02  0.71384122124E+02  0.10566000000E+00 0. -1.
        -13    1    4    4    0    0  0.49285090595E+01  0.48175055836E+01  0.24481838557E+03  0.24491539690E+03  0.10566000000E+00 0.  1.
         14    1    4    4    0    0  0.13737375026E+02  0.10819117346E+02  0.65707728834E+03  0.65730992052E+03  0.00000000000E+00 0. -1.
<mgrwt>
<rscale>  0 0.77331640E+02</rscale>
<asrwt>0</asrwt>
<pdfrwt beam="1">  1        2 0.17232039E+00 0.77331640E+02</pdfrwt>
<pdfrwt beam="2">  1       -1 0.20534828E-03 0.77331640E+02</pdfrwt>
<totfact> 0.38463876E+05</totfact>
</mgrwt>
</event>
<event>
 8    1  0.2389776E-024  0.8141284E+02  0.7818608E-02  0.1325089E+00
          2   -1    0    0  501    0  0.00000000000E+00  0.00000000000E+00  0.27567026745E+02  0.27567026863E+02  0.25500000000E-02 0. -1.
         -1   -1    0    0    0  501 -0.00000000000E+00 -0.00000000000E+00 -0.60108497352E+02  0.60108497563E+02  0.50400000000E-02 0.  1.
         24    2    1    2    0    0  0.71054273576E-14 -0.35527136788E-14 -0.32541470607E+02  0.87675524426E+02  0.81412838510E+02 0.  0.
         66    2    3    3    0    0  0.31222218976E+02 -0.16991579131E+02  0.50269966442E+01  0.35955686697E+02  0.19999978684E+01 0.  0.
        -13    1    3    3    0    0 -0.31222218976E+02  0.16991579131E+02 -0.37568467251E+02  0.51719837729E+02  0.10566000000E+00 0.  1.
         13    1    4    4    0    0  0.11836682934E+02 -0.66510874088E+01  0.13781738204E+01  0.13647510898E+02  0.10566000000E+00 0. -1.
        -13    1    4    4    0    0  0.11843589463E+02 -0.58728929357E+01  0.26784579753E+01  0.13488765102E+02  0.10566000000E+00 0.  1.
        -14    1    4    4    0    0  0.75419465786E+01 -0.44675987864E+01  0.97036484852E+00  0.88194106974E+01  0.00000000000E+00 0.  1.
<mgrwt>
<rscale>  0 0.81412839E+02</rscale>
<asrwt>0</asrwt>
<pdfrwt beam="1">  1        2 0.42410811E-02 0.81412839E+02</pdfrwt>
<pdfrwt beam="2">  1       -1 0.92474612E-02 0.81412839E+02</pdfrwt>
<totfact> 0.12595402E+05</totfact>
</mgrwt>
</event>
<event>
 8    1  0.2389776E-024  0.8057424E+02  0.7818608E-02  0.1327430E+00
         -1   -1    0    0    0  501 -0.00000000000E+00  0.00000000000E+00  0.14234224060E+02  0.14234224952E+02  0.50400000000E-02 0.  1.
          2   -1    0    0  501    0  0.00000000000E+00 -0.00000000000E+00 -0.11402462243E+03  0.11402462246E+03  0.25500000000E-02 0. -1.
         24    2    1    2    0    0  0.35527136788E-14 -0.35527136788E-14 -0.99790398368E+02  0.12825884741E+03  0.80574241120E+02 0.  0.
         66    2    3    3    0    0 -0.26357955708E+02  0.30294508585E+02 -0.54579831966E+02  0.67789801128E+02  0.20000000183E+01 0.  0.
        -13    1    3    3    0    0  0.26357955708E+02 -0.30294508585E+02 -0.45210566402E+02  0.60469046280E+02  0.10566000000E+00 0.  1.
         13    1    4    4    0    0 -0.44430973428E+01  0.49703463552E+01 -0.86852472717E+01  0.10949435652E+02  0.10566000000E+00 0. -1.
        -13    1    4    4    0    0 -0.52316625769E+01  0.51444586374E+01 -0.94087635048E+01  0.11931963070E+02  0.10566000000E+00 0.  1.
        -14    1    4    4    0    0 -0.16683195789E+02  0.20179703593E+02 -0.36485821189E+02  0.44908402406E+02  0.00000000000E+00 0.  1.
<mgrwt>
<rscale>  0 0.80574241E+02</rscale>
<asrwt>0</asrwt>
<pdfrwt beam="1">  1        2 0.17542249E-01 0.80574241E+02</pdfrwt>
<pdfrwt beam="2">  1       -1 0.21898808E-02 0.80574241E+02</pdfrwt>
<totfact> 0.18057463E+05</totfact>
</mgrwt>
</event>
<event>
 8    1  0.2389776E-024  0.7975660E+02  0.7818608E-02  0.1329744E+00
         -1   -1    0    0    0  501 -0.00000000000E+00  0.00000000000E+00  0.56236019562E+01  0.56236042147E+01  0.50400000000E-02 0.  1.
          2   -1    0    0  501    0  0.00000000000E+00 -0.00000000000E+00 -0.28278644675E+03  0.28278644676E+03  0.25500000000E-02 0. -1.
         24    2    1    2    0    0  0.35527136788E-14  0.00000000000E+00 -0.27716284479E+03  0.28841005098E+03  0.79756598284E+02 0.  0.
         66    2    3    3    0    0  0.16868491142E+02 -0.19726986721E+02 -0.24802697281E+03  0.24938941286E+03  0.20000021141E+01 0.  0.
        -13    1    3    3    0    0 -0.16868491142E+02  0.19726986721E+02 -0.29135871986E+02  0.39020638116E+02  0.10566000000E+00 0.  1.
         13    1    4    4    0    0  0.12515716830E+02 -0.14821135731E+02 -0.18921086694E+03  0.19020271440E+03  0.10566000000E+00 0. -1.
        -13    1    4    4    0    0  0.16092944708E+01 -0.12477003156E+01 -0.18680139968E+02  0.18791098372E+02  0.10566000000E+00 0.  1.
        -14    1    4    4    0    0  0.27434798419E+01 -0.36581506746E+01 -0.40135965896E+02  0.40395600087E+02  0.00000000000E+00 0.  1.
<mgrwt>
<rscale>  0 0.79756598E+02</rscale>
<asrwt>0</asrwt>
<pdfrwt beam="1">  1        2 0.43505596E-01 0.79756598E+02</pdfrwt>
<pdfrwt beam="2">  1       -1 0.86516993E-03 0.79756598E+02</pdfrwt>
<totfact> 0.25154844E+05</totfact>
</mgrwt>
</event>
<event>
 8    1  0.2389776E-024  0.8034597E+02  0.7818608E-02  0.1328072E+00
          2   -1    0    0  501    0  0.00000000000E+00  0.00000000000E+00  0.35943986558E+02  0.35943986649E+02  0.25500000000E-02 0. -1.
         -1   -1    0    0    0  501 -0.00000000000E+00 -0.00000000000E+00 -0.44899552097E+02  0.44899552380E+02  0.50400000000E-02 0.  1.
         24    2    1    2    0    0  0.00000000000E+00  0.00000000000E+00 -0.89555655386E+01  0.80843539029E+02  0.80345974688E+02 0.  0.
         66    2    3    3    0    0 -0.21267789046E+02 -0.20731608485E+02  0.22700542870E+02  0.37435719400E+02  0.19999997885E+01 0.  0.
        -13    1    3    3    0    0  0.21267789046E+02  0.20731608485E+02 -0.31656108408E+02  0.43407819628E+02  0.10566000000E+00 0.  1.
         13    1    4    4    0    0 -0.30081159403E+00 -0.32551258957E+00  0.34368416061E+00  0.57072664115E+00  0.10566000000E+00 0.  1.
        -13    1    4    4    0    0 -0.16351634249E+01 -0.21437846744E+01  0.24660525017E+01  0.36554276266E+01  0.10566000000E+00 0.  1.
         14    1    4    4    0    0 -0.19331814027E+02 -0.18262311221E+02  0.19890806207E+02  0.33209565133E+02  0.00000000000E+00 0. -1.
<mgrwt>
<rscale>  0 0.80345975E+02</rscale>
<asrwt>0</asrwt>
<pdfrwt beam="1">  1        2 0.55298441E-02 0.80345975E+02</pdfrwt>
<pdfrwt beam="2">  1       -1 0.69076235E-02 0.80345975E+02</pdfrwt>
<totfact> 0.13782188E+05</totfact>
</mgrwt>
</event>
<event>
 8    1  0.2389776E-024  0.8015331E+02  0.7818608E-02  0.1328617E+00
          2   -1    0    0  501    0  0.00000000000E+00  0.00000000000E+00  0.17674280321E+03  0.17674280322E+03  0.25500000000E-02 0. -1.
         -1   -1    0    0    0  501 -0.00000000000E+00 -0.00000000000E+00 -0.90874319857E+01  0.90874333833E+01  0.50400000000E-02 0.  1.
         24    2    1    2    0    0  0.00000000000E+00  0.17763568394E-14  0.16765537122E+03  0.18583023661E+03  0.80153311464E+02 0.  0.
         66    2    3    3    0    0 -0.45745104538E+01  0.90769282702E+01  0.17369676872E+03  0.17400541439E+03  0.20000001331E+01 0.  0.
        -13    1    3    3    0    0  0.45745104538E+01 -0.90769282702E+01 -0.60413974992E+01  0.11824822218E+02  0.10566000000E+00 0.  1.
         13    1    4    4    0    0 -0.11059237691E+01  0.28703347565E+01  0.52944830256E+02  0.53034216350E+02  0.10566000000E+00 0. -1.
        -13    1    4    4    0    0 -0.47984518539E+00  0.22115665886E+01  0.33187910409E+02  0.33265144514E+02  0.10566000000E+00 0.  1.
         14    1    4    4    0    0 -0.29887414993E+01  0.39950269251E+01  0.87564028053E+02  0.87706053524E+02  0.00000000000E+00 0. -1.
<mgrwt>
<rscale>  0 0.80153311E+02</rscale>
<asrwt>0</asrwt>
<pdfrwt beam="1">  1        2 0.27191200E-01 0.80153311E+02</pdfrwt>
<pdfrwt beam="2">  1       -1 0.13980666E-02 0.80153311E+02</pdfrwt>
<totfact> 0.21036400E+05</totfact>
</mgrwt>
</event>
<event>
 8    1  0.2389776E-024  0.7954848E+02  0.7818608E-02  0.1330338E+00
          2   -1    0    0  501    0  0.00000000000E+00  0.00000000000E+00  0.17750652537E+03  0.17750652539E+03  0.25500000000E-02 0. -1.
         -1   -1    0    0    0  501 -0.00000000000E+00 -0.00000000000E+00 -0.89122912669E+01  0.89122926920E+01  0.50400000000E-02 0.  1.
         24    2    1    2    0    0 -0.35527136788E-14 -0.71054273576E-14  0.16859423410E+03  0.18641881808E+03  0.79548475545E+02 0.  0.
         66    2    3    3    0    0  0.22211546921E+02  0.32286825640E+02  0.99929095638E+02  0.10735742212E+03  0.20000007195E+01 0.  0.
        -13    1    3    3    0    0 -0.22211546921E+02 -0.32286825640E+02  0.68665138462E+02  0.79061395957E+02  0.10566000000E+00 0.  1.
         13    1    4    4    0    0  0.16182815546E+02  0.24583008401E+02  0.75686577046E+02  0.81207616207E+02  0.10566000000E+00 0. -1.
        -13    1    4    4    0    0  0.28459412796E+01  0.38498737682E+01  0.11100898911E+02  0.12089748983E+02  0.10566000000E+00 0.  1.
        -14    1    4    4    0    0  0.31827900954E+01  0.38539434705E+01  0.13141619681E+02  0.14060056931E+02  0.00000000000E+00 0.  1.
<mgrwt>
<rscale>  0 0.79548476E+02</rscale>
<asrwt>0</asrwt>
<pdfrwt beam="1">  1        2 0.27308696E-01 0.79548476E+02</pdfrwt>
<pdfrwt beam="2">  1       -1 0.13711219E-02 0.79548476E+02</pdfrwt>
<totfact> 0.21493284E+05</totfact>
</mgrwt>
</event>
<event>
 8    1  0.2389776E-024  0.7965746E+02  0.7818608E-02  0.1330026E+00
          2   -1    0    0  501    0  0.00000000000E+00  0.00000000000E+00  0.13826950695E+04  0.13826950695E+04  0.25500000000E-02 0. -1.
         -1   -1    0    0    0  501 -0.00000000000E+00 -0.00000000000E+00 -0.11472667435E+01  0.11472778139E+01  0.50400000000E-02 0.  1.
         24    2    1    2    0    0  0.00000000000E+00  0.00000000000E+00  0.13815478027E+04  0.13838423473E+04  0.79657459941E+02 0.  0.
         66    2    3    3    0    0  0.28726434892E+01 -0.11524908659E+02  0.13511877546E+04  0.13512414380E+04  0.19999946809E+01 0.  0.
        -13    1    3    3    0    0 -0.28726434892E+01  0.11524908659E+02  0.30360048130E+02  0.32600909293E+02  0.10566000000E+00 0.  1.
         13    1    4    4    0    0  0.10822586764E+01 -0.29422730515E+01  0.43503345668E+03  0.43504476534E+03  0.10566000000E+00 0. -1.
        -13    1    4    4    0    0  0.97568305829E+00 -0.27050563178E+01  0.29559776216E+03  0.29561176811E+03  0.10566000000E+00 0.  1.
         14    1    4    4    0    0  0.81470175445E+00 -0.58775792902E+01  0.62055653576E+03  0.62058490454E+03  0.00000000000E+00 0. -1.
<mgrwt>
<rscale>  0 0.79657460E+02</rscale>
<asrwt>0</asrwt>
<pdfrwt beam="1">  1        2 0.21272316E+00 0.79657460E+02</pdfrwt>
<pdfrwt beam="2">  1       -1 0.17650273E-03 0.79657460E+02</pdfrwt>
<totfact> 0.34512609E+05</totfact>
</mgrwt>
</event>
<event>
 8    1  0.2389776E-024  0.8065649E+02  0.7818608E-02  0.1327199E+00
          2   -1    0    0  501    0  0.00000000000E+00  0.00000000000E+00  0.34918491289E+03  0.34918491290E+03  0.25500000000E-02 0. -1.
         -1   -1    0    0    0  501 -0.00000000000E+00 -0.00000000000E+00 -0.46576087075E+01  0.46576114344E+01  0.50400000000E-02 0.  1.
         24    2    1    2    0    0 -0.22204460493E-15 -0.35527136788E-14  0.34452730419E+03  0.35384252434E+03  0.80656485788E+02 0.  0.
         66    2    3    3    0    0 -0.80795422363E+00 -0.20133975329E+02  0.32549693186E+03  0.32612617560E+03  0.20000015808E+01 0.  0.
        -13    1    3    3    0    0  0.80795422363E+00  0.20133975329E+02  0.19030372324E+02  0.27716348738E+02  0.10566000000E+00 0.  1.
         13    1    4    4    0    0 -0.76542042429E+00 -0.13718813769E+02  0.22626901890E+03  0.22668584385E+03  0.10566000000E+00 0. -1.
        -13    1    4    4    0    0 -0.38431704640E+00 -0.39372188328E+01  0.65866534270E+02  0.65985308157E+02  0.10566000000E+00 0.  1.
        -14    1    4    4    0    0  0.34178324705E+00 -0.24779427267E+01  0.33361378688E+02  0.33455023597E+02  0.00000000000E+00 0.  1.
<mgrwt>
<rscale>  0 0.80656486E+02</rscale>
<asrwt>0</asrwt>
<pdfrwt beam="1">  1        2 0.53720774E-01 0.80656486E+02</pdfrwt>
<pdfrwt beam="2">  1       -1 0.71655516E-03 0.80656486E+02</pdfrwt>
<totfact> 0.26357232E+05</totfact>
</mgrwt>
</event>
<event>
 8    1  0.2462435E-024  0.7865288E+02  0.7818608E-02  0.1332918E+00
          2   -1    0    0  501    0  0.00000000000E+00  0.00000000000E+00  0.25371495764E+03  0.25371495765E+03  0.25500000000E-02 0. -1.
         -1   -1    0    0    0  501 -0.00000000000E+00 -0.00000000000E+00 -0.60956935760E+01  0.60956956595E+01  0.50400000000E-02 0.  1.
         24    2    1    2    0    0  0.88817841970E-15 -0.35527136788E-14  0.24761926407E+03  0.25981065331E+03  0.78652880678E+02 0.  0.
         66    2    3    3    0    0  0.69476205291E+01  0.27758622726E+02  0.21287857278E+03  0.21480246115E+03  0.20000002572E+01 0.  0.
        -13    1    3    3    0    0 -0.69476205291E+01 -0.27758622726E+02  0.34740691281E+02  0.45008192159E+02  0.10566000000E+00 0.  1.
         13    1    4    4    0    0  0.80004455167E+00  0.22457442593E+01  0.16502986696E+02  0.16674626607E+02  0.10566000000E+00 0. -1.
        -13    1    4    4    0    0  0.11536898675E+01  0.29125887088E+01  0.25430614438E+02  0.25623065547E+02  0.10566000000E+00 0.  1.
         14    1    4    4    0    0  0.49938861099E+01  0.22600289758E+02  0.17094497165E+03  0.17250476900E+03  0.00000000000E+00 0. -1.
<mgrwt>
<rscale>  0 0.78652881E+02</rscale>
<asrwt>0</asrwt>
<pdfrwt beam="1">  1        2 0.39033057E-01 0.78652881E+02</pdfrwt>
<pdfrwt beam="2">  1       -1 0.93779950E-03 0.78652881E+02</pdfrwt>
<totfact> 0.25089185E+05</totfact>
</mgrwt>
</event>
<event>
 8    1  0.2389776E-024  0.7908110E+02  0.7818608E-02  0.1331680E+00
         -1   -1    0    0    0  501 -0.00000000000E+00  0.00000000000E+00  0.22308107812E+03  0.22308107818E+03  0.50400000000E-02 0.  1.
          2   -1    0    0  501    0  0.00000000000E+00 -0.00000000000E+00 -0.70084607291E+01  0.70084611930E+01  0.25500000000E-02 0. -1.
         24    2    1    2    0    0  0.00000000000E+00  0.00000000000E+00  0.21607261740E+03  0.23008953937E+03  0.79081098509E+02 0.  0.
         66    2    3    3    0    0 -0.11147632732E+02 -0.37884110856E+02  0.11219359799E+03  0.11895746746E+03  0.20000160357E+01 0.  0.
        -13    1    3    3    0    0  0.11147632732E+02  0.37884110856E+02  0.10387901941E+03  0.11113207191E+03  0.10566000000E+00 0.  1.
         13    1    4    4    0    0 -0.46075892380E+01 -0.18137197614E+02  0.54603500221E+02  0.57721237134E+02  0.10566000000E+00 0. -1.
        -13    1    4    4    0    0 -0.39104125329E+01 -0.12751484325E+02  0.36372655948E+02  0.38741101474E+02  0.10566000000E+00 0.  1.
         14    1    4    4    0    0 -0.26296309610E+01 -0.69954289173E+01  0.21217441818E+02  0.22495128851E+02  0.00000000000E+00 0. -1.
<mgrwt>
<rscale>  0 0.79081099E+02</rscale>
<asrwt>0</asrwt>
<pdfrwt beam="1">  1        2 0.10782247E-02 0.79081099E+02</pdfrwt>
<pdfrwt beam="2">  1       -1 0.34320167E-01 0.79081099E+02</pdfrwt>
<totfact> 0.99127322E+04</totfact>
</mgrwt>
</event>
<event>
 8    1  0.2389776E-024  0.7877014E+02  0.7818608E-02  0.1332578E+00
          2   -1    0    0  501    0  0.00000000000E+00  0.00000000000E+00  0.33789398982E+03  0.33789398983E+03  0.25500000000E-02 0. -1.
         -1   -1    0    0    0  501 -0.00000000000E+00 -0.00000000000E+00 -0.45907396168E+01  0.45907423834E+01  0.50400000000E-02 0.  1.
         24    2    1    2    0    0  0.00000000000E+00  0.00000000000E+00  0.33330325020E+03  0.34248473221E+03  0.78770141571E+02 0.  0.
         66    2    3    3    0    0  0.91797378300E+01  0.35408021718E+02  0.22994308476E+03  0.23284290373E+03  0.20000000155E+01 0.  0.
        -13    1    3    3    0    0 -0.91797378300E+01 -0.35408021718E+02  0.10336016545E+03  0.10964182849E+03  0.10566000000E+00 0.  1.
         13    1    4    4    0    0  0.40281678945E+01  0.16093298967E+02  0.10640528833E+03  0.10769083971E+03  0.10566000000E+00 0. -1.
        -13    1    4    4    0    0  0.88496364188E+00  0.22864983526E+01  0.13122240738E+02  0.13349741622E+02  0.10566000000E+00 0. -1.
        -14    1    4    4    0    0  0.42666062936E+01  0.17028224398E+02  0.11041555569E+03  0.11180232239E+03  0.00000000000E+00 0.  1.
<mgrwt>
<rscale>  0 0.78770142E+02</rscale>
<asrwt>0</asrwt>
<pdfrwt beam="1">  1        2 0.51983679E-01 0.78770142E+02</pdfrwt>
<pdfrwt beam="2">  1       -1 0.70626801E-03 0.78770142E+02</pdfrwt>
<totfact> 0.27712726E+05</totfact>
</mgrwt>
</event>
<event>
 8    1  0.2389776E-024  0.8020806E+02  0.7818608E-02  0.1328462E+00
          2   -1    0    0  501    0  0.00000000000E+00  0.00000000000E+00  0.61968310363E+03  0.61968310364E+03  0.25500000000E-02 0. -1.
         -1   -1    0    0    0  501 -0.00000000000E+00 -0.00000000000E+00 -0.25954102720E+01  0.25954151655E+01  0.50400000000E-02 0.  1.
         24    2    1    2    0    0  0.71054273576E-14  0.00000000000E+00  0.61708769336E+03  0.62227851880E+03  0.80208064850E+02 0.  0.
         66    2    3    3    0    0  0.33774740850E+02  0.88518821307E+01  0.46140617113E+03  0.46272966590E+03  0.20000010745E+01 0.  0.
        -13    1    3    3    0    0 -0.33774740850E+02 -0.88518821307E+01  0.15568152223E+03  0.15954885291E+03  0.10566000000E+00 0.  1.
         13    1    4    4    0    0  0.95710261760E+01  0.19813525733E+01  0.13088809354E+03  0.13125255995E+03  0.10566000000E+00 0. -1.
        -13    1    4    4    0    0  0.16055859852E+02  0.46619387411E+01  0.21116903753E+03  0.21182987958E+03  0.10566000000E+00 0.  1.
        -14    1    4    4    0    0  0.81478548225E+01  0.22085908164E+01  0.11934904007E+03  0.11964722636E+03  0.00000000000E+00 0.  1.
<mgrwt>
<rscale>  0 0.80208065E+02</rscale>
<asrwt>0</asrwt>
<pdfrwt beam="1">  1        2 0.95335941E-01 0.80208065E+02</pdfrwt>
<pdfrwt beam="2">  1       -1 0.39929393E-03 0.80208065E+02</pdfrwt>
<totfact> 0.32230431E+05</totfact>
</mgrwt>
</event>
<event>
 8    1  0.2389776E-024  0.7936334E+02  0.7818608E-02  0.1330868E+00
          2   -1    0    0  501    0  0.00000000000E+00  0.00000000000E+00  0.29659318992E+03  0.29659318993E+03  0.25500000000E-02 0. -1.
         -1   -1    0    0    0  501 -0.00000000000E+00 -0.00000000000E+00 -0.53090713570E+01  0.53090737493E+01  0.50400000000E-02 0.  1.
         24    2    1    2    0    0  0.00000000000E+00  0.17763568394E-14  0.29128411857E+03  0.30190226368E+03  0.79363335919E+02 0.  0.
         66    2    3    3    0    0  0.37233171572E+02  0.64489717334E+01  0.19149871899E+03  0.19520158218E+03  0.20000017577E+01 0.  0.
        -13    1    3    3    0    0 -0.37233171572E+02 -0.64489717334E+01  0.99785399574E+02  0.10670068151E+03  0.10566000000E+00 0.  1.
         13    1    4    4    0    0  0.51176903944E+01  0.10413280547E+01  0.28825517600E+02  0.29294995273E+02  0.10566000000E+00 0. -1.
        -13    1    4    4    0    0  0.15383289682E+01  0.78050284399E-01  0.67772044931E+01  0.69508425848E+01  0.10566000000E+00 0. -1.
         14    1    4    4    0    0  0.30577152210E+02  0.53295933943E+01  0.15589599690E+03  0.15895574432E+03  0.00000000000E+00 0. -1.
<mgrwt>
<rscale>  0 0.79363336E+02</rscale>
<asrwt>0</asrwt>
<pdfrwt beam="1">  1        2 0.45629725E-01 0.79363336E+02</pdfrwt>
<pdfrwt beam="2">  1       -1 0.81678034E-03 0.79363336E+02</pdfrwt>
<totfact> 0.25926616E+05</totfact>
</mgrwt>
</event>
<event>
 8    1  0.2389776E-024  0.8264987E+02  0.7818608E-02  0.1321695E+00
         -1   -1    0    0    0  501 -0.00000000000E+00  0.00000000000E+00  0.12460311355E+01  0.12460413284E+01  0.50400000000E-02 0.  1.
          2   -1    0    0  501    0  0.00000000000E+00 -0.00000000000E+00 -0.13705460737E+04  0.13705460737E+04  0.25500000000E-02 0. -1.
         24    2    1    2    0    0  0.00000000000E+00  0.00000000000E+00 -0.13693000426E+04  0.13717921150E+04  0.82649865660E+02 0.  0.
         66    2    3    3    0    0  0.55016200277E+01 -0.11992807015E+02 -0.13346197125E+04  0.13346864321E+04  0.19999984878E+01 0.  0.
        -13    1    3    3    0    0 -0.55016200277E+01  0.11992807015E+02 -0.34680330107E+02  0.37105682898E+02  0.10566000000E+00 0.  1.
         13    1    4    4    0    0  0.95572178311E+00 -0.27015902901E+01 -0.31294209603E+03  0.31295523422E+03  0.10566000000E+00 0. -1.
        -13    1    4    4    0    0  0.35238317947E+01 -0.79343036544E+01 -0.80135716131E+03  0.80140419372E+03  0.10566000000E+00 0.  1.
         14    1    4    4    0    0  0.10220664499E+01 -0.13569130704E+01 -0.22032045514E+03  0.22032700421E+03  0.00000000000E+00 0. -1.
<mgrwt>
<rscale>  0 0.82649866E+02</rscale>
<asrwt>0</asrwt>
<pdfrwt beam="1">  1        2 0.21085204E+00 0.82649866E+02</pdfrwt>
<pdfrwt beam="2">  1       -1 0.19169898E-03 0.82649866E+02</pdfrwt>
<totfact> 0.31427832E+05</totfact>
</mgrwt>
</event>
<event>
 8    1  0.2389776E-024  0.7889754E+02  0.7818608E-02  0.1332209E+00
          2   -1    0    0  501    0  0.00000000000E+00  0.00000000000E+00  0.19577178099E+02  0.19577178265E+02  0.25500000000E-02 0. -1.
         -1   -1    0    0    0  501 -0.00000000000E+00 -0.00000000000E+00 -0.79490796557E+02  0.79490796717E+02  0.50400000000E-02 0.  1.
         24    2    1    2    0    0  0.71054273576E-14  0.00000000000E+00 -0.59913618458E+02  0.99067974982E+02  0.78897541092E+02 0.  0.
         66    2    3    3    0    0 -0.28964745114E+02  0.19049188899E+02 -0.64053954794E+01  0.35310864417E+02  0.19999993646E+01 0.  0.
        -13    1    3    3    0    0  0.28964745114E+02 -0.19049188899E+02 -0.53508222979E+02  0.63757110565E+02  0.10566000000E+00 0.  1.
         13    1    4    4    0    0 -0.14205354037E+02  0.82994124908E+01 -0.32654779271E+01  0.16773396827E+02  0.10566000000E+00 0. -1.
        -13    1    4    4    0    0 -0.11459367844E+02  0.85230034157E+01 -0.26631587092E+01  0.14527982549E+02  0.10566000000E+00 0.  1.
        -14    1    4    4    0    0 -0.33000232331E+01  0.22267729923E+01 -0.47675884313E+00  0.40094850408E+01  0.00000000000E+00 0.  1.
<mgrwt>
<rscale>  0 0.78897541E+02</rscale>
<asrwt>0</asrwt>
<pdfrwt beam="1">  1        2 0.30118736E-02 0.78897541E+02</pdfrwt>
<pdfrwt beam="2">  1       -1 0.12229353E-01 0.78897541E+02</pdfrwt>
<totfact> 0.12864749E+05</totfact>
</mgrwt>
</event>
<event>
 8    1  0.2389776E-024  0.8041349E+02  0.7818608E-02  0.1327882E+00
          2   -1    0    0  501    0  0.00000000000E+00  0.00000000000E+00  0.19129562599E+03  0.19129562601E+03  0.25500000000E-02 0. -1.
         -1   -1    0    0    0  501 -0.00000000000E+00 -0.00000000000E+00 -0.84507021480E+01  0.84507036509E+01  0.50400000000E-02 0.  1.
         24    2    1    2    0    0  0.00000000000E+00 -0.35527136788E-14  0.18284492384E+03  0.19974632966E+03  0.80413494123E+02 0.  0.
         66    2    3    3    0    0 -0.11240786900E+02  0.29158758249E+02  0.15422058762E+03  0.15736765270E+03  0.19999992073E+01 0.  0.
        -13    1    3    3    0    0  0.11240786900E+02 -0.29158758249E+02  0.28624336222E+02  0.42378676961E+02  0.10566000000E+00 0.  1.
         13    1    4    4    0    0 -0.39911136943E+01  0.10826226893E+02  0.60573085242E+02  0.61662354780E+02  0.10566000000E+00 0. -1.
        -13    1    4    4    0    0 -0.12551474585E+01  0.32116737799E+01  0.18252382985E+02  0.18575545545E+02  0.10566000000E+00 0.  1.
         14    1    4    4    0    0 -0.59945257471E+01  0.15120857576E+02  0.75395119393E+02  0.77129752373E+02  0.00000000000E+00 0. -1.
<mgrwt>
<rscale>  0 0.80413494E+02</rscale>
<asrwt>0</asrwt>
<pdfrwt beam="1">  1        2 0.29430097E-01 0.80413494E+02</pdfrwt>
<pdfrwt beam="2">  1       -1 0.13001081E-02 0.80413494E+02</pdfrwt>
<totfact> 0.21427986E+05</totfact>
</mgrwt>
</event>
<event>
 8    1  0.2389776E-024  0.7826373E+02  0.7818608E-02  0.1334052E+00
         -1   -1    0    0    0  501 -0.00000000000E+00  0.00000000000E+00  0.25157144816E+01  0.25157195302E+01  0.50400000000E-02 0.  1.
          2   -1    0    0  501    0  0.00000000000E+00 -0.00000000000E+00 -0.60869443459E+03  0.60869443460E+03  0.25500000000E-02 0. -1.
         24    2    1    2    0    0  0.00000000000E+00  0.00000000000E+00 -0.60617872011E+03  0.61121015413E+03  0.78263732302E+02 0.  0.
         66    2    3    3    0    0 -0.66896326550E+01  0.25803553462E+02 -0.52674613396E+03  0.52742398902E+03  0.19999997788E+01 0.  0.
        -13    1    3    3    0    0  0.66896326550E+01 -0.25803553462E+02 -0.79432586153E+02  0.83786165106E+02  0.10566000000E+00 0.  1.
         13    1    4    4    0    0 -0.25190580702E+01  0.10791866516E+02 -0.21868967818E+03  0.21897030973E+03  0.10566000000E+00 0.  1.
        -13    1    4    4    0    0 -0.15838488083E+01  0.81957408767E+01 -0.15874266731E+03  0.15896202168E+03  0.10566000000E+00 0. -1.
        -14    1    4    4    0    0 -0.25867257766E+01  0.68159460687E+01 -0.14931378846E+03  0.14949165761E+03  0.00000000000E+00 0.  1.
<mgrwt>
<rscale>  0 0.78263732E+02</rscale>
<asrwt>0</asrwt>
<pdfrwt beam="1">  1        2 0.93645180E-01 0.78263732E+02</pdfrwt>
<pdfrwt beam="2">  1       -1 0.38703387E-03 0.78263732E+02</pdfrwt>
<totfact> 0.34186708E+05</totfact>
</mgrwt>
</event>
<event>
 8    1  0.2389776E-024  0.7965767E+02  0.7818608E-02  0.1330026E+00
          2   -1    0    0  501    0  0.00000000000E+00  0.00000000000E+00  0.39964998709E+02  0.39964998791E+02  0.25500000000E-02 0. -1.
         -1   -1    0    0    0  501 -0.00000000000E+00 -0.00000000000E+00 -0.39693132777E+02  0.39693133097E+02  0.50400000000E-02 0.  1.
         24    2    1    2    0    0  0.00000000000E+00  0.35527136788E-14  0.27186593187E+00  0.79658131888E+02  0.79657667960E+02 0.  0.
         66    2    3    3    0    0 -0.27942022341E+02 -0.27102463103E+02  0.84445526463E+01  0.39882459789E+02  0.20000026547E+01 0.  0.
        -13    1    3    3    0    0  0.27942022341E+02  0.27102463103E+02 -0.81726867144E+01  0.39775672099E+02  0.10566000000E+00 0.  1.
         13    1    4    4    0    0 -0.65502963424E+01 -0.67141963534E+01  0.27974728507E+01  0.97889648703E+01  0.10566000000E+00 0. -1.
        -13    1    4    4    0    0 -0.87293065379E+01 -0.84883057933E+01  0.20291457460E+01  0.12344258761E+02  0.10566000000E+00 0.  1.
         14    1    4    4    0    0 -0.12662419461E+02 -0.11899960956E+02  0.36179340496E+01  0.17749236157E+02  0.00000000000E+00 0. -1.
<mgrwt>
<rscale>  0 0.79657668E+02</rscale>
<asrwt>0</asrwt>
<pdfrwt beam="1">  1        2 0.61484613E-02 0.79657668E+02</pdfrwt>
<pdfrwt beam="2">  1       -1 0.61066359E-02 0.79657668E+02</pdfrwt>
<totfact> 0.14422607E+05</totfact>
</mgrwt>
</event>
<event>
 8    1  0.2389776E-024  0.7918211E+02  0.7818608E-02  0.1331389E+00
         -1   -1    0    0    0  501 -0.00000000000E+00  0.00000000000E+00  0.14481792579E+02  0.14481793456E+02  0.50400000000E-02 0.  1.
          2   -1    0    0  501    0  0.00000000000E+00 -0.00000000000E+00 -0.10823602238E+03  0.10823602241E+03  0.25500000000E-02 0. -1.
         24    2    1    2    0    0  0.44408920985E-15 -0.71054273576E-14 -0.93754229797E+02  0.12271781586E+03  0.79182111144E+02 0.  0.
         66    2    3    3    0    0 -0.34856977017E+01  0.36972753847E+02 -0.68061356385E+02  0.77559543932E+02  0.20000016187E+01 0.  0.
        -13    1    3    3    0    0  0.34856977017E+01 -0.36972753847E+02 -0.25692873413E+02  0.45158271931E+02  0.10566000000E+00 0.  1.
         13    1    4    4    0    0 -0.21640000972E+01  0.20818872958E+02 -0.37000006971E+02  0.42510234622E+02  0.10566000000E+00 0. -1.
        -13    1    4    4    0    0 -0.50860895262E+00  0.58479343738E+01 -0.10271731576E+02  0.11831172939E+02  0.10566000000E+00 0.  1.
         14    1    4    4    0    0 -0.81308865192E+00  0.10305946515E+02 -0.20789617837E+02  0.23218136371E+02  0.00000000000E+00 0. -1.
<mgrwt>
<rscale>  0 0.79182111E+02</rscale>
<asrwt>0</asrwt>
<pdfrwt beam="1">  1        2 0.16651695E-01 0.79182111E+02</pdfrwt>
<pdfrwt beam="2">  1       -1 0.22279682E-02 0.79182111E+02</pdfrwt>
<totfact> 0.18633526E+05</totfact>
</mgrwt>
</event>
<event>
 8    1  0.2389776E-024  0.8482540E+02  0.7818608E-02  0.1315890E+00
         -1   -1    0    0    0  501 -0.00000000000E+00  0.00000000000E+00  0.15565791520E+02  0.15565792335E+02  0.50400000000E-02 0.  1.
          2   -1    0    0  501    0  0.00000000000E+00 -0.00000000000E+00 -0.11556347980E+03  0.11556347983E+03  0.25500000000E-02 0. -1.
         24    2    1    2    0    0  0.35527136788E-14 -0.17763568394E-14 -0.99997688284E+02  0.13112927217E+03  0.84825399244E+02 0.  0.
         66    2    3    3    0    0  0.29874338854E+02 -0.14558961519E+02 -0.90703657657E+02  0.96620872439E+02  0.19999990274E+01 0.  0.
        -13    1    3    3    0    0 -0.29874338854E+02  0.14558961519E+02 -0.92940306269E+01  0.34508399728E+02  0.10566000000E+00 0.  1.
         13    1    4    4    0    0  0.18066779110E+02 -0.85664260913E+01 -0.54880630840E+02  0.58409647909E+02  0.10566000000E+00 0. -1.
        -13    1    4    4    0    0  0.52958864307E+01 -0.33483234718E+01 -0.16525045450E+02  0.17673312489E+02  0.10566000000E+00 0.  1.
        -14    1    4    4    0    0  0.65116733130E+01 -0.26442119556E+01 -0.19297981367E+02  0.20537912042E+02  0.00000000000E+00 0.  1.
<mgrwt>
<rscale>  0 0.84825399E+02</rscale>
<asrwt>0</asrwt>
<pdfrwt beam="1">  1        2 0.17778996E-01 0.84825399E+02</pdfrwt>
<pdfrwt beam="2">  1       -1 0.23947373E-02 0.84825399E+02</pdfrwt>
<totfact> 0.15795890E+05</totfact>
</mgrwt>
</event>
<event>
 8    1  0.2389776E-024  0.8076836E+02  0.7818608E-02  0.1326885E+00
         -1   -1    0    0    0  501 -0.00000000000E+00  0.00000000000E+00  0.29654067403E+02  0.29654067831E+02  0.50400000000E-02 0.  1.
          2   -1    0    0  501    0  0.00000000000E+00 -0.00000000000E+00 -0.54996904461E+02  0.54996904520E+02  0.25500000000E-02 0. -1.
         24    2    1    2    0    0 -0.17763568394E-14  0.00000000000E+00 -0.25342837058E+02  0.84650972351E+02  0.80768358469E+02 0.  0.
         66    2    3    3    0    0 -0.10383609738E+02 -0.65442020634E+01 -0.52975158545E+02  0.54415194097E+02  0.19999984607E+01 0.  0.
        -13    1    3    3    0    0  0.10383609738E+02  0.65442020634E+01  0.27632321487E+02  0.30235778254E+02  0.10566000000E+00 0.  1.
         13    1    4    4    0    0 -0.22179405138E+01 -0.76979629809E+00 -0.89806550584E+01  0.92830585357E+01  0.10566000000E+00 0. -1.
        -13    1    4    4    0    0 -0.65652732647E+01 -0.43210422007E+01 -0.36187342426E+02  0.37031191375E+02  0.10566000000E+00 0.  1.
        -14    1    4    4    0    0 -0.16003959595E+01 -0.14533635646E+01 -0.78071610606E+01  0.81009441860E+01  0.00000000000E+00 0.  1.
<mgrwt>
<rscale>  0 0.80768358E+02</rscale>
<asrwt>0</asrwt>
<pdfrwt beam="1">  1        2 0.84610622E-02 0.80768358E+02</pdfrwt>
<pdfrwt beam="2">  1       -1 0.45621643E-02 0.80768358E+02</pdfrwt>
<totfact> 0.14867502E+05</totfact>
</mgrwt>
</event>
<event>
 8    1  0.2389776E-024  0.8086215E+02  0.7818608E-02  0.1326622E+00
          2   -1    0    0  501    0  0.00000000000E+00  0.00000000000E+00  0.72318112338E+03  0.72318112338E+03  0.25500000000E-02 0. -1.
         -1   -1    0    0    0  501 -0.00000000000E+00 -0.00000000000E+00 -0.22603876578E+01  0.22603932767E+01  0.50400000000E-02 0.  1.
         24    2    1    2    0    0  0.35527136788E-14  0.00000000000E+00  0.72092073572E+03  0.72544151666E+03  0.80862147520E+02 0.  0.
         66    2    3    3    0    0 -0.18788337601E+02  0.27628561378E+02  0.56453455172E+03  0.56552594911E+03  0.20000000356E+01 0.  0.
        -13    1    3    3    0    0  0.18788337601E+02 -0.27628561378E+02  0.15638618400E+03  0.15991556754E+03  0.10566000000E+00 0.  1.
         13    1    4    4    0    0 -0.16471238128E+02  0.24421276418E+02  0.49791905435E+03  0.49878963128E+03  0.10566000000E+00 0. -1.
        -13    1    4    4    0    0 -0.16573733181E+01  0.26545781764E+01  0.49168557266E+02  0.49268162735E+02  0.10566000000E+00 0.  1.
        -14    1    4    4    0    0 -0.65972615542E+00  0.55270678307E+00  0.17446940109E+02  0.17468155099E+02  0.00000000000E+00 0.  1.
<mgrwt>
<rscale>  0 0.80862148E+02</rscale>
<asrwt>0</asrwt>
<pdfrwt beam="1">  1        2 0.11125868E+00 0.80862148E+02</pdfrwt>
<pdfrwt beam="2">  1       -1 0.34775223E-03 0.80862148E+02</pdfrwt>
<totfact> 0.32769005E+05</totfact>
</mgrwt>
</event>
<event>
 8    1  0.2389776E-024  0.7923943E+02  0.7818608E-02  0.1331224E+00
          2   -1    0    0  501    0  0.00000000000E+00  0.00000000000E+00  0.37917421632E+03  0.37917421633E+03  0.25500000000E-02 0. -1.
         -1   -1    0    0    0  501 -0.00000000000E+00 -0.00000000000E+00 -0.41398421907E+01  0.41398452587E+01  0.50400000000E-02 0.  1.
         24    2    1    2    0    0  0.00000000000E+00 -0.35527136788E-14  0.37503437413E+03  0.38331406159E+03  0.79239434829E+02 0.  0.
         66    2    3    3    0    0  0.24277696906E+02  0.30456073381E+02  0.15317907745E+03  0.15806583673E+03  0.19999999405E+01 0.  0.
        -13    1    3    3    0    0 -0.24277696906E+02 -0.30456073381E+02  0.22185529668E+03  0.22524822486E+03  0.10566000000E+00 0.  1.
         13    1    4    4    0    0  0.44503833618E+01  0.52886631521E+01  0.28881322812E+02  0.29697101566E+02  0.10566000000E+00 0. -1.
        -13    1    4    4    0    0  0.11252881136E+02  0.15359759862E+02  0.72875065041E+02  0.75321549544E+02  0.10566000000E+00 0.  1.
         14    1    4    4    0    0  0.85744324078E+01  0.98076503670E+01  0.51422689597E+02  0.53047185620E+02  0.00000000000E+00 0. -1.
<mgrwt>
<rscale>  0 0.79239435E+02</rscale>
<asrwt>0</asrwt>
<pdfrwt beam="1">  1        2 0.58334494E-01 0.79239435E+02</pdfrwt>
<pdfrwt beam="2">  1       -1 0.63689905E-03 0.79239435E+02</pdfrwt>
<totfact> 0.28427633E+05</totfact>
</mgrwt>
</event>
<event>
 8    1  0.2389776E-024  0.7876250E+02  0.7818608E-02  0.1332600E+00
          2   -1    0    0  501    0  0.00000000000E+00  0.00000000000E+00  0.10117595583E+04  0.10117595583E+04  0.25500000000E-02 0. -1.
         -1   -1    0    0    0  501 -0.00000000000E+00 -0.00000000000E+00 -0.15328529202E+01  0.15328612059E+01  0.50400000000E-02 0.  1.
         24    2    1    2    0    0 -0.88817841970E-15  0.00000000000E+00  0.10102267054E+04  0.10132924195E+04  0.78762498514E+02 0.  0.
         66    2    3    3    0    0 -0.65329478537E+01 -0.22403479101E+02  0.91314054115E+03  0.91344088105E+03  0.20000001895E+01 0.  0.
        -13    1    3    3    0    0  0.65329478537E+01  0.22403479101E+02  0.97086164227E+02  0.99851538455E+02  0.10566000000E+00 0.  1.
         13    1    4    4    0    0 -0.24991663888E+00 -0.96376425348E+00  0.30938933471E+02  0.30955129918E+02  0.10566000000E+00 0.  1.
        -13    1    4    4    0    0 -0.23194364690E+01 -0.72212471477E+01  0.27310624706E+03  0.27321156554E+03  0.10566000000E+00 0. -1.
         14    1    4    4    0    0 -0.39635947458E+01 -0.14218467700E+02  0.60909536062E+03  0.60927418559E+03  0.00000000000E+00 0. -1.
<mgrwt>
<rscale>  0 0.78762499E+02</rscale>
<asrwt>0</asrwt>
<pdfrwt beam="1">  1        2 0.15565556E+00 0.78762499E+02</pdfrwt>
<pdfrwt beam="2">  1       -1 0.23582380E-03 0.78762499E+02</pdfrwt>
<totfact> 0.36701332E+05</totfact>
</mgrwt>
</event>
<event>
 8    1  0.2389776E-024  0.7795650E+02  0.7818608E-02  0.1334953E+00
         -1   -1    0    0    0  501 -0.00000000000E+00  0.00000000000E+00  0.17321718840E+03  0.17321718847E+03  0.50400000000E-02 0.  1.
          2   -1    0    0  501    0  0.00000000000E+00 -0.00000000000E+00 -0.87710911530E+01  0.87710915236E+01  0.25500000000E-02 0. -1.
         24    2    1    2    0    0  0.00000000000E+00  0.00000000000E+00  0.16444609724E+03  0.18198827999E+03  0.77956495280E+02 0.  0.
         66    2    3    3    0    0 -0.20958755145E+02  0.16868270803E+02  0.16516973913E+02  0.31632552898E+02  0.19999996215E+01 0.  0.
        -13    1    3    3    0    0  0.20958755145E+02 -0.16868270803E+02  0.14792912333E+03  0.15035572710E+03  0.10566000000E+00 0.  1.
         13    1    4    4    0    0 -0.11297747728E+02  0.92700276344E+01  0.87454234960E+01  0.17031327377E+02  0.10566000000E+00 0. -1.
        -13    1    4    4    0    0 -0.40554847424E+01  0.33778080305E+01  0.25992926470E+01  0.58842187151E+01  0.10566000000E+00 0.  1.
         14    1    4    4    0    0 -0.56055226742E+01  0.42204351380E+01  0.51722577701E+01  0.87170068054E+01  0.00000000000E+00 0. -1.
<mgrwt>
<rscale>  0 0.77956495E+02</rscale>
<asrwt>0</asrwt>
<pdfrwt beam="1">  1        2 0.13493987E-02 0.77956495E+02</pdfrwt>
<pdfrwt beam="2">  1       -1 0.26648797E-01 0.77956495E+02</pdfrwt>
<totfact> 0.11087552E+05</totfact>
</mgrwt>
</event>
<event>
 8    1  0.2389776E-024  0.8012199E+02  0.7818608E-02  0.1328706E+00
         -1   -1    0    0    0  501 -0.00000000000E+00  0.00000000000E+00  0.30208432890E+01  0.30208474934E+01  0.50400000000E-02 0.  1.
          2   -1    0    0  501    0  0.00000000000E+00 -0.00000000000E+00 -0.53126955339E+03  0.53126955340E+03  0.25500000000E-02 0. -1.
         24    2    1    2    0    0  0.00000000000E+00  0.00000000000E+00 -0.52824871010E+03  0.53429040089E+03  0.80121986741E+02 0.  0.
         66    2    3    3    0    0 -0.32020078482E+01 -0.31666860326E+02 -0.42624223857E+03  0.42743360749E+03  0.19999935530E+01 0.  0.
        -13    1    3    3    0    0  0.32020078482E+01  0.31666860326E+02 -0.10200647153E+03  0.10685679340E+03  0.10566000000E+00 0.  1.
         13    1    4    4    0    0 -0.23880218498E+01 -0.23333840272E+02 -0.32276394468E+03  0.32361512002E+03  0.10566000000E+00 0. -1.
        -13    1    4    4    0    0 -0.86879257556E+00 -0.59941502587E+01 -0.75134654961E+02  0.75378459642E+02  0.10566000000E+00 0. -1.
         14    1    4    4    0    0  0.54806577109E-01 -0.23388697960E+01 -0.28343638928E+02  0.28440027837E+02  0.00000000000E+00 0. -1.
<mgrwt>
<rscale>  0 0.80121987E+02</rscale>
<asrwt>0</asrwt>
<pdfrwt beam="1">  1        2 0.81733704E-01 0.80121987E+02</pdfrwt>
<pdfrwt beam="2">  1       -1 0.46474587E-03 0.80121987E+02</pdfrwt>
<totfact> 0.30911843E+05</totfact>
</mgrwt>
</event>
<event>
 8    1  0.2389776E-024  0.7123013E+02  0.7818608E-02  0.1355959E+00
          2   -1    0    0  501    0  0.00000000000E+00  0.00000000000E+00  0.53778753884E+02  0.53778753944E+02  0.25500000000E-02 0. -1.
         -1   -1    0    0    0  501 -0.00000000000E+00 -0.00000000000E+00 -0.23586132438E+02  0.23586132977E+02  0.50400000000E-02 0.  1.
         24    2    1    2    0    0 -0.44408920985E-15  0.00000000000E+00  0.30192621446E+02  0.77364886921E+02  0.71230129429E+02 0.  0.
         66    2    3    3    0    0 -0.35665469635E+01 -0.35348094181E+02  0.17339372898E+02  0.39583606084E+02  0.19999996591E+01 0.  0.
        -13    1    3    3    0    0  0.35665469635E+01  0.35348094181E+02  0.12853248548E+02  0.37781280837E+02  0.10566000000E+00 0.  1.
         13    1    4    4    0    0 -0.33365112470E+01 -0.24145756582E+02  0.11817183594E+02  0.27088869677E+02  0.10566000000E+00 0. -1.
        -13    1    4    4    0    0 -0.15621250815E+00 -0.32151998183E+01  0.15857867634E+01  0.35899576479E+01  0.10566000000E+00 0.  1.
         14    1    4    4    0    0 -0.73823208316E-01 -0.79871377804E+01  0.39364025404E+01  0.89047787592E+01  0.00000000000E+00 0. -1.
<mgrwt>
<rscale>  0 0.71230129E+02</rscale>
<asrwt>0</asrwt>
<pdfrwt beam="1">  1        2 0.82736543E-02 0.71230129E+02</pdfrwt>
<pdfrwt beam="2">  1       -1 0.36286359E-02 0.71230129E+02</pdfrwt>
<totfact> 0.20791822E+05</totfact>
</mgrwt>
</event>
<event>
 8    1  0.2389776E-024  0.7970480E+02  0.7818608E-02  0.1329891E+00
          2   -1    0    0  501    0  0.00000000000E+00  0.00000000000E+00  0.15507637586E+03  0.15507637588E+03  0.25500000000E-02 0. -1.
         -1   -1    0    0    0  501 -0.00000000000E+00 -0.00000000000E+00 -0.10241492527E+02  0.10241493768E+02  0.50400000000E-02 0.  1.
         24    2    1    2    0    0 -0.17763568394E-14 -0.35527136788E-14  0.14483488333E+03  0.16531786965E+03  0.79704796563E+02 0.  0.
         66    2    3    3    0    0  0.99777591396E+01  0.11233286124E+02  0.14896604669E+03  0.14973518473E+03  0.20000208892E+01 0.  0.
        -13    1    3    3    0    0 -0.99777591396E+01 -0.11233286124E+02 -0.41311633604E+01  0.15582684921E+02  0.10566000000E+00 0.  1.
         13    1    4    4    0    0  0.41170734871E+01  0.42444068628E+01  0.54909945078E+02  0.55227515934E+02  0.10566000000E+00 0. -1.
        -13    1    4    4    0    0  0.39025575049E+01  0.36079335437E+01  0.55698738041E+02  0.55951833955E+02  0.10566000000E+00 0.  1.
        -14    1    4    4    0    0  0.19581281476E+01  0.33809457174E+01  0.38357363575E+02  0.38555834840E+02  0.00000000000E+00 0.  1.
<mgrwt>
<rscale>  0 0.79704797E+02</rscale>
<asrwt>0</asrwt>
<pdfrwt beam="1">  1        2 0.23857903E-01 0.79704797E+02</pdfrwt>
<pdfrwt beam="2">  1       -1 0.15756144E-02 0.79704797E+02</pdfrwt>
<totfact> 0.20446437E+05</totfact>
</mgrwt>
</event>
<event>
 8    1  0.2389776E-024  0.8719098E+02  0.7818608E-02  0.1309800E+00
         -1   -1    0    0    0  501 -0.00000000000E+00  0.00000000000E+00  0.18684404507E+01  0.18684472482E+01  0.50400000000E-02 0.  1.
          2   -1    0    0  501    0  0.00000000000E+00 -0.00000000000E+00 -0.10171923682E+04  0.10171923682E+04  0.25500000000E-02 0. -1.
         24    2    1    2    0    0  0.00000000000E+00  0.00000000000E+00 -0.10153239277E+04  0.10190608154E+04  0.87190981919E+02 0.  0.
         66    2    3    3    0    0  0.10502529855E+02  0.12936437408E+02 -0.97848031776E+03  0.97862423168E+03  0.20000075897E+01 0.  0.
        -13    1    3    3    0    0 -0.10502529855E+02 -0.12936437408E+02 -0.36843609942E+02  0.40436583730E+02  0.10566000000E+00 0.  1.
         13    1    4    4    0    0  0.69294507439E+01  0.74443527909E+01 -0.59235918068E+03  0.59244649191E+03  0.10566000000E+00 0. -1.
        -13    1    4    4    0    0  0.46413040893E+00  0.11612855088E+01 -0.87820979849E+02  0.87829947437E+02  0.10566000000E+00 0.  1.
         14    1    4    4    0    0  0.31089487018E+01  0.43307991079E+01 -0.29830015723E+03  0.29834779233E+03  0.00000000000E+00 0. -1.
<mgrwt>
<rscale>  0 0.87190982E+02</rscale>
<asrwt>0</asrwt>
<pdfrwt beam="1">  1        2 0.15649069E+00 0.87190982E+02</pdfrwt>
<pdfrwt beam="2">  1       -1 0.28745371E-03 0.87190982E+02</pdfrwt>
<totfact> 0.28165675E+05</totfact>
</mgrwt>
</event>
<event>
 8    1  0.2389776E-024  0.8052008E+02  0.7818608E-02  0.1327582E+00
          2   -1    0    0  501    0  0.00000000000E+00  0.00000000000E+00  0.12368309151E+02  0.12368309414E+02  0.25500000000E-02 0. -1.
         -1   -1    0    0    0  501 -0.00000000000E+00 -0.00000000000E+00 -0.13105030261E+03  0.13105030271E+03  0.50400000000E-02 0.  1.
         24    2    1    2    0    0 -0.17763568394E-14  0.00000000000E+00 -0.11868199346E+03  0.14341861212E+03  0.80520076573E+02 0.  0.
         66    2    3    3    0    0  0.14556371899E+02 -0.24816194086E+02 -0.92788080728E+01  0.30295671970E+02  0.20000022660E+01 0.  0.
        -13    1    3    3    0    0 -0.14556371899E+02  0.24816194086E+02 -0.10940318539E+03  0.11312294015E+03  0.10566000000E+00 0.  1.
         13    1    4    4    0    0  0.87972907197E+01 -0.13257304066E+02 -0.49362230676E+01  0.16659108539E+02  0.10566000000E+00 0. -1.
        -13    1    4    4    0    0  0.43455502847E+01 -0.84279762104E+01 -0.34049522129E+01  0.10075686274E+02  0.10566000000E+00 0.  1.
        -14    1    4    4    0    0  0.14135308949E+01 -0.31309138098E+01 -0.93763279238E+00  0.35608771572E+01  0.00000000000E+00 0.  1.
<mgrwt>
<rscale>  0 0.80520077E+02</rscale>
<asrwt>0</asrwt>
<pdfrwt beam="1">  1        2 0.19028169E-02 0.80520077E+02</pdfrwt>
<pdfrwt beam="2">  1       -1 0.20161584E-01 0.80520077E+02</pdfrwt>
<totfact> 0.10971937E+05</totfact>
</mgrwt>
</event>
<event>
 8    1  0.2389776E-024  0.7954036E+02  0.7818608E-02  0.1330361E+00
         -1   -1    0    0    0  501 -0.00000000000E+00  0.00000000000E+00  0.10637983959E+02  0.10637985153E+02  0.50400000000E-02 0.  1.
          2   -1    0    0  501    0  0.00000000000E+00 -0.00000000000E+00 -0.14868110942E+03  0.14868110944E+03  0.25500000000E-02 0. -1.
         24    2    1    2    0    0  0.00000000000E+00  0.22204460493E-15 -0.13804312546E+03  0.15931909459E+03  0.79540363434E+02 0.  0.
         66    2    3    3    0    0 -0.19073197967E+02  0.17871334063E+01 -0.13881659779E+03  0.14014645393E+03  0.20000002932E+01 0.  0.
        -13    1    3    3    0    0  0.19073197967E+02 -0.17871334063E+01  0.77347232937E+00  0.19172640663E+02  0.10566000000E+00 0.  1.
         13    1    4    4    0    0 -0.81067262373E+01  0.76237732429E+00 -0.57107814123E+02  0.57685473279E+02  0.10566000000E+00 0. -1.
        -13    1    4    4    0    0 -0.58652677609E+01  0.12762852664E+01 -0.44858975650E+02  0.45258912166E+02  0.10566000000E+00 0.  1.
        -14    1    4    4    0    0 -0.51012039688E+01 -0.25152918432E+00 -0.36849808012E+02  0.37202068483E+02  0.00000000000E+00 0.  1.
<mgrwt>
<rscale>  0 0.79540363E+02</rscale>
<asrwt>0</asrwt>
<pdfrwt beam="1">  1        2 0.22874015E-01 0.79540363E+02</pdfrwt>
<pdfrwt beam="2">  1       -1 0.16366131E-02 0.79540363E+02</pdfrwt>
<totfact> 0.20280852E+05</totfact>
</mgrwt>
</event>
<event>
 8    1  0.2389776E-024  0.8263962E+02  0.7818608E-02  0.1321723E+00
          2   -1    0    0  501    0  0.00000000000E+00  0.00000000000E+00  0.49470199751E+02  0.49470199816E+02  0.25500000000E-02 0. -1.
         -1   -1    0    0    0  501 -0.00000000000E+00 -0.00000000000E+00 -0.34512227325E+02  0.34512227693E+02  0.50400000000E-02 0.  1.
         24    2    1    2    0    0  0.00000000000E+00 -0.35527136788E-14  0.14957972425E+02  0.83982427510E+02  0.82639622405E+02 0.  0.
         66    2    3    3    0    0  0.55775115522E+01  0.29006419945E+02  0.36811262586E+02  0.47239285456E+02  0.20000010199E+01 0.  0.
        -13    1    3    3    0    0 -0.55775115522E+01 -0.29006419945E+02 -0.21853290161E+02  0.36743142054E+02  0.10566000000E+00 0.  1.
         13    1    4    4    0    0  0.26382070203E+01  0.11041601668E+02  0.15280995466E+02  0.19036730028E+02  0.10566000000E+00 0. -1.
        -13    1    4    4    0    0  0.98351915645E+00  0.47775599174E+01  0.60884035303E+01  0.78020644883E+01  0.10566000000E+00 0. -1.
         14    1    4    4    0    0  0.19557853755E+01  0.13187258359E+02  0.15441863589E+02  0.20400490939E+02  0.00000000000E+00 0. -1.
<mgrwt>
<rscale>  0 0.82639622E+02</rscale>
<asrwt>0</asrwt>
<pdfrwt beam="1">  1        2 0.76108000E-02 0.82639622E+02</pdfrwt>
<pdfrwt beam="2">  1       -1 0.53095735E-02 0.82639622E+02</pdfrwt>
<totfact> 0.13636627E+05</totfact>
</mgrwt>
</event>
<event>
 8    1  0.2389776E-024  0.8399229E+02  0.7818608E-02  0.1318089E+00
         -1   -1    0    0    0  501 -0.00000000000E+00  0.00000000000E+00  0.76181617818E+01  0.76181634490E+01  0.50400000000E-02 0.  1.
          2   -1    0    0  501    0  0.00000000000E+00 -0.00000000000E+00 -0.23150940934E+03  0.23150940935E+03  0.25500000000E-02 0. -1.
         24    2    1    2    0    0  0.88817841970E-15  0.71054273576E-14 -0.22389124755E+03  0.23912757280E+03  0.83992293345E+02 0.  0.
         66    2    3    3    0    0  0.73374689455E+01 -0.40394793123E+02 -0.13684391869E+03  0.14288399437E+03  0.20000008481E+01 0.  0.
        -13    1    3    3    0    0 -0.73374689455E+01  0.40394793123E+02 -0.87047328864E+02  0.96243578426E+02  0.10566000000E+00 0.  1.
         13    1    4    4    0    0  0.35690062525E+01 -0.20408804411E+02 -0.67636890349E+02  0.70739078332E+02  0.10566000000E+00 0. -1.
        -13    1    4    4    0    0  0.31747470135E+01 -0.14970990320E+02 -0.50481758581E+02  0.52750627325E+02  0.10566000000E+00 0.  1.
        -14    1    4    4    0    0  0.59371567948E+00 -0.50149983915E+01 -0.18725269760E+02  0.19394288715E+02  0.00000000000E+00 0.  1.
<mgrwt>
<rscale>  0 0.83992293E+02</rscale>
<asrwt>0</asrwt>
<pdfrwt beam="1">  1        2 0.35616827E-01 0.83992293E+02</pdfrwt>
<pdfrwt beam="2">  1       -1 0.11720252E-02 0.83992293E+02</pdfrwt>
<totfact> 0.20422428E+05</totfact>
</mgrwt>
</event>
<event>
 8    1  0.2389776E-024  0.8079526E+02  0.7818608E-02  0.1326810E+00
         -1   -1    0    0    0  501 -0.00000000000E+00  0.00000000000E+00  0.32765483110E+01  0.32765521873E+01  0.50400000000E-02 0.  1.
          2   -1    0    0  501    0  0.00000000000E+00 -0.00000000000E+00 -0.49807517929E+03  0.49807517929E+03  0.25500000000E-02 0. -1.
         24    2    1    2    0    0  0.88817841970E-15  0.00000000000E+00 -0.49479863098E+03  0.50135173148E+03  0.80795256316E+02 0.  0.
         66    2    3    3    0    0 -0.68022363021E+01  0.21428299917E+02 -0.45563532191E+03  0.45619402564E+03  0.19999997776E+01 0.  0.
        -13    1    3    3    0    0  0.68022363021E+01 -0.21428299917E+02 -0.39163309067E+02  0.45157705844E+02  0.10566000000E+00 0.  1.
         13    1    4    4    0    0 -0.11065836925E+01  0.17528663747E+01 -0.38649352556E+02  0.38705047281E+02  0.10566000000E+00 0.  1.
        -13    1    4    4    0    0 -0.47722247253E+01  0.15933271368E+02 -0.33957244731E+03  0.33997956027E+03  0.10566000000E+00 0. -1.
         14    1    4    4    0    0 -0.92342788434E+00  0.37421621743E+01 -0.77413522039E+02  0.77509418082E+02  0.00000000000E+00 0. -1.
<mgrwt>
<rscale>  0 0.80795256E+02</rscale>
<asrwt>0</asrwt>
<pdfrwt beam="1">  1        2 0.76626891E-01 0.80795256E+02</pdfrwt>
<pdfrwt beam="2">  1       -1 0.50408505E-03 0.80795256E+02</pdfrwt>
<totfact> 0.29639447E+05</totfact>
</mgrwt>
</event>
<event>
 8    1  0.2389776E-024  0.8129689E+02  0.7818608E-02  0.1325411E+00
          2   -1    0    0  501    0  0.00000000000E+00  0.00000000000E+00  0.13473924614E+02  0.13473924855E+02  0.25500000000E-02 0. -1.
         -1   -1    0    0    0  501 -0.00000000000E+00 -0.00000000000E+00 -0.12262916821E+03  0.12262916831E+03  0.50400000000E-02 0.  1.
         24    2    1    2    0    0  0.00000000000E+00  0.88817841970E-15 -0.10915524359E+03  0.13610309317E+03  0.81296892718E+02 0.  0.
         66    2    3    3    0    0  0.24117654316E+02 -0.78300767663E+01 -0.14759204206E+01  0.25478416196E+02  0.19999997208E+01 0.  0.
        -13    1    3    3    0    0 -0.24117654316E+02  0.78300767663E+01 -0.10767932317E+03  0.11062467697E+03  0.10566000000E+00 0.  1.
         13    1    4    4    0    0  0.19159357015E+02 -0.65328842813E+01 -0.69130232509E+00  0.20254594570E+02  0.10566000000E+00 0. -1.
        -13    1    4    4    0    0  0.24103327086E+01 -0.39381511948E+00 -0.16365035895E+00  0.24500488954E+01  0.10566000000E+00 0.  1.
         14    1    4    4    0    0  0.25479645923E+01 -0.90337736557E+00 -0.62096773652E+00  0.27737727301E+01  0.00000000000E+00 0. -1.
<mgrwt>
<rscale>  0 0.81296893E+02</rscale>
<asrwt>0</asrwt>
<pdfrwt beam="1">  1        2 0.20729116E-02 0.81296893E+02</pdfrwt>
<pdfrwt beam="2">  1       -1 0.18866025E-01 0.81296893E+02</pdfrwt>
<totfact> 0.10879333E+05</totfact>
</mgrwt>
</event>
<event>
 8    1  0.2389776E-024  0.8060898E+02  0.7818608E-02  0.1327332E+00
         -1   -1    0    0    0  501 -0.00000000000E+00  0.00000000000E+00  0.99283955028E+02  0.99283955156E+02  0.50400000000E-02 0.  1.
          2   -1    0    0  501    0  0.00000000000E+00 -0.00000000000E+00 -0.16361675349E+02  0.16361675548E+02  0.25500000000E-02 0. -1.
         24    2    1    2    0    0 -0.35527136788E-14  0.00000000000E+00  0.82922279679E+02  0.11564563070E+03  0.80608978617E+02 0.  0.
         66    2    3    3    0    0  0.20137322379E+02  0.34311101159E+02  0.50524140465E+02  0.64338574620E+02  0.19999997848E+01 0.  0.
        -13    1    3    3    0    0 -0.20137322379E+02 -0.34311101159E+02  0.32398139214E+02  0.51307056083E+02  0.10566000000E+00 0.  1.
         13    1    4    4    0    0  0.10022378748E+02  0.17165943615E+02  0.26265269956E+02  0.32939235963E+02  0.10566000000E+00 0. -1.
        -13    1    4    4    0    0  0.43255080157E+01  0.66396577430E+01  0.90515504872E+01  0.12030661029E+02  0.10566000000E+00 0.  1.
         14    1    4    4    0    0  0.57894356155E+01  0.10505499801E+02  0.15207320022E+02  0.19368677628E+02  0.00000000000E+00 0. -1.
<mgrwt>
<rscale>  0 0.80608979E+02</rscale>
<asrwt>0</asrwt>
<pdfrwt beam="1">  1        2 0.25171809E-02 0.80608979E+02</pdfrwt>
<pdfrwt beam="2">  1       -1 0.15274455E-01 0.80608979E+02</pdfrwt>
<totfact> 0.11649032E+05</totfact>
</mgrwt>
</event>
<event>
 8    1  0.2389776E-024  0.8033101E+02  0.7818608E-02  0.1328115E+00
          2   -1    0    0  501    0  0.00000000000E+00  0.00000000000E+00  0.36853464445E+03  0.36853464446E+03  0.25500000000E-02 0. -1.
         -1   -1    0    0    0  501 -0.00000000000E+00 -0.00000000000E+00 -0.43775182342E+01  0.43775211355E+01  0.50400000000E-02 0.  1.
         24    2    1    2    0    0 -0.35527136788E-14  0.00000000000E+00  0.36415712622E+03  0.37291216560E+03  0.80331006931E+02 0.  0.
         66    2    3    3    0    0 -0.14652269841E+02 -0.32803525017E+02  0.26529838003E+03  0.26772745602E+03  0.19999999796E+01 0.  0.
        -13    1    3    3    0    0  0.14652269841E+02  0.32803525017E+02  0.98858746193E+02  0.10518470957E+03  0.10566000000E+00 0.  1.
         13    1    4    4    0    0 -0.40413411146E+01 -0.89749630576E+01  0.73364403550E+02  0.74021816191E+02  0.10566000000E+00 0. -1.
        -13    1    4    4    0    0 -0.17061892398E+01 -0.55173930620E+01  0.43061115052E+02  0.43446789311E+02  0.10566000000E+00 0.  1.
         14    1    4    4    0    0 -0.89047394865E+01 -0.18311168898E+02  0.14887286142E+03  0.15025885052E+03  0.00000000000E+00 0. -1.
<mgrwt>
<rscale>  0 0.80331007E+02</rscale>
<asrwt>0</asrwt>
<pdfrwt beam="1">  1        2 0.56697633E-01 0.80331007E+02</pdfrwt>
<pdfrwt beam="2">  1       -1 0.67346462E-03 0.80331007E+02</pdfrwt>
<totfact> 0.27153811E+05</totfact>
</mgrwt>
</event>
<event>
 8    1  0.2389776E-024  0.7984107E+02  0.7818608E-02  0.1329503E+00
          2   -1    0    0  501    0  0.00000000000E+00  0.00000000000E+00  0.29414386451E+02  0.29414386561E+02  0.25500000000E-02 0. -1.
         -1   -1    0    0    0  501 -0.00000000000E+00 -0.00000000000E+00 -0.54179237740E+02  0.54179237974E+02  0.50400000000E-02 0.  1.
         24    2    1    2    0    0  0.00000000000E+00  0.00000000000E+00 -0.24764851289E+02  0.83593624535E+02  0.79841068402E+02 0.  0.
         66    2    3    3    0    0 -0.25733883171E+02 -0.17988052399E+02  0.13380528886E+02  0.34188321531E+02  0.20000009274E+01 0.  0.
        -13    1    3    3    0    0  0.25733883171E+02  0.17988052399E+02 -0.38145380175E+02  0.49405303004E+02  0.10566000000E+00 0.  1.
         13    1    4    4    0    0 -0.49258439290E+01 -0.35710062151E+01  0.28859903270E+01  0.67346958360E+01  0.10566000000E+00 0. -1.
        -13    1    4    4    0    0 -0.13854222861E+02 -0.92899098122E+01  0.61063595201E+01  0.17763465484E+02  0.10566000000E+00 0.  1.
        -14    1    4    4    0    0 -0.69538163813E+01 -0.51271363714E+01  0.43881790389E+01  0.96901602110E+01  0.00000000000E+00 0.  1.
<mgrwt>
<rscale>  0 0.79841068E+02</rscale>
<asrwt>0</asrwt>
<pdfrwt beam="1">  1        2 0.45252902E-02 0.79841068E+02</pdfrwt>
<pdfrwt beam="2">  1       -1 0.83352674E-02 0.79841068E+02</pdfrwt>
<totfact> 0.13477976E+05</totfact>
</mgrwt>
</event>
<event>
 8    1  0.2389776E-024  0.7990525E+02  0.7818608E-02  0.1329321E+00
         -1   -1    0    0    0  501 -0.00000000000E+00  0.00000000000E+00  0.33725195410E+01  0.33725233070E+01  0.50400000000E-02 0.  1.
          2   -1    0    0  501    0  0.00000000000E+00 -0.00000000000E+00 -0.47329932318E+03  0.47329932318E+03  0.25500000000E-02 0. -1.
         24    2    1    2    0    0  0.00000000000E+00  0.00000000000E+00 -0.46992680363E+03  0.47667184649E+03  0.79905246771E+02 0.  0.
         66    2    3    3    0    0  0.13089298096E+02  0.20646544960E+02 -0.42343352232E+03  0.42414332171E+03  0.19999972732E+01 0.  0.
        -13    1    3    3    0    0 -0.13089298096E+02 -0.20646544960E+02 -0.46493281319E+02  0.52528524777E+02  0.10566000000E+00 0.  1.
         13    1    4    4    0    0  0.75111291112E+01  0.12769439359E+02 -0.26251320651E+03  0.26293092324E+03  0.10566000000E+00 0. -1.
        -13    1    4    4    0    0  0.20760666366E+01  0.25289847223E+01 -0.61019884940E+02  0.61107637317E+02  0.10566000000E+00 0.  1.
         14    1    4    4    0    0  0.35021023478E+01  0.53481208790E+01 -0.99900430870E+02  0.10010476115E+03  0.00000000000E+00 0. -1.
<mgrwt>
<rscale>  0 0.79905247E+02</rscale>
<asrwt>0</asrwt>
<pdfrwt beam="1">  1        2 0.72815228E-01 0.79905247E+02</pdfrwt>
<pdfrwt beam="2">  1       -1 0.51884983E-03 0.79905247E+02</pdfrwt>
<totfact> 0.30008154E+05</totfact>
</mgrwt>
</event>
<event>
 8    1  0.2389776E-024  0.7967534E+02  0.7818608E-02  0.1329975E+00
          2   -1    0    0  501    0  0.00000000000E+00  0.00000000000E+00  0.11500917790E+04  0.11500917791E+04  0.25500000000E-02 0. -1.
         -1   -1    0    0    0  501 -0.00000000000E+00 -0.00000000000E+00 -0.13799200501E+01  0.13799292541E+01  0.50400000000E-02 0.  1.
         24    2    1    2    0    0  0.00000000000E+00  0.00000000000E+00  0.11487118590E+04  0.11514717083E+04  0.79675341381E+02 0.  0.
         66    2    3    3    0    0  0.27347459093E+01 -0.19725259991E+02  0.10729395240E+04  0.10731261747E+04  0.20000006769E+01 0.  0.
        -13    1    3    3    0    0 -0.27347459093E+01  0.19725259991E+02  0.75772335023E+02  0.78345533605E+02  0.10566000000E+00 0.  1.
         13    1    4    4    0    0  0.21087402553E+00 -0.16168276594E+01  0.10282239724E+03  0.10283537883E+03  0.10566000000E+00 0.  1.
        -13    1    4    4    0    0  0.85985073620E+00 -0.71833791997E+01  0.42625762702E+03  0.42631903081E+03  0.10566000000E+00 0. -1.
        -14    1    4    4    0    0  0.16640211476E+01 -0.10925053132E+02  0.54385949972E+03  0.54397176506E+03  0.00000000000E+00 0.  1.
<mgrwt>
<rscale>  0 0.79675341E+02</rscale>
<asrwt>0</asrwt>
<pdfrwt beam="1">  1        2 0.17693678E+00 0.79675341E+02</pdfrwt>
<pdfrwt beam="2">  1       -1 0.21229660E-03 0.79675341E+02</pdfrwt>
<totfact> 0.35545597E+05</totfact>
</mgrwt>
</event>
<event>
 8    1  0.2389776E-024  0.8189853E+02  0.7818608E-02  0.1323748E+00
          2   -1    0    0  501    0  0.00000000000E+00  0.00000000000E+00  0.55904931236E+03  0.55904931237E+03  0.25500000000E-02 0. -1.
         -1   -1    0    0    0  501 -0.00000000000E+00 -0.00000000000E+00 -0.29994514900E+01  0.29994557244E+01  0.50400000000E-02 0.  1.
         24    2    1    2    0    0  0.35527136788E-14  0.17763568394E-14  0.55604986087E+03  0.56204876809E+03  0.81898534409E+02 0.  0.
         66    2    3    3    0    0 -0.22500139173E+02 -0.82927099869E+01  0.50578234536E+03  0.50635442744E+03  0.20000002422E+01 0.  0.
        -13    1    3    3    0    0  0.22500139173E+02  0.82927099869E+01  0.50267515511E+02  0.55694340659E+02  0.10566000000E+00 0.  1.
         13    1    4    4    0    0 -0.87519672499E+01 -0.30689207257E+01  0.21080993300E+03  0.21101387211E+03  0.10566000000E+00 0. -1.
        -13    1    4    4    0    0 -0.57652970635E+01 -0.25951983614E+01  0.12033899896E+03  0.12050501873E+03  0.10566000000E+00 0.  1.
         14    1    4    4    0    0 -0.79828748594E+01 -0.26285908999E+01  0.17463341340E+03  0.17483553660E+03  0.00000000000E+00 0. -1.
<mgrwt>
<rscale>  0 0.81898534E+02</rscale>
<asrwt>0</asrwt>
<pdfrwt beam="1">  1        2 0.86007529E-01 0.81898534E+02</pdfrwt>
<pdfrwt beam="2">  1       -1 0.46145471E-03 0.81898534E+02</pdfrwt>
<totfact> 0.29647083E+05</totfact>
</mgrwt>
</event>
<event>
 8    1  0.2389776E-024  0.7819230E+02  0.7818608E-02  0.1334261E+00
         -1   -1    0    0    0  501 -0.00000000000E+00  0.00000000000E+00  0.82557642931E+02  0.82557643085E+02  0.50400000000E-02 0.  1.
          2   -1    0    0  501    0  0.00000000000E+00 -0.00000000000E+00 -0.18514446059E+02  0.18514446235E+02  0.25500000000E-02 0. -1.
         24    2    1    2    0    0  0.00000000000E+00 -0.88817841970E-15  0.64043196872E+02  0.10107208932E+03  0.78192302523E+02 0.  0.
         66    2    3    3    0    0  0.38246759738E+02  0.79794890181E+01  0.31872792284E+02  0.50461487952E+02  0.20000007081E+01 0.  0.
        -13    1    3    3    0    0 -0.38246759738E+02 -0.79794890181E+01  0.32170404588E+02  0.50610601369E+02  0.10566000000E+00 0.  1.
         13    1    4    4    0    0  0.87174376090E+01  0.21510869596E+01  0.68365931796E+01  0.11285878961E+02  0.10566000000E+00 0.  1.
        -13    1    4    4    0    0  0.16745183757E+02  0.26241143002E+01  0.13849857451E+02  0.21888738437E+02  0.10566000000E+00 0. -1.
         14    1    4    4    0    0  0.12784138373E+02  0.32042877583E+01  0.11186341653E+02  0.17286870554E+02  0.00000000000E+00 0. -1.
<mgrwt>
<rscale>  0 0.78192303E+02</rscale>
<asrwt>0</asrwt>
<pdfrwt beam="1">  1        2 0.28483764E-02 0.78192303E+02</pdfrwt>
<pdfrwt beam="2">  1       -1 0.12701176E-01 0.78192303E+02</pdfrwt>
<totfact> 0.13053699E+05</totfact>
</mgrwt>
</event>
<event>
 8    1  0.2389776E-024  0.7970530E+02  0.7818608E-02  0.1329890E+00
          2   -1    0    0  501    0  0.00000000000E+00  0.00000000000E+00  0.67384267784E+01  0.67384272609E+01  0.25500000000E-02 0. -1.
         -1   -1    0    0    0  501 -0.00000000000E+00 -0.00000000000E+00 -0.23569796562E+03  0.23569796567E+03  0.50400000000E-02 0.  1.
         24    2    1    2    0    0 -0.35527136788E-14  0.00000000000E+00 -0.22895953884E+03  0.24243639293E+03  0.79705295889E+02 0.  0.
         66    2    3    3    0    0 -0.31414080450E+02 -0.14539605635E+02 -0.54639134012E+02  0.64712282904E+02  0.20000025996E+01 0.  0.
        -13    1    3    3    0    0  0.31414080450E+02  0.14539605635E+02 -0.17432040483E+03  0.17772411003E+03  0.10566000000E+00 0.  1.
         13    1    4    4    0    0 -0.21098841285E+02 -0.98582677469E+01 -0.37759774103E+02  0.44363929615E+02  0.10566000000E+00 0. -1.
        -13    1    4    4    0    0 -0.81573134520E+01 -0.36964911915E+01 -0.12657820529E+02  0.15506043804E+02  0.10566000000E+00 0.  1.
         14    1    4    4    0    0 -0.21579257132E+01 -0.98484669704E+00 -0.42215393802E+01  0.48423094840E+01  0.00000000000E+00 0. -1.
<mgrwt>
<rscale>  0 0.79705296E+02</rscale>
<asrwt>0</asrwt>
<pdfrwt beam="1">  1        2 0.10366813E-02 0.79705296E+02</pdfrwt>
<pdfrwt beam="2">  1       -1 0.36261219E-01 0.79705296E+02</pdfrwt>
<totfact> 0.95404304E+04</totfact>
</mgrwt>
</event>
<event>
 8    1  0.2389776E-024  0.8009927E+02  0.7818608E-02  0.1328770E+00
         -1   -1    0    0    0  501 -0.00000000000E+00  0.00000000000E+00  0.13678910299E+02  0.13678911228E+02  0.50400000000E-02 0.  1.
          2   -1    0    0  501    0  0.00000000000E+00 -0.00000000000E+00 -0.11725885119E+03  0.11725885122E+03  0.25500000000E-02 0. -1.
         24    2    1    2    0    0  0.00000000000E+00 -0.88817841970E-15 -0.10357994089E+03  0.13093776245E+03  0.80099272652E+02 0.  0.
         66    2    3    3    0    0 -0.17268374145E+02  0.60646869431E+01 -0.11000879123E+03  0.11153883325E+03  0.20000001513E+01 0.  0.
        -13    1    3    3    0    0  0.17268374145E+02 -0.60646869431E+01  0.64288503401E+01  0.19398929199E+02  0.10566000000E+00 0.  1.
         13    1    4    4    0    0 -0.13165476165E+02  0.47784931392E+01 -0.80779131056E+02  0.81984406673E+02  0.10566000000E+00 0. -1.
        -13    1    4    4    0    0 -0.17295607987E+01  0.15958536071E+00 -0.12093054949E+02  0.12217609835E+02  0.10566000000E+00 0.  1.
        -14    1    4    4    0    0 -0.23733371809E+01  0.11266084432E+01 -0.17136605227E+02  0.17336816740E+02  0.00000000000E+00 0.  1.
<mgrwt>
<rscale>  0 0.80099273E+02</rscale>
<asrwt>0</asrwt>
<pdfrwt beam="1">  1        2 0.18039823E-01 0.80099273E+02</pdfrwt>
<pdfrwt beam="2">  1       -1 0.21044479E-02 0.80099273E+02</pdfrwt>
<totfact> 0.18497054E+05</totfact>
</mgrwt>
</event>
<event>
 8    1  0.2389776E-024  0.7969943E+02  0.7818608E-02  0.1329907E+00
          2   -1    0    0  501    0  0.00000000000E+00  0.00000000000E+00  0.14040831427E+03  0.14040831430E+03  0.25500000000E-02 0. -1.
         -1   -1    0    0    0  501 -0.00000000000E+00 -0.00000000000E+00 -0.11309869811E+02  0.11309870934E+02  0.50400000000E-02 0.  1.
         24    2    1    2    0    0  0.35527136788E-14  0.00000000000E+00  0.12909844446E+03  0.15171818523E+03  0.79699431410E+02 0.  0.
         66    2    3    3    0    0  0.19241286309E+02 -0.18470030882E+02  0.12088783184E+03  0.12381129606E+03  0.20000012319E+01 0.  0.
        -13    1    3    3    0    0 -0.19241286309E+02  0.18470030882E+02  0.82106126222E+01  0.27906889172E+02  0.10566000000E+00 0.  1.
         13    1    4    4    0    0  0.25653800964E+01 -0.28683996206E+01  0.19286923016E+02  0.19667370309E+02  0.10566000000E+00 0. -1.
        -13    1    4    4    0    0  0.10631977554E+01 -0.10565486928E+01  0.82058931907E+01  0.83423337082E+01  0.10566000000E+00 0.  1.
         14    1    4    4    0    0  0.15612708458E+02 -0.14545082568E+02  0.93395015635E+02  0.95801592042E+02  0.00000000000E+00 0. -1.
<mgrwt>
<rscale>  0 0.79699431E+02</rscale>
<asrwt>0</asrwt>
<pdfrwt beam="1">  1        2 0.21601280E-01 0.79699431E+02</pdfrwt>
<pdfrwt beam="2">  1       -1 0.17399800E-02 0.79699431E+02</pdfrwt>
<totfact> 0.19809261E+05</totfact>
</mgrwt>
</event>
<event>
 8    1  0.2389776E-024  0.8135962E+02  0.7818608E-02  0.1325237E+00
          2   -1    0    0  501    0  0.00000000000E+00  0.00000000000E+00  0.54672936796E+03  0.54672936796E+03  0.25500000000E-02 0. -1.
         -1   -1    0    0    0  501 -0.00000000000E+00 -0.00000000000E+00 -0.30268098799E+01  0.30268140760E+01  0.50400000000E-02 0.  1.
         24    2    1    2    0    0  0.71054273576E-14 -0.88817841970E-15  0.54370255808E+03  0.54975618204E+03  0.81359621621E+02 0.  0.
         66    2    3    3    0    0  0.30278412255E+02 -0.70405718534E+01  0.44905792835E+03  0.45013706239E+03  0.20000041461E+01 0.  0.
        -13    1    3    3    0    0 -0.30278412255E+02  0.70405718534E+01  0.94644629726E+02  0.99619119654E+02  0.10566000000E+00 0.  1.
         13    1    4    4    0    0  0.33328203477E+00 -0.19577679940E+00  0.55970555141E+01  0.56113812857E+01  0.10566000000E+00 0.  1.
        -13    1    4    4    0    0  0.16130879123E+02 -0.43158091178E+01  0.24564148101E+03  0.24620840730E+03  0.10566000000E+00 0. -1.
         14    1    4    4    0    0  0.13814251097E+02 -0.25289859361E+01  0.19781939183E+03  0.19831727380E+03  0.00000000000E+00 0. -1.
<mgrwt>
<rscale>  0 0.81359622E+02</rscale>
<asrwt>0</asrwt>
<pdfrwt beam="1">  1        2 0.84112203E-01 0.81359622E+02</pdfrwt>
<pdfrwt beam="2">  1       -1 0.46566343E-03 0.81359622E+02</pdfrwt>
<totfact> 0.29961512E+05</totfact>
</mgrwt>
</event>
<event>
 8    1  0.2389776E-024  0.7607827E+02  0.7818608E-02  0.1340564E+00
          2   -1    0    0  501    0  0.00000000000E+00  0.00000000000E+00  0.19003379882E+03  0.19003379884E+03  0.25500000000E-02 0. -1.
         -1   -1    0    0    0  501 -0.00000000000E+00 -0.00000000000E+00 -0.76143072997E+01  0.76143089677E+01  0.50400000000E-02 0.  1.
         24    2    1    2    0    0  0.35527136788E-14  0.00000000000E+00  0.18241949152E+03  0.19764810780E+03  0.76078273063E+02 0.  0.
         66    2    3    3    0    0 -0.29061458029E+02 -0.15017327555E+02  0.14157395262E+03  0.14531783281E+03  0.20000000414E+01 0.  0.
        -13    1    3    3    0    0  0.29061458029E+02  0.15017327555E+02  0.40845538895E+02  0.52330274998E+02  0.10566000000E+00 0.  1.
         13    1    4    4    0    0 -0.23371234191E+02 -0.11687037408E+02  0.11301580897E+03  0.11599735200E+03  0.10566000000E+00 0. -1.
        -13    1    4    4    0    0 -0.45950842926E+01 -0.24759075327E+01  0.21286936250E+02  0.21917794978E+02  0.10566000000E+00 0.  1.
        -14    1    4    4    0    0 -0.10951395455E+01 -0.85438261437E+00  0.72712074089E+01  0.74026858274E+01  0.00000000000E+00 0.  1.
<mgrwt>
<rscale>  0 0.76078273E+02</rscale>
<asrwt>0</asrwt>
<pdfrwt beam="1">  1        2 0.29235969E-01 0.76078273E+02</pdfrwt>
<pdfrwt beam="2">  1       -1 0.11714320E-02 0.76078273E+02</pdfrwt>
<totfact> 0.24740513E+05</totfact>
</mgrwt>
</event>
<event>
 8    1  0.2389776E-024  0.7997073E+02  0.7818608E-02  0.1329135E+00
          2   -1    0    0  501    0  0.00000000000E+00  0.00000000000E+00  0.73815771203E+03  0.73815771203E+03  0.25500000000E-02 0. -1.
         -1   -1    0    0    0  501 -0.00000000000E+00 -0.00000000000E+00 -0.21659697354E+01  0.21659755992E+01  0.50400000000E-02 0.  1.
         24    2    1    2    0    0 -0.35527136788E-14 -0.35527136788E-14  0.73599174229E+03  0.74032368763E+03  0.79970730556E+02 0.  0.
         66    2    3    3    0    0 -0.28832543380E+02 -0.17096692438E+02  0.56960638316E+03  0.57059534189E+03  0.20000002768E+01 0.  0.
        -13    1    3    3    0    0  0.28832543380E+02  0.17096692438E+02  0.16638535913E+03  0.16972834574E+03  0.10566000000E+00 0.  1.
         13    1    4    4    0    0 -0.13672226689E+02 -0.78122299569E+01  0.25372926852E+03  0.25421745335E+03  0.10566000000E+00 0. -1.
        -13    1    4    4    0    0 -0.38036118312E+01 -0.21076852389E+01  0.81812145164E+02  0.81927700202E+02  0.10566000000E+00 0.  1.
         14    1    4    4    0    0 -0.11356704860E+02 -0.71767772424E+01  0.23406496948E+03  0.23445018834E+03  0.00000000000E+00 0. -1.
<mgrwt>
<rscale>  0 0.79970731E+02</rscale>
<asrwt>0</asrwt>
<pdfrwt beam="1">  1        2 0.11356263E+00 0.79970731E+02</pdfrwt>
<pdfrwt beam="2">  1       -1 0.33322684E-03 0.79970731E+02</pdfrwt>
<totfact> 0.33874422E+05</totfact>
</mgrwt>
</event>
<event>
 8    1  0.2389776E-024  0.7964814E+02  0.7818608E-02  0.1330053E+00
          2   -1    0    0  501    0  0.00000000000E+00  0.00000000000E+00  0.16382405842E+04  0.16382405842E+04  0.25500000000E-02 0. -1.
         -1   -1    0    0    0  501 -0.00000000000E+00 -0.00000000000E+00 -0.96807877321E+00  0.96809189271E+00  0.50400000000E-02 0.  1.
         24    2    1    2    0    0  0.00000000000E+00  0.00000000000E+00  0.16372725054E+04  0.16392086761E+04  0.79648143465E+02 0.  0.
         66    2    3    3    0    0 -0.19291950155E+02  0.57103403598E+01  0.15258683632E+04  0.15260023097E+04  0.19999999371E+01 0.  0.
        -13    1    3    3    0    0  0.19291950155E+02 -0.57103403598E+01  0.11140414218E+03  0.11320636637E+03  0.10566000000E+00 0.  1.
         13    1    4    4    0    0 -0.35660837551E+01  0.11979605657E+01  0.33245680720E+03  0.33247810737E+03  0.10566000000E+00 0. -1.
        -13    1    4    4    0    0 -0.12033677640E+02  0.29786906245E+01  0.91067793859E+03  0.91076231861E+03  0.10566000000E+00 0.  1.
        -14    1    4    4    0    0 -0.36921887599E+01  0.15336891697E+01  0.28273361743E+03  0.28276188372E+03  0.00000000000E+00 0.  1.
<mgrwt>
<rscale>  0 0.79648143E+02</rscale>
<asrwt>0</asrwt>
<pdfrwt beam="1">  1        2 0.25203844E+00 0.79648143E+02</pdfrwt>
<pdfrwt beam="2">  1       -1 0.14893537E-03 0.79648143E+02</pdfrwt>
<totfact> 0.32344387E+05</totfact>
</mgrwt>
</event>
<event>
 8    1  0.2389776E-024  0.8679448E+02  0.7818608E-02  0.1310805E+00
         -1   -1    0    0    0  501 -0.00000000000E+00  0.00000000000E+00  0.11219439060E+01  0.11219552263E+01  0.50400000000E-02 0.  1.
          2   -1    0    0  501    0  0.00000000000E+00 -0.00000000000E+00 -0.16786142943E+04  0.16786142943E+04  0.25500000000E-02 0. -1.
         24    2    1    2    0    0  0.35527136788E-14 -0.44408920985E-15 -0.16774923504E+04  0.16797362495E+04  0.86794483400E+02 0.  0.
         66    2    3    3    0    0 -0.24617883913E+02  0.31815782953E+01 -0.15275579759E+04  0.15277609539E+04  0.20000030850E+01 0.  0.
        -13    1    3    3    0    0  0.24617883913E+02 -0.31815782953E+01 -0.14993437448E+03  0.15197529557E+03  0.10566000000E+00 0.  1.
         13    1    4    4    0    0 -0.76414971719E+01  0.17087216109E+01 -0.51331477807E+03  0.51337450732E+03  0.10566000000E+00 0. -1.
        -13    1    4    4    0    0 -0.50046922445E+01  0.33537258326E+00 -0.30908349672E+03  0.30912421214E+03  0.10566000000E+00 0.  1.
         14    1    4    4    0    0 -0.11971694497E+02  0.11374841012E+01 -0.70515970108E+03  0.70526223446E+03  0.00000000000E+00 0. -1.
<mgrwt>
<rscale>  0 0.86794483E+02</rscale>
<asrwt>0</asrwt>
<pdfrwt beam="1">  1        2 0.25824634E+00 0.86794483E+02</pdfrwt>
<pdfrwt beam="2">  1       -1 0.17260897E-03 0.86794483E+02</pdfrwt>
<totfact> 0.25505882E+05</totfact>
</mgrwt>
</event>
<event>
 8    1  0.2389776E-024  0.7820039E+02  0.7818608E-02  0.1334237E+00
          2   -1    0    0  501    0  0.00000000000E+00  0.00000000000E+00  0.35539630412E+03  0.35539630413E+03  0.25500000000E-02 0. -1.
         -1   -1    0    0    0  501 -0.00000000000E+00 -0.00000000000E+00 -0.43017466974E+01  0.43017496499E+01  0.50400000000E-02 0.  1.
         24    2    1    2    0    0 -0.17763568394E-14  0.17763568394E-14  0.35109455742E+03  0.35969805378E+03  0.78200394121E+02 0.  0.
         66    2    3    3    0    0 -0.67134163852E+01  0.74316801174E+01  0.34938912612E+03  0.34953835452E+03  0.20000015794E+01 0.  0.
        -13    1    3    3    0    0  0.67134163852E+01 -0.74316801174E+01  0.17054313038E+01  0.10159699252E+02  0.10566000000E+00 0.  1.
         13    1    4    4    0    0 -0.67613475557E-01  0.42098195271E-01  0.73054093580E+01  0.73066075413E+01  0.10566000000E+00 0. -1.
        -13    1    4    4    0    0 -0.80332832096E+00  0.27949910632E+00  0.26255369597E+02  0.26269355776E+02  0.10566000000E+00 0.  1.
         14    1    4    4    0    0 -0.58424745887E+01  0.71100828158E+01  0.31582834716E+03  0.31596239121E+03  0.00000000000E+00 0. -1.
<mgrwt>
<rscale>  0 0.78200394E+02</rscale>
<asrwt>0</asrwt>
<pdfrwt beam="1">  1        2 0.54676358E-01 0.78200394E+02</pdfrwt>
<pdfrwt beam="2">  1       -1 0.66180738E-03 0.78200394E+02</pdfrwt>
<totfact> 0.28756875E+05</totfact>
</mgrwt>
</event>
<event>
 8    1  0.2389776E-024  0.7988379E+02  0.7818608E-02  0.1329382E+00
          2   -1    0    0  501    0  0.00000000000E+00  0.00000000000E+00  0.24862119127E+02  0.24862119258E+02  0.25500000000E-02 0. -1.
         -1   -1    0    0    0  501 -0.00000000000E+00 -0.00000000000E+00 -0.64168105694E+02  0.64168105892E+02  0.50400000000E-02 0.  1.
         24    2    1    2    0    0  0.00000000000E+00  0.00000000000E+00 -0.39305986566E+02  0.89030225150E+02  0.79883793164E+02 0.  0.
         66    2    3    3    0    0  0.10183069118E+02  0.37494558814E+02 -0.94621037421E+01  0.40038334562E+02  0.19999974806E+01 0.  0.
        -13    1    3    3    0    0 -0.10183069118E+02 -0.37494558814E+02 -0.29843882824E+02  0.48991890588E+02  0.10566000000E+00 0.  1.
         13    1    4    4    0    0  0.80105148571E+01  0.31541694178E+02 -0.75569979636E+01  0.33409073650E+02  0.10566000000E+00 0. -1.
        -13    1    4    4    0    0  0.11797449320E+01  0.28330099735E+01 -0.10529088727E+01  0.32461553789E+01  0.10566000000E+00 0.  1.
         14    1    4    4    0    0  0.99280932920E+00  0.31198546626E+01 -0.85219690582E+00  0.33831055328E+01  0.00000000000E+00 0. -1.
<mgrwt>
<rscale>  0 0.79883793E+02</rscale>
<asrwt>0</asrwt>
<pdfrwt beam="1">  1        2 0.38249414E-02 0.79883793E+02</pdfrwt>
<pdfrwt beam="2">  1       -1 0.98720163E-02 0.79883793E+02</pdfrwt>
<totfact> 0.13019713E+05</totfact>
</mgrwt>
</event>
<event>
 8    1  0.2389776E-024  0.8196336E+02  0.7818608E-02  0.1323570E+00
         -1   -1    0    0    0  501 -0.00000000000E+00  0.00000000000E+00  0.21067139355E+01  0.21067199643E+01  0.50400000000E-02 0.  1.
          2   -1    0    0  501    0  0.00000000000E+00 -0.00000000000E+00 -0.79721107829E+03  0.79721107829E+03  0.25500000000E-02 0. -1.
         24    2    1    2    0    0  0.00000000000E+00  0.00000000000E+00 -0.79510436435E+03  0.79931779826E+03  0.81963360089E+02 0.  0.
         66    2    3    3    0    0 -0.95699592522E+01  0.31205675499E+02 -0.63906536755E+03  0.63990149423E+03  0.20000018963E+01 0.  0.
        -13    1    3    3    0    0  0.95699592522E+01 -0.31205675499E+02 -0.15603899680E+03  0.15941630403E+03  0.10566000000E+00 0.  1.
         13    1    4    4    0    0 -0.24816857938E+01  0.81012856511E+01 -0.15436329881E+03  0.15459569456E+03  0.10566000000E+00 0. -1.
        -13    1    4    4    0    0 -0.23480182172E+01  0.97176145763E+01 -0.20191847661E+03  0.20216584178E+03  0.10566000000E+00 0.  1.
         14    1    4    4    0    0 -0.47402552412E+01  0.13386775272E+02 -0.28278359214E+03  0.28313995789E+03  0.00000000000E+00 0. -1.
<mgrwt>
<rscale>  0 0.81963360E+02</rscale>
<asrwt>0</asrwt>
<pdfrwt beam="1">  1        2 0.12264762E+00 0.81963360E+02</pdfrwt>
<pdfrwt beam="2">  1       -1 0.32411094E-03 0.81963360E+02</pdfrwt>
<totfact> 0.32245889E+05</totfact>
</mgrwt>
</event>
<event>
 8    1  0.2389776E-024  0.8209378E+02  0.7818608E-02  0.1323212E+00
          2   -1    0    0  501    0  0.00000000000E+00  0.00000000000E+00  0.80876220949E+02  0.80876220990E+02  0.25500000000E-02 0. -1.
         -1   -1    0    0    0  501 -0.00000000000E+00 -0.00000000000E+00 -0.20832415616E+02  0.20832416225E+02  0.50400000000E-02 0.  1.
         24    2    1    2    0    0  0.00000000000E+00  0.00000000000E+00  0.60043805334E+02  0.10170863721E+03  0.82093777627E+02 0.  0.
         66    2    3    3    0    0  0.35430462409E+01 -0.39584400026E+02  0.42635671387E+02  0.58320479917E+02  0.20000002756E+01 0.  0.
        -13    1    3    3    0    0 -0.35430462409E+01  0.39584400026E+02  0.17408133947E+02  0.43388157297E+02  0.10566000000E+00 0.  1.
         13    1    4    4    0    0  0.17362404204E+01 -0.18585774807E+02  0.19846076072E+02  0.27245613509E+02  0.10566000000E+00 0. -1.
        -13    1    4    4    0    0  0.15045550890E+01 -0.93628074106E+01  0.10451053211E+02  0.14112459951E+02  0.10566000000E+00 0.  1.
        -14    1    4    4    0    0  0.30225073147E+00 -0.11635817809E+02  0.12338542103E+02  0.16962406457E+02  0.00000000000E+00 0.  1.
<mgrwt>
<rscale>  0 0.82093778E+02</rscale>
<asrwt>0</asrwt>
<pdfrwt beam="1">  1        2 0.12442495E-01 0.82093778E+02</pdfrwt>
<pdfrwt beam="2">  1       -1 0.32049871E-02 0.82093778E+02</pdfrwt>
<totfact> 0.15614690E+05</totfact>
</mgrwt>
</event>
<event>
 8    1  0.2389776E-024  0.8166867E+02  0.7818608E-02  0.1324382E+00
          2   -1    0    0  501    0  0.00000000000E+00  0.00000000000E+00  0.36703907717E+02  0.36703907805E+02  0.25500000000E-02 0. -1.
         -1   -1    0    0    0  501 -0.00000000000E+00 -0.00000000000E+00 -0.45429575682E+02  0.45429575962E+02  0.50400000000E-02 0.  1.
         24    2    1    2    0    0 -0.35527136788E-14  0.00000000000E+00 -0.87256679656E+01  0.82133483767E+02  0.81668671315E+02 0.  0.
         66    2    3    3    0    0  0.27566598496E+02 -0.30037117857E+02 -0.61902086837E+01  0.41285160429E+02  0.19999965822E+01 0.  0.
        -13    1    3    3    0    0 -0.27566598496E+02  0.30037117857E+02 -0.25354592819E+01  0.40848323339E+02  0.10566000000E+00 0.  1.
         13    1    4    4    0    0  0.10228855218E+02 -0.10249311214E+02 -0.15808243135E+01  0.14566675289E+02  0.10566000000E+00 0. -1.
        -13    1    4    4    0    0  0.41727232066E+01 -0.50148018877E+01 -0.91022900543E+00  0.65878325578E+01  0.10566000000E+00 0.  1.
         14    1    4    4    0    0  0.13165020072E+02 -0.14773004755E+02 -0.36991553647E+01  0.20130652582E+02  0.00000000000E+00 0. -1.
<mgrwt>
<rscale>  0 0.81668671E+02</rscale>
<asrwt>0</asrwt>
<pdfrwt beam="1">  1        2 0.56467551E-02 0.81668671E+02</pdfrwt>
<pdfrwt beam="2">  1       -1 0.69891655E-02 0.81668671E+02</pdfrwt>
<totfact> 0.13226271E+05</totfact>
</mgrwt>
</event>
<event>
 8    1  0.2389776E-024  0.7771812E+02  0.7818608E-02  0.1335655E+00
         -1   -1    0    0    0  501 -0.00000000000E+00  0.00000000000E+00  0.65379893097E+02  0.65379893291E+02  0.50400000000E-02 0.  1.
          2   -1    0    0  501    0  0.00000000000E+00 -0.00000000000E+00 -0.23096192356E+02  0.23096192496E+02  0.25500000000E-02 0. -1.
         24    2    1    2    0    0  0.00000000000E+00 -0.35527136788E-14  0.42283700741E+02  0.88476085787E+02  0.77718121490E+02 0.  0.
         66    2    3    3    0    0  0.26711171055E+02 -0.25663988594E+02  0.34426849932E+02  0.50609633109E+02  0.19999993803E+01 0.  0.
        -13    1    3    3    0    0 -0.26711171055E+02  0.25663988594E+02  0.78568508095E+01  0.37866452678E+02  0.10566000000E+00 0.  1.
         13    1    4    4    0    0  0.59633952080E+01 -0.61422899476E+01  0.86833380534E+01  0.12194315561E+02  0.10566000000E+00 0. -1.
        -13    1    4    4    0    0  0.17737137117E+02 -0.16706282373E+02  0.21435967307E+02  0.32453316660E+02  0.10566000000E+00 0.  1.
        -14    1    4    4    0    0  0.30106387309E+01 -0.28154162744E+01  0.43075445717E+01  0.59620008892E+01  0.00000000000E+00 0.  1.
<mgrwt>
<rscale>  0 0.77718121E+02</rscale>
<asrwt>0</asrwt>
<pdfrwt beam="1">  1        2 0.35532604E-02 0.77718121E+02</pdfrwt>
<pdfrwt beam="2">  1       -1 0.10058445E-01 0.77718121E+02</pdfrwt>
<totfact> 0.13872150E+05</totfact>
</mgrwt>
</event>
<event>
 8    1  0.2389776E-024  0.7993257E+02  0.7818608E-02  0.1329243E+00
          2   -1    0    0  501    0  0.00000000000E+00  0.00000000000E+00  0.58678145574E+03  0.58678145574E+03  0.25500000000E-02 0. -1.
         -1   -1    0    0    0  501 -0.00000000000E+00 -0.00000000000E+00 -0.27221422699E+01  0.27221469356E+01  0.50400000000E-02 0.  1.
         24    2    1    2    0    0  0.35527136788E-14 -0.44408920985E-15  0.58405931347E+03  0.58950360268E+03  0.79932571101E+02 0.  0.
         66    2    3    3    0    0  0.20560983034E+02 -0.30531294185E+01  0.54374455320E+03  0.54414539855E+03  0.20000005882E+01 0.  0.
        -13    1    3    3    0    0 -0.20560983034E+02  0.30531294185E+01  0.40314760265E+02  0.45358204129E+02  0.10566000000E+00 0.  1.
         13    1    4    4    0    0  0.55328967547E+01 -0.12466076375E+01  0.15515572743E+03  0.15525938907E+03  0.10566000000E+00 0. -1.
        -13    1    4    4    0    0  0.36241014700E+01 -0.23154886723E+00  0.10810041254E+03  0.10816144452E+03  0.10566000000E+00 0.  1.
         14    1    4    4    0    0  0.11403984809E+02 -0.15749729137E+01  0.28048841323E+03  0.28072456495E+03  0.00000000000E+00 0. -1.
<mgrwt>
<rscale>  0 0.79932571E+02</rscale>
<asrwt>0</asrwt>
<pdfrwt beam="1">  1        2 0.90274115E-01 0.79932571E+02</pdfrwt>
<pdfrwt beam="2">  1       -1 0.41879127E-03 0.79932571E+02</pdfrwt>
<totfact> 0.32032799E+05</totfact>
</mgrwt>
</event>
<event>
 8    1  0.2389776E-024  0.7956074E+02  0.7818608E-02  0.1330303E+00
          2   -1    0    0  501    0  0.00000000000E+00  0.00000000000E+00  0.19176064673E+03  0.19176064674E+03  0.25500000000E-02 0. -1.
         -1   -1    0    0    0  501 -0.00000000000E+00 -0.00000000000E+00 -0.82523579068E+01  0.82523594458E+01  0.50400000000E-02 0.  1.
         24    2    1    2    0    0  0.71054273576E-14 -0.71054273576E-14  0.18350828882E+03  0.20001300619E+03  0.79560735161E+02 0.  0.
         66    2    3    3    0    0 -0.22267402969E+02  0.32928262993E+02  0.93330684800E+02  0.10146292162E+03  0.19999996926E+01 0.  0.
        -13    1    3    3    0    0  0.22267402969E+02 -0.32928262993E+02  0.90177604021E+02  0.98550084575E+02  0.10566000000E+00 0.  1.
         13    1    4    4    0    0 -0.12294845254E+02  0.19158374731E+02  0.53022456294E+02  0.57702673921E+02  0.10566000000E+00 0. -1.
        -13    1    4    4    0    0 -0.12045323987E+00  0.26376085690E+00  0.94452307641E+00  0.99366324784E+00  0.10566000000E+00 0. -1.
        -14    1    4    4    0    0 -0.98521044752E+01  0.13506127405E+02  0.39363705430E+02  0.42766584447E+02  0.00000000000E+00 0.  1.
<mgrwt>
<rscale>  0 0.79560735E+02</rscale>
<asrwt>0</asrwt>
<pdfrwt beam="1">  1        2 0.29501635E-01 0.79560735E+02</pdfrwt>
<pdfrwt beam="2">  1       -1 0.12695938E-02 0.79560735E+02</pdfrwt>
<totfact> 0.22058244E+05</totfact>
</mgrwt>
</event>
<event>
 8    1  0.2389776E-024  0.8119439E+02  0.7818608E-02  0.1325696E+00
         -1   -1    0    0    0  501 -0.00000000000E+00  0.00000000000E+00  0.35988404823E+02  0.35988405175E+02  0.50400000000E-02 0.  1.
          2   -1    0    0  501    0  0.00000000000E+00 -0.00000000000E+00 -0.45796201812E+02  0.45796201883E+02  0.25500000000E-02 0. -1.
         24    2    1    2    0    0  0.00000000000E+00  0.00000000000E+00 -0.98077969893E+01  0.81784607058E+02  0.81194390631E+02 0.  0.
         66    2    3    3    0    0  0.11447184715E+02  0.14388337802E+02 -0.41336952339E+02  0.45285824836E+02  0.19999999678E+01 0.  0.
        -13    1    3    3    0    0 -0.11447184715E+02 -0.14388337802E+02  0.31529155349E+02  0.36498782222E+02  0.10566000000E+00 0.  1.
         13    1    4    4    0    0  0.76788966637E+01  0.98088652061E+01 -0.26735646303E+02  0.29495512165E+02  0.10566000000E+00 0. -1.
        -13    1    4    4    0    0  0.28038575126E+01  0.26875279075E+01 -0.92248767625E+01  0.10009692229E+02  0.10566000000E+00 0.  1.
        -14    1    4    4    0    0  0.96443053847E+00  0.18919446886E+01 -0.53764292736E+01  0.57806204427E+01  0.00000000000E+00 0.  1.
<mgrwt>
<rscale>  0 0.81194391E+02</rscale>
<asrwt>0</asrwt>
<pdfrwt beam="1">  1        2 0.70455695E-02 0.81194391E+02</pdfrwt>
<pdfrwt beam="2">  1       -1 0.55366777E-02 0.81194391E+02</pdfrwt>
<totfact> 0.14077662E+05</totfact>
</mgrwt>
</event>
<event>
 8    1  0.2389776E-024  0.7958119E+02  0.7818608E-02  0.1330244E+00
         -1   -1    0    0    0  501 -0.00000000000E+00  0.00000000000E+00  0.33584950127E+01  0.33584987943E+01  0.50400000000E-02 0.  1.
          2   -1    0    0  501    0  0.00000000000E+00 -0.00000000000E+00 -0.47142864127E+03  0.47142864128E+03  0.25500000000E-02 0. -1.
         24    2    1    2    0    0  0.71054273576E-14  0.17763568394E-14 -0.46807014626E+03  0.47478714007E+03  0.79581194761E+02 0.  0.
         66    2    3    3    0    0 -0.37684519929E+02 -0.11244820123E+02 -0.26933558557E+03  0.27219887339E+03  0.19999994167E+01 0.  0.
        -13    1    3    3    0    0  0.37684519929E+02  0.11244820123E+02 -0.19873456068E+03  0.20258826668E+03  0.10566000000E+00 0.  1.
         13    1    4    4    0    0 -0.18820083421E+02 -0.53652254484E+01 -0.13307319158E+03  0.13450452284E+03  0.10566000000E+00 0. -1.
        -13    1    4    4    0    0 -0.15422136595E+02 -0.50230636960E+01 -0.10830653428E+03  0.10951433695E+03  0.10566000000E+00 0.  1.
        -14    1    4    4    0    0 -0.34422999128E+01 -0.85653097862E+00 -0.27955859717E+02  0.28180013601E+02  0.00000000000E+00 0.  1.
<mgrwt>
<rscale>  0 0.79581195E+02</rscale>
<asrwt>0</asrwt>
<pdfrwt beam="1">  1        2 0.72527431E-01 0.79581195E+02</pdfrwt>
<pdfrwt beam="2">  1       -1 0.51669221E-03 0.79581195E+02</pdfrwt>
<totfact> 0.30288327E+05</totfact>
</mgrwt>
</event>
<event>
 8    1  0.2389776E-024  0.8149440E+02  0.7818608E-02  0.1324863E+00
         -1   -1    0    0    0  501 -0.00000000000E+00  0.00000000000E+00  0.15155227510E+01  0.15155311315E+01  0.50400000000E-02 0.  1.
          2   -1    0    0  501    0  0.00000000000E+00 -0.00000000000E+00 -0.10955490620E+04  0.10955490620E+04  0.25500000000E-02 0. -1.
         24    2    1    2    0    0  0.00000000000E+00  0.00000000000E+00 -0.10940335393E+04  0.10970645931E+04  0.81494395560E+02 0.  0.
         66    2    3    3    0    0  0.20087897458E+02  0.10736020715E+02 -0.10017783385E+04  0.10020392334E+04  0.20000006997E+01 0.  0.
        -13    1    3    3    0    0 -0.20087897458E+02 -0.10736020715E+02 -0.92255200760E+02  0.95025359754E+02  0.10566000000E+00 0.  1.
         13    1    4    4    0    0  0.78950434877E+01  0.49421944162E+01 -0.40832395502E+03  0.40843019037E+03  0.10566000000E+00 0. -1.
        -13    1    4    4    0    0  0.47872391530E+01  0.21156149748E+01 -0.20673374943E+03  0.20680001886E+03  0.10566000000E+00 0.  1.
        -14    1    4    4    0    0  0.74056148175E+01  0.36782113238E+01 -0.38672063405E+03  0.38680902415E+03  0.00000000000E+00 0.  1.
<mgrwt>
<rscale>  0 0.81494396E+02</rscale>
<asrwt>0</asrwt>
<pdfrwt beam="1">  1        2 0.16854538E+00 0.81494396E+02</pdfrwt>
<pdfrwt beam="2">  1       -1 0.23315887E-03 0.81494396E+02</pdfrwt>
<totfact> 0.33600675E+05</totfact>
</mgrwt>
</event>
<event>
 8    1  0.2389776E-024  0.7326046E+02  0.7818608E-02  0.1349344E+00
          2   -1    0    0  501    0  0.00000000000E+00  0.00000000000E+00  0.49202786305E+03  0.49202786306E+03  0.25500000000E-02 0. -1.
         -1   -1    0    0    0  501 -0.00000000000E+00 -0.00000000000E+00 -0.27270258611E+01  0.27270305185E+01  0.50400000000E-02 0.  1.
         24    2    1    2    0    0  0.00000000000E+00  0.35527136788E-14  0.48930083719E+03  0.49475489358E+03  0.73260463026E+02 0.  0.
         66    2    3    3    0    0  0.11194706644E+02 -0.28646730192E+02  0.37885086345E+03  0.38010253001E+03  0.19999943708E+01 0.  0.
        -13    1    3    3    0    0 -0.11194706644E+02  0.28646730192E+02  0.11044997374E+03  0.11465236356E+03  0.10566000000E+00 0.  1.
         13    1    4    4    0    0  0.15484718840E+01 -0.34898982732E+01  0.47523837609E+02  0.47677074787E+02  0.10566000000E+00 0. -1.
        -13    1    4    4    0    0  0.84083951073E+01 -0.20043871735E+02  0.26914980754E+03  0.27002608757E+03  0.10566000000E+00 0.  1.
        -14    1    4    4    0    0  0.12378396528E+01 -0.51129601842E+01  0.62177218300E+02  0.62399367660E+02  0.00000000000E+00 0.  1.
<mgrwt>
<rscale>  0 0.73260463E+02</rscale>
<asrwt>0</asrwt>
<pdfrwt beam="1">  1        2 0.75696599E-01 0.73260463E+02</pdfrwt>
<pdfrwt beam="2">  1       -1 0.41954278E-03 0.73260463E+02</pdfrwt>
<totfact> 0.38065785E+05</totfact>
</mgrwt>
</event>
<event>
 8    1  0.2389776E-024  0.8367441E+02  0.7818608E-02  0.1318936E+00
          2   -1    0    0  501    0  0.00000000000E+00  0.00000000000E+00  0.35045274958E+02  0.35045275051E+02  0.25500000000E-02 0. -1.
         -1   -1    0    0    0  501 -0.00000000000E+00 -0.00000000000E+00 -0.49945444558E+02  0.49945444812E+02  0.50400000000E-02 0.  1.
         24    2    1    2    0    0  0.00000000000E+00  0.00000000000E+00 -0.14900169600E+02  0.84990719863E+02  0.83674413106E+02 0.  0.
         66    2    3    3    0    0  0.26480763372E+02  0.23630487236E+02  0.15000365049E+02  0.38582919957E+02  0.20000012429E+01 0.  0.
        -13    1    3    3    0    0 -0.26480763372E+02 -0.23630487236E+02 -0.29900534649E+02  0.46407799906E+02  0.10566000000E+00 0.  1.
         13    1    4    4    0    0  0.24597429162E+02  0.22411152712E+02  0.13943716787E+02  0.36079518970E+02  0.10566000000E+00 0. -1.
        -13    1    4    4    0    0  0.16619008771E+01  0.10169778312E+01  0.10183716051E+01  0.22010004989E+01  0.10566000000E+00 0.  1.
         14    1    4    4    0    0  0.22143333337E+00  0.20235669276E+00  0.38276656779E-01  0.30240048724E+00  0.00000000000E+00 0. -1.
<mgrwt>
<rscale>  0 0.83674413E+02</rscale>
<asrwt>0</asrwt>
<pdfrwt beam="1">  1        2 0.53915807E-02 0.83674413E+02</pdfrwt>
<pdfrwt beam="2">  1       -1 0.76839147E-02 0.83674413E+02</pdfrwt>
<totfact> 0.12242575E+05</totfact>
</mgrwt>
</event>
<event>
 8    1  0.2389776E-024  0.8059185E+02  0.7818608E-02  0.1327380E+00
         -1   -1    0    0    0  501 -0.00000000000E+00  0.00000000000E+00  0.40459228731E+01  0.40459260123E+01  0.50400000000E-02 0.  1.
          2   -1    0    0  501    0  0.00000000000E+00 -0.00000000000E+00 -0.40133268474E+03  0.40133268475E+03  0.25500000000E-02 0. -1.
         24    2    1    2    0    0  0.55511151231E-16  0.00000000000E+00 -0.39728676187E+03  0.40537861076E+03  0.80591853852E+02 0.  0.
         66    2    3    3    0    0  0.28434984136E+00  0.40186002355E+02 -0.21184451114E+03  0.21563184489E+03  0.19999974394E+01 0.  0.
        -13    1    3    3    0    0 -0.28434984136E+00 -0.40186002355E+02 -0.18544225072E+03  0.18974676587E+03  0.10566000000E+00 0.  1.
         13    1    4    4    0    0 -0.41122660938E+00  0.25890860967E+02 -0.13780876714E+03  0.14022044520E+03  0.10566000000E+00 0. -1.
        -13    1    4    4    0    0 -0.59539401983E-01  0.71699949248E+01 -0.37703487761E+02  0.38379376305E+02  0.10566000000E+00 0.  1.
        -14    1    4    4    0    0  0.75511585273E+00  0.71251464633E+01 -0.36332256247E+02  0.37032023386E+02  0.00000000000E+00 0.  1.
<mgrwt>
<rscale>  0 0.80591854E+02</rscale>
<asrwt>0</asrwt>
<pdfrwt beam="1">  1        2 0.61743458E-01 0.80591854E+02</pdfrwt>
<pdfrwt beam="2">  1       -1 0.62245023E-03 0.80591854E+02</pdfrwt>
<totfact> 0.27746859E+05</totfact>
</mgrwt>
</event>
<event>
 8    1  0.2389776E-024  0.8080235E+02  0.7818608E-02  0.1326790E+00
          2   -1    0    0  501    0  0.00000000000E+00  0.00000000000E+00  0.48301808870E+02  0.48301808938E+02  0.25500000000E-02 0. -1.
         -1   -1    0    0    0  501 -0.00000000000E+00 -0.00000000000E+00 -0.33792834702E+02  0.33792835078E+02  0.50400000000E-02 0.  1.
         24    2    1    2    0    0  0.00000000000E+00  0.00000000000E+00  0.14508974168E+02  0.82094644016E+02  0.80802352965E+02 0.  0.
         66    2    3    3    0    0  0.38820289064E+02 -0.11044399634E+02  0.61200579064E+01  0.40871122982E+02  0.19999946966E+01 0.  0.
        -13    1    3    3    0    0 -0.38820289064E+02  0.11044399634E+02  0.83889162620E+01  0.41223521033E+02  0.10566000000E+00 0.  1.
         13    1    4    4    0    0  0.26779290079E+02 -0.75738404001E+01  0.45490818887E+01  0.28199268529E+02  0.10566000000E+00 0. -1.
        -13    1    4    4    0    0  0.11090564615E+02 -0.33404429123E+01  0.12073303786E+01  0.11645943200E+02  0.10566000000E+00 0.  1.
        -14    1    4    4    0    0  0.95043436981E+00 -0.13011632193E+00  0.36364563909E+00  0.10259112532E+01  0.00000000000E+00 0.  1.
<mgrwt>
<rscale>  0 0.80802353E+02</rscale>
<asrwt>0</asrwt>
<pdfrwt beam="1">  1        2 0.74310475E-02 0.80802353E+02</pdfrwt>
<pdfrwt beam="2">  1       -1 0.51988977E-02 0.80802353E+02</pdfrwt>
<totfact> 0.14430833E+05</totfact>
</mgrwt>
</event>
<event>
 8    1  0.2389776E-024  0.8107664E+02  0.7818608E-02  0.1326024E+00
         -1   -1    0    0    0  501 -0.00000000000E+00  0.00000000000E+00  0.26718714225E+01  0.26718761760E+01  0.50400000000E-02 0.  1.
          2   -1    0    0  501    0  0.00000000000E+00 -0.00000000000E+00 -0.61505728081E+03  0.61505728082E+03  0.25500000000E-02 0. -1.
         24    2    1    2    0    0 -0.71054273576E-14 -0.88817841970E-15 -0.61238540939E+03  0.61772915700E+03  0.81076641313E+02 0.  0.
         66    2    3    3    0    0  0.28352375499E+02  0.52608115977E+01 -0.52319675470E+03  0.52399463494E+03  0.19999957027E+01 0.  0.
        -13    1    3    3    0    0 -0.28352375499E+02 -0.52608115977E+01 -0.89188654689E+02  0.93734522053E+02  0.10566000000E+00 0.  1.
         13    1    4    4    0    0  0.18625325434E+02  0.34962220317E+01 -0.33155070042E+03  0.33209186143E+03  0.10566000000E+00 0. -1.
        -13    1    4    4    0    0  0.18755927145E+01  0.22346451396E-01 -0.37738150562E+02  0.37784884799E+02  0.10566000000E+00 0.  1.
        -14    1    4    4    0    0  0.78514573499E+01  0.17422431145E+01 -0.15390790372E+03  0.15411788871E+03  0.00000000000E+00 0.  1.
<mgrwt>
<rscale>  0 0.81076641E+02</rscale>
<asrwt>0</asrwt>
<pdfrwt beam="1">  1        2 0.94624084E-01 0.81076641E+02</pdfrwt>
<pdfrwt beam="2">  1       -1 0.41105800E-03 0.81076641E+02</pdfrwt>
<totfact> 0.31275694E+05</totfact>
</mgrwt>
</event>
<event>
 8    1  0.2389776E-024  0.8119507E+02  0.7818608E-02  0.1325694E+00
          2   -1    0    0  501    0  0.00000000000E+00  0.00000000000E+00  0.12253278668E+02  0.12253278933E+02  0.25500000000E-02 0. -1.
         -1   -1    0    0    0  501 -0.00000000000E+00 -0.00000000000E+00 -0.13450766876E+03  0.13450766885E+03  0.50400000000E-02 0.  1.
         24    2    1    2    0    0  0.00000000000E+00 -0.55511151231E-16 -0.12225439009E+03  0.14676094778E+03  0.81195073118E+02 0.  0.
         66    2    3    3    0    0  0.28707064956E+02 -0.34838978377E+00 -0.93438261279E+01  0.30257627781E+02  0.19999995974E+01 0.  0.
        -13    1    3    3    0    0 -0.28707064956E+02  0.34838978377E+00 -0.11291056396E+03  0.11650332000E+03  0.10566000000E+00 0.  1.
         13    1    4    4    0    0  0.20994686714E+00  0.79143493983E-01 -0.81269724779E-01  0.26097927777E+00  0.10566000000E+00 0.  1.
        -13    1    4    4    0    0  0.11445813454E+02 -0.74124611317E+00 -0.40338347699E+01  0.12158909425E+02  0.10566000000E+00 0.  1.
         14    1    4    4    0    0  0.17051304635E+02  0.31371283541E+00 -0.52287216332E+01  0.17837739078E+02  0.00000000000E+00 0. -1.
<mgrwt>
<rscale>  0 0.81195073E+02</rscale>
<asrwt>0</asrwt>
<pdfrwt beam="1">  1        2 0.18851199E-02 0.81195073E+02</pdfrwt>
<pdfrwt beam="2">  1       -1 0.20693487E-01 0.81195073E+02</pdfrwt>
<totfact> 0.10676493E+05</totfact>
</mgrwt>
</event>
<event>
 8    1  0.2389776E-024  0.8050145E+02  0.7818608E-02  0.1327634E+00
          2   -1    0    0  501    0  0.00000000000E+00  0.00000000000E+00  0.18603996544E+02  0.18603996719E+02  0.25500000000E-02 0. -1.
         -1   -1    0    0    0  501 -0.00000000000E+00 -0.00000000000E+00 -0.87084568251E+02  0.87084568397E+02  0.50400000000E-02 0.  1.
         24    2    1    2    0    0 -0.55511151231E-16  0.00000000000E+00 -0.68480571706E+02  0.10568856512E+03  0.80501453993E+02 0.  0.
         66    2    3    3    0    0  0.35750323273E+00 -0.33922452806E+02 -0.58820752697E+01  0.34488540305E+02  0.19999974811E+01 0.  0.
        -13    1    3    3    0    0 -0.35750323273E+00  0.33922452806E+02 -0.62598496437E+02  0.71200024811E+02  0.10566000000E+00 0.  1.
         13    1    4    4    0    0 -0.43121439993E+00 -0.32352917530E+01 -0.50952127402E+00  0.33051224712E+01  0.10566000000E+00 0. -1.
        -13    1    4    4    0    0  0.40302798122E+00 -0.21655942727E+02 -0.42720337798E+01  0.22077221827E+02  0.10566000000E+00 0.  1.
         14    1    4    4    0    0  0.38568965143E+00 -0.90312183261E+01 -0.11005202159E+01  0.91061960064E+01  0.00000000000E+00 0. -1.
<mgrwt>
<rscale>  0 0.80501454E+02</rscale>
<asrwt>0</asrwt>
<pdfrwt beam="1">  1        2 0.28621534E-02 0.80501454E+02</pdfrwt>
<pdfrwt beam="2">  1       -1 0.13397626E-01 0.80501454E+02</pdfrwt>
<totfact> 0.12015008E+05</totfact>
</mgrwt>
</event>
<event>
 8    1  0.2389776E-024  0.8027419E+02  0.7818608E-02  0.1328275E+00
          2   -1    0    0  501    0  0.00000000000E+00  0.00000000000E+00  0.21166780658E+02  0.21166780812E+02  0.25500000000E-02 0. -1.
         -1   -1    0    0    0  501 -0.00000000000E+00 -0.00000000000E+00 -0.76109181916E+02  0.76109182083E+02  0.50400000000E-02 0.  1.
         24    2    1    2    0    0  0.17763568394E-14  0.17763568394E-14 -0.54942401258E+02  0.97275962895E+02  0.80274189508E+02 0.  0.
         66    2    3    3    0    0 -0.13709286666E+02 -0.47057802696E+01  0.17835121392E+02  0.23069036831E+02  0.19999991116E+01 0.  0.
        -13    1    3    3    0    0  0.13709286666E+02  0.47057802696E+01 -0.72777522649E+02  0.74206926064E+02  0.10566000000E+00 0.  1.
         13    1    4    4    0    0 -0.82619695206E+01 -0.23868177967E+01  0.10990489425E+02  0.13955610391E+02  0.10566000000E+00 0. -1.
        -13    1    4    4    0    0 -0.19076861940E+01 -0.29980520335E+00  0.24267014486E+01  0.31030942189E+01  0.10566000000E+00 0.  1.
        -14    1    4    4    0    0 -0.35396309509E+01 -0.20191572695E+01  0.44179305178E+01  0.60103322211E+01  0.00000000000E+00 0.  1.
<mgrwt>
<rscale>  0 0.80274190E+02</rscale>
<asrwt>0</asrwt>
<pdfrwt beam="1">  1        2 0.32564278E-02 0.80274190E+02</pdfrwt>
<pdfrwt beam="2">  1       -1 0.11709105E-01 0.80274190E+02</pdfrwt>
<totfact> 0.12435904E+05</totfact>
</mgrwt>
</event>
<event>
 8    1  0.2389776E-024  0.7867782E+02  0.7818608E-02  0.1332846E+00
          2   -1    0    0  501    0  0.00000000000E+00  0.00000000000E+00  0.19145262466E+03  0.19145262468E+03  0.25500000000E-02 0. -1.
         -1   -1    0    0    0  501 -0.00000000000E+00 -0.00000000000E+00 -0.80831994126E+01  0.80832009839E+01  0.50400000000E-02 0.  1.
         24    2    1    2    0    0  0.35527136788E-14  0.17763568394E-14  0.18336942525E+03  0.19953582566E+03  0.78677821567E+02 0.  0.
         66    2    3    3    0    0 -0.16198468322E+02 -0.66779693716E+01  0.18099764262E+03  0.18185470104E+03  0.20000015188E+01 0.  0.
        -13    1    3    3    0    0  0.16198468322E+02  0.66779693716E+01  0.23717826271E+01  0.17681124619E+02  0.10566000000E+00 0.  1.
         13    1    4    4    0    0 -0.11552768482E+01 -0.63803933026E+00  0.15460035651E+02  0.15516624154E+02  0.10566000000E+00 0. -1.
        -13    1    4    4    0    0 -0.40289563908E+01 -0.22756674145E+01  0.51847381403E+02  0.52053561590E+02  0.10566000000E+00 0.  1.
         14    1    4    4    0    0 -0.11014235083E+02 -0.37642626269E+01  0.11369022557E+03  0.11428451530E+03  0.00000000000E+00 0. -1.
<mgrwt>
<rscale>  0 0.78677822E+02</rscale>
<asrwt>0</asrwt>
<pdfrwt beam="1">  1        2 0.29454250E-01 0.78677822E+02</pdfrwt>
<pdfrwt beam="2">  1       -1 0.12435693E-02 0.78677822E+02</pdfrwt>
<totfact> 0.22704612E+05</totfact>
</mgrwt>
</event>
<event>
 8    1  0.2389776E-024  0.8008219E+02  0.7818608E-02  0.1328818E+00
          2   -1    0    0  501    0  0.00000000000E+00  0.00000000000E+00  0.49672335486E+03  0.49672335487E+03  0.25500000000E-02 0. -1.
         -1   -1    0    0    0  501 -0.00000000000E+00 -0.00000000000E+00 -0.32277291488E+01  0.32277330837E+01  0.50400000000E-02 0.  1.
         24    2    1    2    0    0  0.00000000000E+00  0.35527136788E-14  0.49349562571E+03  0.49995108795E+03  0.80082193692E+02 0.  0.
         66    2    3    3    0    0 -0.32756251144E+02  0.21862255208E+02  0.29120189974E+03  0.29385962058E+03  0.20000007536E+01 0.  0.
        -13    1    3    3    0    0  0.32756251144E+02 -0.21862255208E+02  0.20229372597E+03  0.20609146737E+03  0.10566000000E+00 0.  1.
         13    1    4    4    0    0 -0.88961707772E+01  0.58716766070E+01  0.78965874731E+02  0.79682112024E+02  0.10566000000E+00 0. -1.
        -13    1    4    4    0    0 -0.15549471080E+02  0.10048884685E+02  0.14224244075E+03  0.14344228543E+03  0.10566000000E+00 0.  1.
        -14    1    4    4    0    0 -0.83106092864E+01  0.59416939158E+01  0.69993584261E+02  0.70735223128E+02  0.00000000000E+00 0.  1.
<mgrwt>
<rscale>  0 0.80082194E+02</rscale>
<asrwt>0</asrwt>
<pdfrwt beam="1">  1        2 0.76418991E-01 0.80082194E+02</pdfrwt>
<pdfrwt beam="2">  1       -1 0.49657394E-03 0.80082194E+02</pdfrwt>
<totfact> 0.30306266E+05</totfact>
</mgrwt>
</event>
<event>
 8    1  0.2389776E-024  0.7933771E+02  0.7818608E-02  0.1330941E+00
         -1   -1    0    0    0  501 -0.00000000000E+00  0.00000000000E+00  0.32924971353E+01  0.32925009928E+01  0.50400000000E-02 0.  1.
          2   -1    0    0  501    0  0.00000000000E+00 -0.00000000000E+00 -0.47794031715E+03  0.47794031716E+03  0.25500000000E-02 0. -1.
         24    2    1    2    0    0  0.00000000000E+00  0.00000000000E+00 -0.47464782002E+03  0.48123281815E+03  0.79337709947E+02 0.  0.
         66    2    3    3    0    0 -0.20945123490E+02 -0.21109439367E+02 -0.39649395474E+03  0.39761257868E+03  0.19999867548E+01 0.  0.
        -13    1    3    3    0    0  0.20945123490E+02  0.21109439367E+02 -0.78153865278E+02  0.83620239477E+02  0.10566000000E+00 0.  1.
         13    1    4    4    0    0 -0.14259460770E+02 -0.14805539655E+02 -0.28068433899E+03  0.28143604166E+03  0.10566000000E+00 0. -1.
        -13    1    4    4    0    0 -0.93177056297E+00 -0.10127708217E+01 -0.20930284683E+02  0.20975745090E+02  0.10566000000E+00 0.  1.
        -14    1    4    4    0    0 -0.57538921568E+01 -0.52911288901E+01 -0.94879331062E+02  0.95200791923E+02  0.00000000000E+00 0.  1.
<mgrwt>
<rscale>  0 0.79337710E+02</rscale>
<asrwt>0</asrwt>
<pdfrwt beam="1">  1        2 0.73529224E-01 0.79337710E+02</pdfrwt>
<pdfrwt beam="2">  1       -1 0.50653870E-03 0.79337710E+02</pdfrwt>
<totfact> 0.30668575E+05</totfact>
</mgrwt>
</event>
<event>
 8    1  0.2389776E-024  0.7813409E+02  0.7818608E-02  0.1334432E+00
          2   -1    0    0  501    0  0.00000000000E+00  0.00000000000E+00  0.85061718769E+03  0.85061718770E+03  0.25500000000E-02 0. -1.
         -1   -1    0    0    0  501 -0.00000000000E+00 -0.00000000000E+00 -0.17942629150E+01  0.17942699935E+01  0.50400000000E-02 0.  1.
         24    2    1    2    0    0  0.35527136788E-14  0.22204460493E-15  0.84882292478E+03  0.85241145769E+03  0.78134087139E+02 0.  0.
         66    2    3    3    0    0 -0.23015716828E+02 -0.16234502207E+01  0.76827530749E+03  0.76862429503E+03  0.20000002154E+01 0.  0.
        -13    1    3    3    0    0  0.23015716828E+02  0.16234502207E+01  0.80547617285E+02  0.83787162657E+02  0.10566000000E+00 0.  1.
         13    1    4    4    0    0 -0.56691682228E+01 -0.83980074433E+00  0.19296912490E+03  0.19305423866E+03  0.10566000000E+00 0. -1.
        -13    1    4    4    0    0 -0.15807416612E+01 -0.40451489801E+00  0.62897288657E+02  0.62918538293E+02  0.10566000000E+00 0.  1.
         14    1    4    4    0    0 -0.15765806944E+02 -0.37913457839E+00  0.51240889393E+03  0.51265151809E+03  0.00000000000E+00 0. -1.
<mgrwt>
<rscale>  0 0.78134087E+02</rscale>
<asrwt>0</asrwt>
<pdfrwt beam="1">  1        2 0.13086404E+00 0.78134087E+02</pdfrwt>
<pdfrwt beam="2">  1       -1 0.27604129E-03 0.78134087E+02</pdfrwt>
<totfact> 0.36889407E+05</totfact>
</mgrwt>
</event>
<event>
 8    1  0.2389776E-024  0.8038204E+02  0.7818608E-02  0.1327971E+00
         -1   -1    0    0    0  501 -0.00000000000E+00  0.00000000000E+00  0.23160294581E+01  0.23160349420E+01  0.50400000000E-02 0.  1.
          2   -1    0    0  501    0  0.00000000000E+00 -0.00000000000E+00 -0.69745059091E+03  0.69745059091E+03  0.25500000000E-02 0. -1.
         24    2    1    2    0    0  0.00000000000E+00 -0.35527136788E-14 -0.69513456145E+03  0.69976662585E+03  0.80382038652E+02 0.  0.
         66    2    3    3    0    0 -0.17435859303E+02 -0.30650281017E+02 -0.51520493063E+03  0.51641414530E+03  0.19999999704E+01 0.  0.
        -13    1    3    3    0    0  0.17435859303E+02  0.30650281017E+02 -0.17992963082E+03  0.18335248056E+03  0.10566000000E+00 0.  1.
         13    1    4    4    0    0 -0.92565371900E+01 -0.16327007324E+02 -0.28818212562E+03  0.28879266497E+03  0.10566000000E+00 0. -1.
        -13    1    4    4    0    0 -0.69041288914E+01 -0.12210641508E+02 -0.19447647901E+03  0.19498173969E+03  0.10566000000E+00 0.  1.
         14    1    4    4    0    0 -0.12751932221E+01 -0.21126321851E+01 -0.32546326002E+02  0.32639740636E+02  0.00000000000E+00 0. -1.
<mgrwt>
<rscale>  0 0.80382039E+02</rscale>
<asrwt>0</asrwt>
<pdfrwt beam="1">  1        2 0.10729992E+00 0.80382039E+02</pdfrwt>
<pdfrwt beam="2">  1       -1 0.35631320E-03 0.80382039E+02</pdfrwt>
<totfact> 0.33012208E+05</totfact>
</mgrwt>
</event>
<event>
 8    1  0.2389776E-024  0.7935270E+02  0.7818608E-02  0.1330898E+00
          2   -1    0    0  501    0  0.00000000000E+00  0.00000000000E+00  0.11239846064E+04  0.11239846064E+04  0.25500000000E-02 0. -1.
         -1   -1    0    0    0  501 -0.00000000000E+00 -0.00000000000E+00 -0.14005597650E+01  0.14005688333E+01  0.50400000000E-02 0.  1.
         24    2    1    2    0    0  0.00000000000E+00 -0.17763568394E-14  0.11225840466E+04  0.11253851752E+04  0.79352699273E+02 0.  0.
         66    2    3    3    0    0 -0.94337750949E+01  0.14167679705E+02  0.10695335650E+04  0.10696708681E+04  0.20000000422E+01 0.  0.
        -13    1    3    3    0    0  0.94337750949E+01 -0.14167679705E+02  0.53050481557E+02  0.55714307123E+02  0.10566000000E+00 0.  1.
         13    1    4    4    0    0 -0.20060022850E+01  0.30751179829E+01  0.26527486314E+03  0.26530029131E+03  0.10566000000E+00 0.  1.
        -13    1    4    4    0    0 -0.62024557617E+01  0.97672673421E+01  0.67286883938E+03  0.67296831734E+03  0.10566000000E+00 0. -1.
         14    1    4    4    0    0 -0.12253170482E+01  0.13252943802E+01  0.13138986253E+03  0.13140225943E+03  0.00000000000E+00 0. -1.
<mgrwt>
<rscale>  0 0.79352699E+02</rscale>
<asrwt>0</asrwt>
<pdfrwt beam="1">  1        2 0.17292103E+00 0.79352699E+02</pdfrwt>
<pdfrwt beam="2">  1       -1 0.21547103E-03 0.79352699E+02</pdfrwt>
<totfact> 0.35971380E+05</totfact>
</mgrwt>
</event>
<event>
 8    1  0.2389776E-024  0.8577791E+02  0.7818608E-02  0.1313411E+00
         -1   -1    0    0    0  501 -0.00000000000E+00  0.00000000000E+00  0.21624115792E+01  0.21624174527E+01  0.50400000000E-02 0.  1.
          2   -1    0    0  501    0  0.00000000000E+00 -0.00000000000E+00 -0.85065219637E+03  0.85065219638E+03  0.25500000000E-02 0. -1.
         24    2    1    2    0    0  0.00000000000E+00 -0.35527136788E-14 -0.84848978479E+03  0.85281461383E+03  0.85777914767E+02 0.  0.
         66    2    3    3    0    0 -0.83862594774E+01  0.31474182257E+02 -0.70152034175E+03  0.70227896407E+03  0.19999963473E+01 0.  0.
        -13    1    3    3    0    0  0.83862594774E+01 -0.31474182257E+02 -0.14696944304E+03  0.15053564976E+03  0.10566000000E+00 0.  1.
         13    1    4    4    0    0 -0.60205155067E+01  0.21509436752E+02 -0.47997645097E+03  0.48049589710E+03  0.10566000000E+00 0. -1.
        -13    1    4    4    0    0 -0.86944095858E+00  0.40932721801E+01 -0.79759230203E+02  0.79868997560E+02  0.10566000000E+00 0.  1.
         14    1    4    4    0    0 -0.14963030121E+01  0.58714733242E+01 -0.14178466058E+03  0.14191406941E+03  0.00000000000E+00 0. -1.
<mgrwt>
<rscale>  0 0.85777915E+02</rscale>
<asrwt>0</asrwt>
<pdfrwt beam="1">  1        2 0.13086930E+00 0.85777915E+02</pdfrwt>
<pdfrwt beam="2">  1       -1 0.33267984E-03 0.85777915E+02</pdfrwt>
<totfact> 0.28932628E+05</totfact>
</mgrwt>
</event>
<event>
 8    1  0.2389776E-024  0.8027450E+02  0.7818608E-02  0.1328274E+00
         -1   -1    0    0    0  501 -0.00000000000E+00  0.00000000000E+00  0.13060545698E+02  0.13060546670E+02  0.50400000000E-02 0.  1.
          2   -1    0    0  501    0  0.00000000000E+00 -0.00000000000E+00 -0.12334850666E+03  0.12334850669E+03  0.25500000000E-02 0. -1.
         24    2    1    2    0    0  0.35527136788E-14 -0.35527136788E-14 -0.11028796097E+03  0.13640905336E+03  0.80274500961E+02 0.  0.
         66    2    3    3    0    0  0.21573387724E+02 -0.20055350891E+02 -0.10144623351E+03  0.10565494037E+03  0.19999935222E+01 0.  0.
        -13    1    3    3    0    0 -0.21573387724E+02  0.20055350891E+02 -0.88417274537E+01  0.30754112987E+02  0.10566000000E+00 0.  1.
         13    1    4    4    0    0  0.32339311086E+01 -0.38795260156E+01 -0.16966009566E+02  0.17702137643E+02  0.10566000000E+00 0. -1.
        -13    1    4    4    0    0  0.85757940594E+01 -0.72920670704E+01 -0.37497258559E+02  0.39150658352E+02  0.10566000000E+00 0.  1.
        -14    1    4    4    0    0  0.97636625563E+01 -0.88837578045E+01 -0.46982965389E+02  0.48802144379E+02  0.00000000000E+00 0.  1.
<mgrwt>
<rscale>  0 0.80274501E+02</rscale>
<asrwt>0</asrwt>
<pdfrwt beam="1">  1        2 0.18976693E-01 0.80274501E+02</pdfrwt>
<pdfrwt beam="2">  1       -1 0.20093149E-02 0.80274501E+02</pdfrwt>
<totfact> 0.18670688E+05</totfact>
</mgrwt>
</event>
<event>
 8    1  0.2389776E-024  0.8307631E+02  0.7818608E-02  0.1320541E+00
          2   -1    0    0  501    0  0.00000000000E+00  0.00000000000E+00  0.23691095806E+03  0.23691095808E+03  0.25500000000E-02 0. -1.
         -1   -1    0    0    0  501 -0.00000000000E+00 -0.00000000000E+00 -0.72829819550E+01  0.72829836989E+01  0.50400000000E-02 0.  1.
         24    2    1    2    0    0  0.00000000000E+00  0.00000000000E+00  0.22962797611E+03  0.24419394177E+03  0.83076313041E+02 0.  0.
         66    2    3    3    0    0 -0.48234228123E+01 -0.17305849342E+02  0.22488811324E+03  0.22561343335E+03  0.20000016044E+01 0.  0.
        -13    1    3    3    0    0  0.48234228123E+01  0.17305849342E+02  0.47398628718E+01  0.18580508420E+02  0.10566000000E+00 0.  1.
         13    1    4    4    0    0 -0.31961727085E+01 -0.11991034444E+02  0.15125947988E+03  0.15176772332E+03  0.10566000000E+00 0. -1.
        -13    1    4    4    0    0 -0.26657133918E+00 -0.18142678611E+00  0.54535143872E+01  0.54640606846E+01  0.10566000000E+00 0.  1.
         14    1    4    4    0    0 -0.13606787646E+01 -0.51333881117E+01  0.68175118973E+02  0.68381649345E+02  0.00000000000E+00 0. -1.
<mgrwt>
<rscale>  0 0.83076313E+02</rscale>
<asrwt>0</asrwt>
<pdfrwt beam="1">  1        2 0.36447843E-01 0.83076313E+02</pdfrwt>
<pdfrwt beam="2">  1       -1 0.11204588E-02 0.83076313E+02</pdfrwt>
<totfact> 0.21197162E+05</totfact>
</mgrwt>
</event>
<event>
 8    1  0.2389776E-024  0.7002519E+02  0.7818608E-02  0.1360007E+00
          2   -1    0    0  501    0  0.00000000000E+00  0.00000000000E+00  0.26033258144E+03  0.26033258145E+03  0.25500000000E-02 0. -1.
         -1   -1    0    0    0  501 -0.00000000000E+00 -0.00000000000E+00 -0.47089054081E+01  0.47089081053E+01  0.50400000000E-02 0.  1.
         24    2    1    2    0    0  0.35527136788E-14  0.00000000000E+00  0.25562367603E+03  0.26504148956E+03  0.70025191459E+02 0.  0.
         66    2    3    3    0    0  0.31430370096E+02  0.39057688233E+01  0.18415172024E+03  0.18686620687E+03  0.20000020996E+01 0.  0.
        -13    1    3    3    0    0 -0.31430370096E+02 -0.39057688233E+01  0.71471955793E+02  0.78175282688E+02  0.10566000000E+00 0.  1.
         13    1    4    4    0    0  0.14626130204E+02  0.17678591762E+01  0.85526805528E+02  0.86786488802E+02  0.10566000000E+00 0. -1.
        -13    1    4    4    0    0  0.88881114816E+01  0.83327632829E+00  0.55819304015E+02  0.56528742600E+02  0.10566000000E+00 0.  1.
        -14    1    4    4    0    0  0.79161284103E+01  0.13046333189E+01  0.42805610693E+02  0.43550975464E+02  0.00000000000E+00 0.  1.
<mgrwt>
<rscale>  0 0.70025191E+02</rscale>
<asrwt>0</asrwt>
<pdfrwt beam="1">  1        2 0.40051184E-01 0.70025191E+02</pdfrwt>
<pdfrwt beam="2">  1       -1 0.72444688E-03 0.70025191E+02</pdfrwt>
<totfact> 0.34272861E+05</totfact>
</mgrwt>
</event>
<event>
 8    1  0.2389776E-024  0.7821246E+02  0.7818608E-02  0.1334202E+00
         -1   -1    0    0    0  501 -0.00000000000E+00  0.00000000000E+00  0.51034972732E+01  0.51034997619E+01  0.50400000000E-02 0.  1.
          2   -1    0    0  501    0  0.00000000000E+00 -0.00000000000E+00 -0.29965661858E+03  0.29965661859E+03  0.25500000000E-02 0. -1.
         24    2    1    2    0    0  0.00000000000E+00  0.00000000000E+00 -0.29455312130E+03  0.30476011835E+03  0.78212457235E+02 0.  0.
         66    2    3    3    0    0 -0.14848699798E+01  0.38658366119E+02 -0.16893371929E+03  0.17331842239E+03  0.19999793811E+01 0.  0.
        -13    1    3    3    0    0  0.14848699798E+01 -0.38658366119E+02 -0.12561940201E+03  0.13144169595E+03  0.10566000000E+00 0.  1.
         13    1    4    4    0    0 -0.23632904430E+00  0.11453384351E+02 -0.46772769167E+02  0.48155362776E+02  0.10566000000E+00 0. -1.
        -13    1    4    4    0    0  0.27926206973E-01  0.57700202016E+00 -0.29120347738E+01  0.29706601563E+01  0.10566000000E+00 0. -1.
         14    1    4    4    0    0 -0.12764671425E+01  0.26627979748E+02 -0.11924891535E+03  0.12219239946E+03  0.00000000000E+00 0. -1.
<mgrwt>
<rscale>  0 0.78212457E+02</rscale>
<asrwt>0</asrwt>
<pdfrwt beam="1">  1        2 0.46101005E-01 0.78212457E+02</pdfrwt>
<pdfrwt beam="2">  1       -1 0.78515386E-03 0.78212457E+02</pdfrwt>
<totfact> 0.27037596E+05</totfact>
</mgrwt>
</event>
<event>
 8    1  0.2389776E-024  0.8245228E+02  0.7818608E-02  0.1322233E+00
         -1   -1    0    0    0  501 -0.00000000000E+00  0.00000000000E+00  0.16331180958E+01  0.16331258729E+01  0.50400000000E-02 0.  1.
          2   -1    0    0  501    0  0.00000000000E+00 -0.00000000000E+00 -0.10407028860E+04  0.10407028860E+04  0.25500000000E-02 0. -1.
         24    2    1    2    0    0  0.00000000000E+00  0.35527136788E-14 -0.10390697679E+04  0.10423360119E+04  0.82452283662E+02 0.  0.
         66    2    3    3    0    0  0.52770508575E+01  0.22403010276E+02 -0.95185403696E+03  0.95213436542E+03  0.20000002835E+01 0.  0.
        -13    1    3    3    0    0 -0.52770508575E+01 -0.22403010276E+02 -0.87215730931E+02  0.90201646443E+02  0.10566000000E+00 0.  1.
         13    1    4    4    0    0  0.29523119188E+01  0.11768514212E+02 -0.49706358974E+03  0.49721166265E+03  0.10566000000E+00 0. -1.
        -13    1    4    4    0    0  0.12149897841E+01  0.44868648399E+01 -0.22026739687E+03  0.22031646657E+03  0.10566000000E+00 0.  1.
         14    1    4    4    0    0  0.11097491546E+01  0.61476312243E+01 -0.23452305036E+03  0.23460623620E+03  0.00000000000E+00 0. -1.
<mgrwt>
<rscale>  0 0.82452284E+02</rscale>
<asrwt>0</asrwt>
<pdfrwt beam="1">  1        2 0.16010761E+00 0.82452284E+02</pdfrwt>
<pdfrwt beam="2">  1       -1 0.25125037E-03 0.82452284E+02</pdfrwt>
<totfact> 0.32606745E+05</totfact>
</mgrwt>
</event>
<event>
 8    1  0.2389776E-024  0.7957652E+02  0.7818608E-02  0.1330258E+00
         -1   -1    0    0    0  501 -0.00000000000E+00  0.00000000000E+00  0.86167670566E+01  0.86167685305E+01  0.50400000000E-02 0.  1.
          2   -1    0    0  501    0  0.00000000000E+00 -0.00000000000E+00 -0.18372381609E+03  0.18372381611E+03  0.25500000000E-02 0. -1.
         24    2    1    2    0    0 -0.17763568394E-14  0.00000000000E+00 -0.17510704904E+03  0.19234058464E+03  0.79576515869E+02 0.  0.
         66    2    3    3    0    0 -0.12139510057E+02  0.35360830244E+02 -0.12033671154E+03  0.12602650580E+03  0.19999995052E+01 0.  0.
        -13    1    3    3    0    0  0.12139510057E+02 -0.35360830244E+02 -0.54770337493E+02  0.66314078845E+02  0.10566000000E+00 0.  1.
         13    1    4    4    0    0 -0.42298263682E+01  0.13875944663E+02 -0.44753888858E+02  0.47046307010E+02  0.10566000000E+00 0. -1.
        -13    1    4    4    0    0 -0.62788510782E+01  0.17591696619E+02 -0.62740272025E+02  0.65461780136E+02  0.10566000000E+00 0.  1.
        -14    1    4    4    0    0 -0.16308326111E+01  0.38931889617E+01 -0.12842550660E+02  0.13518418648E+02  0.00000000000E+00 0.  1.
<mgrwt>
<rscale>  0 0.79576516E+02</rscale>
<asrwt>0</asrwt>
<pdfrwt beam="1">  1        2 0.28265199E-01 0.79576516E+02</pdfrwt>
<pdfrwt beam="2">  1       -1 0.13256567E-02 0.79576516E+02</pdfrwt>
<totfact> 0.21725741E+05</totfact>
</mgrwt>
</event>
<event>
 8    1  0.2389776E-024  0.7785103E+02  0.7818608E-02  0.1335263E+00
          2   -1    0    0  501    0  0.00000000000E+00  0.00000000000E+00  0.38728775617E+03  0.38728775618E+03  0.25500000000E-02 0. -1.
         -1   -1    0    0    0  501 -0.00000000000E+00 -0.00000000000E+00 -0.39123235524E+01  0.39123267988E+01  0.50400000000E-02 0.  1.
         24    2    1    2    0    0  0.00000000000E+00  0.88817841970E-15  0.38337543262E+03  0.39120008298E+03  0.77851028167E+02 0.  0.
         66    2    3    3    0    0  0.19805083276E+02 -0.55959333979E+01  0.35768664194E+03  0.35828381155E+03  0.20000006497E+01 0.  0.
        -13    1    3    3    0    0 -0.19805083276E+02  0.55959333979E+01  0.25688790679E+02  0.32916271429E+02  0.10566000000E+00 0.  1.
         13    1    4    4    0    0  0.66035983717E+01 -0.17358617794E+01  0.12256652328E+03  0.12275660683E+03  0.10566000000E+00 0. -1.
        -13    1    4    4    0    0  0.62287456429E+01 -0.18098599825E+01  0.12410420956E+03  0.12427364507E+03  0.10566000000E+00 0.  1.
         14    1    4    4    0    0  0.69727392612E+01 -0.20502116360E+01  0.11101590911E+03  0.11125355965E+03  0.00000000000E+00 0. -1.
<mgrwt>
<rscale>  0 0.77851028E+02</rscale>
<asrwt>0</asrwt>
<pdfrwt beam="1">  1        2 0.59582735E-01 0.77851028E+02</pdfrwt>
<pdfrwt beam="2">  1       -1 0.60189615E-03 0.77851028E+02</pdfrwt>
<totfact> 0.29992419E+05</totfact>
</mgrwt>
</event>
<event>
 8    1  0.2389776E-024  0.7969422E+02  0.7818608E-02  0.1329921E+00
         -1   -1    0    0    0  501 -0.00000000000E+00  0.00000000000E+00  0.16768419874E+01  0.16768495616E+01  0.50400000000E-02 0.  1.
          2   -1    0    0  501    0  0.00000000000E+00 -0.00000000000E+00 -0.94689217976E+03  0.94689217976E+03  0.25500000000E-02 0. -1.
         24    2    1    2    0    0  0.00000000000E+00 -0.88817841970E-15 -0.94521533777E+03  0.94856902932E+03  0.79694219577E+02 0.  0.
         66    2    3    3    0    0  0.28681522160E+02  0.64216444237E+01 -0.79271051840E+03  0.79325773442E+03  0.19999993830E+01 0.  0.
        -13    1    3    3    0    0 -0.28681522160E+02 -0.64216444237E+01 -0.15250481937E+03  0.15531129490E+03  0.10566000000E+00 0.  1.
         13    1    4    4    0    0  0.16896315596E+02  0.30225225700E+01 -0.45843356831E+03  0.45875480253E+03  0.10566000000E+00 0. -1.
        -13    1    4    4    0    0  0.18703397004E+01  0.30631542736E+00 -0.56541190868E+02  0.56573045070E+02  0.10566000000E+00 0.  1.
         14    1    4    4    0    0  0.99148668637E+01  0.30928064264E+01 -0.27773575922E+03  0.27792988682E+03  0.00000000000E+00 0. -1.
<mgrwt>
<rscale>  0 0.79694220E+02</rscale>
<asrwt>0</asrwt>
<pdfrwt beam="1">  1        2 0.14567529E+00 0.79694220E+02</pdfrwt>
<pdfrwt beam="2">  1       -1 0.25797703E-03 0.79694220E+02</pdfrwt>
<totfact> 0.35465701E+05</totfact>
</mgrwt>
</event>
<event>
 8    1  0.2389776E-024  0.7815882E+02  0.7818608E-02  0.1334359E+00
          2   -1    0    0  501    0  0.00000000000E+00  0.00000000000E+00  0.61111927858E+03  0.61111927858E+03  0.25500000000E-02 0. -1.
         -1   -1    0    0    0  501 -0.00000000000E+00 -0.00000000000E+00 -0.24990193306E+01  0.24990244130E+01  0.50400000000E-02 0.  1.
         24    2    1    2    0    0  0.35527136788E-14 -0.17763568394E-14  0.60862025925E+03  0.61361830299E+03  0.78158824234E+02 0.  0.
         66    2    3    3    0    0  0.30762481657E+02 -0.11181599776E+02  0.47176042950E+03  0.47289878547E+03  0.20000006118E+01 0.  0.
        -13    1    3    3    0    0 -0.30762481657E+02  0.11181599776E+02  0.13685982974E+03  0.14071951753E+03  0.10566000000E+00 0.  1.
         13    1    4    4    0    0  0.18704426180E+02 -0.67089449044E+01  0.29197745725E+03  0.29265288690E+03  0.10566000000E+00 0. -1.
        -13    1    4    4    0    0  0.14980004036E+01 -0.74399149651E+00  0.19282895359E+02  0.19355586946E+02  0.10566000000E+00 0.  1.
         14    1    4    4    0    0  0.10560055073E+02 -0.37286633747E+01  0.16050007689E+03  0.16089031162E+03  0.00000000000E+00 0. -1.
<mgrwt>
<rscale>  0 0.78158824E+02</rscale>
<asrwt>0</asrwt>
<pdfrwt beam="1">  1        2 0.94018451E-01 0.78158824E+02</pdfrwt>
<pdfrwt beam="2">  1       -1 0.38446450E-03 0.78158824E+02</pdfrwt>
<totfact> 0.34343271E+05</totfact>
</mgrwt>
</event>
<event>
 8    1  0.2389776E-024  0.7799045E+02  0.7818608E-02  0.1334853E+00
         -1   -1    0    0    0  501 -0.00000000000E+00  0.00000000000E+00  0.70904237776E+01  0.70904255688E+01  0.50400000000E-02 0.  1.
          2   -1    0    0  501    0  0.00000000000E+00 -0.00000000000E+00 -0.21446213137E+03  0.21446213138E+03  0.25500000000E-02 0. -1.
         24    2    1    2    0    0  0.00000000000E+00  0.55511151231E-16 -0.20737170759E+03  0.22155255695E+03  0.77990450588E+02 0.  0.
         66    2    3    3    0    0  0.35506999577E+02 -0.32938157106E+00 -0.58144999604E+02  0.68159346373E+02  0.20000019735E+01 0.  0.
        -13    1    3    3    0    0 -0.35506999577E+02  0.32938157106E+00 -0.14922670799E+03  0.15339321058E+03  0.10566000000E+00 0.  1.
         13    1    4    4    0    0  0.10758415416E+02 -0.64954602441E+00 -0.17937957728E+02  0.20927180980E+02  0.10566000000E+00 0. -1.
        -13    1    4    4    0    0  0.19157721158E+02 -0.19361293538E+00 -0.31676492489E+02  0.37019820453E+02  0.10566000000E+00 0.  1.
        -14    1    4    4    0    0  0.55908630031E+01  0.51377738874E+00 -0.85305493875E+01  0.10212344940E+02  0.00000000000E+00 0.  1.
<mgrwt>
<rscale>  0 0.77990451E+02</rscale>
<asrwt>0</asrwt>
<pdfrwt beam="1">  1        2 0.32994169E-01 0.77990451E+02</pdfrwt>
<pdfrwt beam="2">  1       -1 0.10908347E-02 0.77990451E+02</pdfrwt>
<totfact> 0.24168701E+05</totfact>
</mgrwt>
</event>
<event>
 8    1  0.2389776E-024  0.7880596E+02  0.7818608E-02  0.1332475E+00
         -1   -1    0    0    0  501 -0.00000000000E+00  0.00000000000E+00  0.63497549631E+01  0.63497569633E+01  0.50400000000E-02 0.  1.
          2   -1    0    0  501    0  0.00000000000E+00 -0.00000000000E+00 -0.24451249617E+03  0.24451249618E+03  0.25500000000E-02 0. -1.
         24    2    1    2    0    0  0.00000000000E+00  0.00000000000E+00 -0.23816274120E+03  0.25086225314E+03  0.78805956339E+02 0.  0.
         66    2    3    3    0    0  0.32063741405E+02 -0.11076073194E+02 -0.18280988288E+03  0.18594143215E+03  0.19999999182E+01 0.  0.
        -13    1    3    3    0    0 -0.32063741405E+02  0.11076073194E+02 -0.55352858320E+02  0.64920820994E+02  0.10566000000E+00 0.  1.
         13    1    4    4    0    0  0.11458524618E+02 -0.42934043797E+01 -0.67622337477E+02  0.68720614065E+02  0.10566000000E+00 0. -1.
        -13    1    4    4    0    0  0.85615427505E+01 -0.31641347504E+01 -0.51735541966E+02  0.52534647896E+02  0.10566000000E+00 0.  1.
         14    1    4    4    0    0  0.12043674036E+02 -0.36185340635E+01 -0.63452003441E+02  0.64686170189E+02  0.00000000000E+00 0. -1.
<mgrwt>
<rscale>  0 0.78805956E+02</rscale>
<asrwt>0</asrwt>
<pdfrwt beam="1">  1        2 0.37617300E-01 0.78805956E+02</pdfrwt>
<pdfrwt beam="2">  1       -1 0.97688573E-03 0.78805956E+02</pdfrwt>
<totfact> 0.24634071E+05</totfact>
</mgrwt>
</event>
<event>
 8    1  0.2389776E-024  0.7968213E+02  0.7818608E-02  0.1329956E+00
         -1   -1    0    0    0  501 -0.00000000000E+00  0.00000000000E+00  0.42098639086E+02  0.42098639387E+02  0.50400000000E-02 0.  1.
          2   -1    0    0  501    0  0.00000000000E+00 -0.00000000000E+00 -0.37704553661E+02  0.37704553747E+02  0.25500000000E-02 0. -1.
         24    2    1    2    0    0 -0.35527136788E-14  0.00000000000E+00  0.43940854249E+01  0.79803193135E+02  0.79682128785E+02 0.  0.
         66    2    3    3    0    0 -0.16051267072E+02 -0.35190148468E+02 -0.72666365246E+01  0.39405503544E+02  0.19999948458E+01 0.  0.
        -13    1    3    3    0    0  0.16051267072E+02  0.35190148468E+02  0.11660721950E+02  0.40397689590E+02  0.10566000000E+00 0.  1.
         13    1    4    4    0    0 -0.56535409187E+00 -0.18049114119E+01 -0.34298706597E+00  0.19251323635E+01  0.10566000000E+00 0. -1.
        -13    1    4    4    0    0 -0.13550159579E+00 -0.28378757698E+00  0.40341895555E-01  0.33419691119E+00  0.10566000000E+00 0.  1.
         14    1    4    4    0    0 -0.15350411385E+02 -0.33101449479E+02 -0.69639913542E+01  0.37146174270E+02  0.00000000000E+00 0. -1.
<mgrwt>
<rscale>  0 0.79682129E+02</rscale>
<asrwt>0</asrwt>
<pdfrwt beam="1">  1        2 0.58007006E-02 0.79682129E+02</pdfrwt>
<pdfrwt beam="2">  1       -1 0.64767137E-02 0.79682129E+02</pdfrwt>
<totfact> 0.14240338E+05</totfact>
</mgrwt>
</event>
<event>
 8    1  0.2389776E-024  0.8353079E+02  0.7818608E-02  0.1319320E+00
         -1   -1    0    0    0  501 -0.00000000000E+00  0.00000000000E+00  0.28993271337E+02  0.28993271775E+02  0.50400000000E-02 0.  1.
          2   -1    0    0  501    0  0.00000000000E+00 -0.00000000000E+00 -0.60163893940E+02  0.60163893994E+02  0.25500000000E-02 0. -1.
         24    2    1    2    0    0  0.44408920985E-15 -0.35527136788E-14 -0.31170622603E+02  0.89157165769E+02  0.83530787704E+02 0.  0.
         66    2    3    3    0    0  0.21473819603E+01 -0.21157305827E+02 -0.53931510968E+02  0.58007333629E+02  0.20000100639E+01 0.  0.
        -13    1    3    3    0    0 -0.21473819603E+01  0.21157305827E+02  0.22760888365E+02  0.31149832140E+02  0.10566000000E+00 0.  1.
         13    1    4    4    0    0  0.10732105023E+01 -0.11336182197E+02 -0.29831750164E+02  0.31931258814E+02  0.10566000000E+00 0. -1.
        -13    1    4    4    0    0 -0.14273644430E+00 -0.26973561866E+01 -0.74603309737E+01  0.79349736208E+01  0.10566000000E+00 0.  1.
        -14    1    4    4    0    0  0.12169079023E+01 -0.71237674436E+01 -0.16639429831E+02  0.18141101194E+02  0.00000000000E+00 0.  1.
<mgrwt>
<rscale>  0 0.83530788E+02</rscale>
<asrwt>0</asrwt>
<pdfrwt beam="1">  1        2 0.92559837E-02 0.83530788E+02</pdfrwt>
<pdfrwt beam="2">  1       -1 0.44605033E-02 0.83530788E+02</pdfrwt>
<totfact> 0.13844412E+05</totfact>
</mgrwt>
</event>
<event>
 8    1  0.2389776E-024  0.8025673E+02  0.7818608E-02  0.1328324E+00
          2   -1    0    0  501    0  0.00000000000E+00  0.00000000000E+00  0.13073188874E+04  0.13073188874E+04  0.25500000000E-02 0. -1.
         -1   -1    0    0    0  501 -0.00000000000E+00 -0.00000000000E+00 -0.12317413938E+01  0.12317517050E+01  0.50400000000E-02 0.  1.
         24    2    1    2    0    0  0.00000000000E+00  0.17763568394E-14  0.13060871460E+04  0.13085506391E+04  0.80256726485E+02 0.  0.
         66    2    3    3    0    0 -0.44808732971E+01 -0.15833819755E+02  0.12497342016E+04  0.12498441354E+04  0.20000004851E+01 0.  0.
        -13    1    3    3    0    0  0.44808732971E+01  0.15833819755E+02  0.56352944402E+02  0.58706503731E+02  0.10566000000E+00 0.  1.
         13    1    4    4    0    0 -0.79163334612E+00 -0.29490737482E+01  0.23416685772E+03  0.23418678899E+03  0.10566000000E+00 0. -1.
        -13    1    4    4    0    0 -0.28062560909E+01 -0.10616766419E+02  0.77731956854E+03  0.77739714021E+03  0.10566000000E+00 0.  1.
        -14    1    4    4    0    0 -0.88298386001E+00 -0.22679795877E+01  0.23824777532E+03  0.23826020616E+03  0.00000000000E+00 0.  1.
<mgrwt>
<rscale>  0 0.80256726E+02</rscale>
<asrwt>0</asrwt>
<pdfrwt beam="1">  1        2 0.20112710E+00 0.80256726E+02</pdfrwt>
<pdfrwt beam="2">  1       -1 0.18949842E-03 0.80256726E+02</pdfrwt>
<totfact> 0.34292096E+05</totfact>
</mgrwt>
</event>
<event>
 8    1  0.2389776E-024  0.7622152E+02  0.7818608E-02  0.1340130E+00
         -1   -1    0    0    0  501 -0.00000000000E+00  0.00000000000E+00  0.13626700686E+02  0.13626701618E+02  0.50400000000E-02 0.  1.
          2   -1    0    0  501    0  0.00000000000E+00 -0.00000000000E+00 -0.10658706948E+03  0.10658706951E+03  0.25500000000E-02 0. -1.
         24    2    1    2    0    0  0.00000000000E+00  0.00000000000E+00 -0.92960368795E+02  0.12021377113E+03  0.76221523224E+02 0.  0.
         66    2    3    3    0    0 -0.16819512034E+02  0.19535416481E+02 -0.90726049691E+02  0.94338458029E+02  0.20000221656E+01 0.  0.
        -13    1    3    3    0    0  0.16819512034E+02 -0.19535416481E+02 -0.22343191046E+01  0.25875313100E+02  0.10566000000E+00 0.  1.
         13    1    4    4    0    0 -0.79913270606E+01  0.96980232504E+01 -0.42746784181E+02  0.44555714392E+02  0.10566000000E+00 0. -1.
        -13    1    4    4    0    0 -0.25428655266E+01  0.20428280013E+01 -0.11452241507E+02  0.11908161525E+02  0.10566000000E+00 0.  1.
        -14    1    4    4    0    0 -0.62853194468E+01  0.77945652289E+01 -0.36527024003E+02  0.37874582112E+02  0.00000000000E+00 0.  1.
<mgrwt>
<rscale>  0 0.76221523E+02</rscale>
<asrwt>0</asrwt>
<pdfrwt beam="1">  1        2 0.16398010E-01 0.76221523E+02</pdfrwt>
<pdfrwt beam="2">  1       -1 0.20964156E-02 0.76221523E+02</pdfrwt>
<totfact> 0.20535006E+05</totfact>
</mgrwt>
</event>
<event>
 8    1  0.2389776E-024  0.7969340E+02  0.7818608E-02  0.1329924E+00
          2   -1    0    0  501    0  0.00000000000E+00  0.00000000000E+00  0.28159506626E+03  0.28159506627E+03  0.25500000000E-02 0. -1.
         -1   -1    0    0    0  501 -0.00000000000E+00 -0.00000000000E+00 -0.56384479780E+01  0.56384502305E+01  0.50400000000E-02 0.  1.
         24    2    1    2    0    0  0.00000000000E+00 -0.35527136788E-14  0.27595661828E+03  0.28723351650E+03  0.79693398902E+02 0.  0.
         66    2    3    3    0    0 -0.13159640178E+02 -0.31849481463E+02  0.20998623686E+03  0.21280457060E+03  0.19999996646E+01 0.  0.
        -13    1    3    3    0    0  0.13159640178E+02  0.31849481463E+02  0.65970381423E+02  0.74428945903E+02  0.10566000000E+00 0.  1.
         13    1    4    4    0    0 -0.10513357298E+02 -0.25711749580E+02  0.17099321375E+03  0.17323485522E+03  0.10566000000E+00 0. -1.
        -13    1    4    4    0    0 -0.24572561470E+01 -0.49587832188E+01  0.32414664087E+02  0.32883875238E+02  0.10566000000E+00 0.  1.
        -14    1    4    4    0    0 -0.18902673302E+00 -0.11789486646E+01  0.65783590204E+01  0.66858401462E+01  0.00000000000E+00 0.  1.
<mgrwt>
<rscale>  0 0.79693399E+02</rscale>
<asrwt>0</asrwt>
<pdfrwt beam="1">  1        2 0.43322341E-01 0.79693399E+02</pdfrwt>
<pdfrwt beam="2">  1       -1 0.86745326E-03 0.79693399E+02</pdfrwt>
<totfact> 0.25168697E+05</totfact>
</mgrwt>
</event>
<event>
 8    1  0.2389776E-024  0.8148333E+02  0.7818608E-02  0.1324894E+00
         -1   -1    0    0    0  501 -0.00000000000E+00  0.00000000000E+00  0.20785303506E+02  0.20785304117E+02  0.50400000000E-02 0.  1.
          2   -1    0    0  501    0  0.00000000000E+00 -0.00000000000E+00 -0.79858509790E+02  0.79858509830E+02  0.25500000000E-02 0. -1.
         24    2    1    2    0    0 -0.88817841970E-15  0.00000000000E+00 -0.59073206283E+02  0.10064381395E+03  0.81483333175E+02 0.  0.
         66    2    3    3    0    0  0.23768419841E+01  0.22457137988E+02 -0.71402035106E+02  0.74914771824E+02  0.19999989588E+01 0.  0.
        -13    1    3    3    0    0 -0.23768419841E+01 -0.22457137988E+02  0.12328828822E+02  0.25729042123E+02  0.10566000000E+00 0.  1.
         13    1    4    4    0    0  0.10740488202E+01  0.13976009337E+02 -0.46194237497E+02  0.48274228733E+02  0.10566000000E+00 0.  1.
        -13    1    4    4    0    0  0.50655198279E-01  0.26248148073E+00 -0.57810973894E+00  0.64562944689E+00  0.10566000000E+00 0. -1.
         14    1    4    4    0    0  0.12521379656E+01  0.82186471696E+01 -0.24629687870E+02  0.25994913644E+02  0.00000000000E+00 0. -1.
<mgrwt>
<rscale>  0 0.81483333E+02</rscale>
<asrwt>0</asrwt>
<pdfrwt beam="1">  1        2 0.12285924E-01 0.81483333E+02</pdfrwt>
<pdfrwt beam="2">  1       -1 0.31977391E-02 0.81483333E+02</pdfrwt>
<totfact> 0.15880717E+05</totfact>
</mgrwt>
</event>
<event>
 8    1  0.2389776E-024  0.7817960E+02  0.7818608E-02  0.1334298E+00
          2   -1    0    0  501    0  0.00000000000E+00  0.00000000000E+00  0.51253527786E+03  0.51253527786E+03  0.25500000000E-02 0. -1.
         -1   -1    0    0    0  501 -0.00000000000E+00 -0.00000000000E+00 -0.29812800362E+01  0.29812842964E+01  0.50400000000E-02 0.  1.
         24    2    1    2    0    0  0.17763568394E-14  0.00000000000E+00  0.50955399782E+03  0.51551656216E+03  0.78179595585E+02 0.  0.
         66    2    3    3    0    0 -0.15665599935E+02 -0.18483276396E+02  0.45700025521E+03  0.45764645282E+03  0.19999990828E+01 0.  0.
        -13    1    3    3    0    0  0.15665599935E+02  0.18483276396E+02  0.52553742613E+02  0.57870109335E+02  0.10566000000E+00 0.  1.
         13    1    4    4    0    0 -0.47612146379E+01 -0.48237079666E+01  0.12426419693E+03  0.12444894184E+03  0.10566000000E+00 0. -1.
        -13    1    4    4    0    0 -0.45821594684E-01 -0.16812933415E+00  0.50793525432E+01  0.50834391297E+01  0.10566000000E+00 0. -1.
        -14    1    4    4    0    0 -0.10858563703E+02 -0.13491439096E+02  0.32765670574E+03  0.32811407186E+03  0.00000000000E+00 0.  1.
<mgrwt>
<rscale>  0 0.78179596E+02</rscale>
<asrwt>0</asrwt>
<pdfrwt beam="1">  1        2 0.78851557E-01 0.78179596E+02</pdfrwt>
<pdfrwt beam="2">  1       -1 0.45865894E-03 0.78179596E+02</pdfrwt>
<totfact> 0.32585621E+05</totfact>
</mgrwt>
</event>
<event>
 8    1  0.2389776E-024  0.8250556E+02  0.7818608E-02  0.1322088E+00
         -1   -1    0    0    0  501 -0.00000000000E+00  0.00000000000E+00  0.68189454648E+01  0.68189473274E+01  0.50400000000E-02 0.  1.
          2   -1    0    0  501    0  0.00000000000E+00 -0.00000000000E+00 -0.24956812672E+03  0.24956812674E+03  0.25500000000E-02 0. -1.
         24    2    1    2    0    0  0.00000000000E+00 -0.88817841970E-15 -0.24274918126E+03  0.25638707406E+03  0.82505555845E+02 0.  0.
         66    2    3    3    0    0 -0.20457294259E+02  0.77347610125E+01 -0.23005136519E+03  0.23109729128E+03  0.19999983885E+01 0.  0.
        -13    1    3    3    0    0  0.20457294259E+02 -0.77347610125E+01 -0.12697816064E+02  0.25289782782E+02  0.10566000000E+00 0.  1.
         13    1    4    4    0    0 -0.90446562440E+01  0.42879826320E+01 -0.10106959290E+03  0.10156409983E+03  0.10566000000E+00 0. -1.
        -13    1    4    4    0    0 -0.65523031774E+01  0.16507774188E+01 -0.72940796281E+02  0.73253181973E+02  0.10566000000E+00 0.  1.
         14    1    4    4    0    0 -0.48603348381E+01  0.17960009618E+01 -0.56040976009E+02  0.56280009473E+02  0.00000000000E+00 0. -1.
<mgrwt>
<rscale>  0 0.82505556E+02</rscale>
<asrwt>0</asrwt>
<pdfrwt beam="1">  1        2 0.38395089E-01 0.82505556E+02</pdfrwt>
<pdfrwt beam="2">  1       -1 0.10490689E-02 0.82505556E+02</pdfrwt>
<totfact> 0.21993144E+05</totfact>
</mgrwt>
</event>
<event>
 8    1  0.2389776E-024  0.7007041E+02  0.7818608E-02  0.1359854E+00
          2   -1    0    0  501    0  0.00000000000E+00  0.00000000000E+00  0.58207528206E+03  0.58207528207E+03  0.25500000000E-02 0. -1.
         -1   -1    0    0    0  501 -0.00000000000E+00 -0.00000000000E+00 -0.21087716133E+01  0.21087776361E+01  0.50400000000E-02 0.  1.
         24    2    1    2    0    0  0.00000000000E+00  0.00000000000E+00  0.57996651045E+03  0.58418405971E+03  0.70070410088E+02 0.  0.
         66    2    3    3    0    0 -0.16535486586E+02  0.10176229301E+02  0.53306798722E+03  0.53342521216E+03  0.20000010628E+01 0.  0.
        -13    1    3    3    0    0  0.16535486586E+02 -0.10176229301E+02  0.46898523228E+02  0.50758847548E+02  0.10566000000E+00 0.  1.
         13    1    4    4    0    0 -0.71873029604E+01  0.45145164644E+01  0.25301683547E+03  0.25315917597E+03  0.10566000000E+00 0. -1.
        -13    1    4    4    0    0 -0.22696307004E+01  0.18703001809E+01  0.75212005886E+02  0.75269557191E+02  0.10566000000E+00 0.  1.
         14    1    4    4    0    0 -0.70785529250E+01  0.37914126555E+01  0.20483914587E+03  0.20499647900E+03  0.00000000000E+00 0. -1.
<mgrwt>
<rscale>  0 0.70070410E+02</rscale>
<asrwt>0</asrwt>
<pdfrwt beam="1">  1        2 0.89550143E-01 0.70070410E+02</pdfrwt>
<pdfrwt beam="2">  1       -1 0.32442651E-03 0.70070410E+02</pdfrwt>
<totfact> 0.44916328E+05</totfact>
</mgrwt>
</event>
<event>
 8    1  0.2389776E-024  0.7976590E+02  0.7818608E-02  0.1329717E+00
          2   -1    0    0  501    0  0.00000000000E+00  0.00000000000E+00  0.11371087137E+02  0.11371087423E+02  0.25500000000E-02 0. -1.
         -1   -1    0    0    0  501 -0.00000000000E+00 -0.00000000000E+00 -0.13988545601E+03  0.13988545610E+03  0.50400000000E-02 0.  1.
         24    2    1    2    0    0  0.00000000000E+00  0.17763568394E-14 -0.12851436888E+03  0.15125654353E+03  0.79765900934E+02 0.  0.
         66    2    3    3    0    0  0.20190904334E+02  0.14540707018E+02 -0.52529257405E+01  0.25508782885E+02  0.19999992459E+01 0.  0.
        -13    1    3    3    0    0 -0.20190904334E+02 -0.14540707018E+02 -0.12326144313E+03  0.12574776064E+03  0.10566000000E+00 0.  1.
         13    1    4    4    0    0  0.56808111754E+01  0.39108763954E+01 -0.83626516640E+00  0.69481704969E+01  0.10566000000E+00 0. -1.
        -13    1    4    4    0    0  0.53522093294E+00  0.54003583479E+00 -0.38498166984E+00  0.85876368788E+00  0.10566000000E+00 0.  1.
         14    1    4    4    0    0  0.13974872226E+02  0.10089794788E+02 -0.40316789043E+01  0.17701848700E+02  0.00000000000E+00 0. -1.
<mgrwt>
<rscale>  0 0.79765901E+02</rscale>
<asrwt>0</asrwt>
<pdfrwt beam="1">  1        2 0.17493981E-02 0.79765901E+02</pdfrwt>
<pdfrwt beam="2">  1       -1 0.21520838E-01 0.79765901E+02</pdfrwt>
<totfact> 0.11058936E+05</totfact>
</mgrwt>
</event>
<event>
 8    1  0.2389776E-024  0.7949485E+02  0.7818608E-02  0.1330491E+00
         -1   -1    0    0    0  501 -0.00000000000E+00  0.00000000000E+00  0.13003101000E+02  0.13003101976E+02  0.50400000000E-02 0.  1.
          2   -1    0    0  501    0  0.00000000000E+00 -0.00000000000E+00 -0.12149853961E+03  0.12149853964E+03  0.25500000000E-02 0. -1.
         24    2    1    2    0    0  0.00000000000E+00  0.17763568394E-14 -0.10849543861E+03  0.13450164162E+03  0.79494851390E+02 0.  0.
         66    2    3    3    0    0 -0.29046661526E+02 -0.87825079579E+01 -0.97650540552E+02  0.10227643456E+03  0.20000010662E+01 0.  0.
        -13    1    3    3    0    0  0.29046661526E+02  0.87825079579E+01 -0.10844898061E+02  0.32225207056E+02  0.10566000000E+00 0.  1.
         13    1    4    4    0    0 -0.85143072450E+01 -0.31727794716E+01 -0.30008785825E+02  0.31354399183E+02  0.10566000000E+00 0. -1.
        -13    1    4    4    0    0 -0.38621805701E+00 -0.66744731908E-01 -0.93358172453E+00  0.10180167576E+01  0.10566000000E+00 0. -1.
         14    1    4    4    0    0 -0.20146136224E+02 -0.55429837544E+01 -0.66708173002E+02  0.69904018618E+02  0.00000000000E+00 0. -1.
<mgrwt>
<rscale>  0 0.79494851E+02</rscale>
<asrwt>0</asrwt>
<pdfrwt beam="1">  1        2 0.18692082E-01 0.79494851E+02</pdfrwt>
<pdfrwt beam="2">  1       -1 0.20004772E-02 0.79494851E+02</pdfrwt>
<totfact> 0.19075508E+05</totfact>
</mgrwt>
</event>
<event>
 8    1  0.2968374E-024  0.8010328E+02  0.7818608E-02  0.1328759E+00
          2   -1    0    0  501    0  0.00000000000E+00  0.00000000000E+00  0.39013052960E+03  0.39013052960E+03  0.25500000000E-02 0. -1.
         -1   -1    0    0    0  501 -0.00000000000E+00 -0.00000000000E+00 -0.41117864004E+01  0.41117894893E+01  0.50400000000E-02 0.  1.
         24    2    1    2    0    0  0.35527136788E-14  0.00000000000E+00  0.38601874320E+03  0.39424231909E+03  0.80103283740E+02 0.  0.
         66    2    3    3    0    0  0.20681240155E+02  0.17317603806E+02  0.33867418827E+03  0.33975258482E+03  0.19999990924E+01 0.  0.
        -13    1    3    3    0    0 -0.20681240155E+02 -0.17317603806E+02  0.47344554925E+02  0.54489734271E+02  0.10566000000E+00 0.  1.
         13    1    4    4    0    0  0.33073338360E+00  0.28481550411E+00  0.63939465314E+01  0.64096973973E+01  0.10566000000E+00 0. -1.
        -13    1    4    4    0    0  0.15409945051E+01  0.18601917403E+01  0.33151121083E+02  0.33239178246E+02  0.10566000000E+00 0.  1.
         14    1    4    4    0    0  0.18809512266E+02  0.15172596562E+02  0.29912912066E+03  0.30010370918E+03  0.00000000000E+00 0. -1.
<mgrwt>
<rscale>  0 0.80103284E+02</rscale>
<asrwt>0</asrwt>
<pdfrwt beam="1">  1        2 0.60020070E-01 0.80103284E+02</pdfrwt>
<pdfrwt beam="2">  1       -1 0.63258288E-03 0.80103284E+02</pdfrwt>
<totfact> 0.27912888E+05</totfact>
</mgrwt>
</event>
<event>
 8    1  0.2389776E-024  0.8040779E+02  0.7818608E-02  0.1327898E+00
          2   -1    0    0  501    0  0.00000000000E+00  0.00000000000E+00  0.24007435753E+03  0.24007435754E+03  0.25500000000E-02 0. -1.
         -1   -1    0    0    0  501 -0.00000000000E+00 -0.00000000000E+00 -0.67327187757E+01  0.67327206621E+01  0.50400000000E-02 0.  1.
         24    2    1    2    0    0  0.35527136788E-14  0.22204460493E-15  0.23334163875E+03  0.24680707820E+03  0.80407794870E+02 0.  0.
         66    2    3    3    0    0  0.23738176009E+02  0.18280158719E+01  0.21608589044E+03  0.21740274763E+03  0.19999977901E+01 0.  0.
        -13    1    3    3    0    0 -0.23738176009E+02 -0.18280158719E+01  0.17255748316E+02  0.29404330569E+02  0.10566000000E+00 0.  1.
         13    1    4    4    0    0  0.52003148789E+01  0.34416506954E+00  0.48528695915E+02  0.48807860183E+02  0.10566000000E+00 0. -1.
        -13    1    4    4    0    0  0.42608371703E+01  0.10662425291E+01  0.39723925857E+02  0.39966148877E+02  0.10566000000E+00 0.  1.
         14    1    4    4    0    0  0.14277023959E+02  0.41760827330E+00  0.12783326866E+03  0.12862873857E+03  0.00000000000E+00 0. -1.
<mgrwt>
<rscale>  0 0.80407795E+02</rscale>
<asrwt>0</asrwt>
<pdfrwt beam="1">  1        2 0.36934515E-01 0.80407795E+02</pdfrwt>
<pdfrwt beam="2">  1       -1 0.10358031E-02 0.80407795E+02</pdfrwt>
<totfact> 0.23212511E+05</totfact>
</mgrwt>
</event>
<event>
 8    1  0.2389776E-024  0.8014711E+02  0.7818608E-02  0.1328634E+00
         -1   -1    0    0    0  501 -0.00000000000E+00  0.00000000000E+00  0.52060798044E+01  0.52060822440E+01  0.50400000000E-02 0.  1.
          2   -1    0    0  501    0  0.00000000000E+00 -0.00000000000E+00 -0.30846424282E+03  0.30846424283E+03  0.25500000000E-02 0. -1.
         24    2    1    2    0    0  0.00000000000E+00  0.00000000000E+00 -0.30325816301E+03  0.31367032507E+03  0.80147110969E+02 0.  0.
         66    2    3    3    0    0  0.38413490256E+02  0.23186144337E+01 -0.10833381192E+03  0.11498342057E+03  0.19999987237E+01 0.  0.
        -13    1    3    3    0    0 -0.38413490256E+02 -0.23186144337E+01 -0.19492435110E+03  0.19868690450E+03  0.10566000000E+00 0.  1.
         13    1    4    4    0    0  0.90504884421E+01  0.89140181466E+00 -0.25776431981E+02  0.27333890099E+02  0.10566000000E+00 0. -1.
        -13    1    4    4    0    0  0.12878942944E+02 -0.14693556973E+00 -0.35794009542E+02  0.38040912772E+02  0.10566000000E+00 0.  1.
        -14    1    4    4    0    0  0.16484058869E+02  0.15741481887E+01 -0.46763370394E+02  0.49608617698E+02  0.00000000000E+00 0.  1.
<mgrwt>
<rscale>  0 0.80147111E+02</rscale>
<asrwt>0</asrwt>
<pdfrwt beam="1">  1        2 0.47456023E-01 0.80147111E+02</pdfrwt>
<pdfrwt beam="2">  1       -1 0.80093578E-03 0.80147111E+02</pdfrwt>
<totfact> 0.25628746E+05</totfact>
</mgrwt>
</event>
<event>
 8    1  0.2389776E-024  0.8149409E+02  0.7818608E-02  0.1324864E+00
         -1   -1    0    0    0  501 -0.00000000000E+00  0.00000000000E+00  0.71182791366E+01  0.71182809209E+01  0.50400000000E-02 0.  1.
          2   -1    0    0  501    0  0.00000000000E+00 -0.00000000000E+00 -0.23324760030E+03  0.23324760031E+03  0.25500000000E-02 0. -1.
         24    2    1    2    0    0 -0.71054273576E-14  0.17763568394E-14 -0.22612932116E+03  0.24036588123E+03  0.81494091638E+02 0.  0.
         66    2    3    3    0    0 -0.34051958618E+02  0.14964248037E+02 -0.16203115018E+03  0.16625750592E+03  0.20000098334E+01 0.  0.
        -13    1    3    3    0    0  0.34051958618E+02 -0.14964248037E+02 -0.64098170978E+02  0.74108375315E+02  0.10566000000E+00 0.  1.
         13    1    4    4    0    0 -0.16242179956E+02  0.65903255617E+01 -0.78352050184E+02  0.80288826949E+02  0.10566000000E+00 0. -1.
        -13    1    4    4    0    0 -0.10784055092E+02  0.53168158243E+01 -0.49089371718E+02  0.50540498162E+02  0.10566000000E+00 0.  1.
        -14    1    4    4    0    0 -0.70257235695E+01  0.30571066513E+01 -0.34589728279E+02  0.35428180805E+02  0.00000000000E+00 0.  1.
<mgrwt>
<rscale>  0 0.81494092E+02</rscale>
<asrwt>0</asrwt>
<pdfrwt beam="1">  1        2 0.35884240E-01 0.81494092E+02</pdfrwt>
<pdfrwt beam="2">  1       -1 0.10951202E-02 0.81494092E+02</pdfrwt>
<totfact> 0.22176835E+05</totfact>
</mgrwt>
</event>
<event>
 8    1  0.2389776E-024  0.8082772E+02  0.7818608E-02  0.1326719E+00
         -1   -1    0    0    0  501 -0.00000000000E+00  0.00000000000E+00  0.36388517743E+01  0.36388552647E+01  0.50400000000E-02 0.  1.
          2   -1    0    0  501    0  0.00000000000E+00 -0.00000000000E+00 -0.44884465053E+03  0.44884465054E+03  0.25500000000E-02 0. -1.
         24    2    1    2    0    0  0.35527136788E-14 -0.44408920985E-15 -0.44520579876E+03  0.45248350580E+03  0.80827716640E+02 0.  0.
         66    2    3    3    0    0  0.25919147111E+02 -0.33187889697E+01 -0.39514449951E+03  0.39601261602E+03  0.20000006933E+01 0.  0.
        -13    1    3    3    0    0 -0.25919147111E+02  0.33187889697E+01 -0.50061299247E+02  0.56470889789E+02  0.10566000000E+00 0.  1.
         13    1    4    4    0    0  0.13254007249E+02 -0.22175768321E+01 -0.21224867572E+03  0.21267368869E+03  0.10566000000E+00 0. -1.
        -13    1    4    4    0    0  0.19590995053E+01  0.10601332407E+00 -0.28596566426E+02  0.28663985855E+02  0.10566000000E+00 0.  1.
         14    1    4    4    0    0  0.10706040356E+02 -0.12072254616E+01 -0.15429925737E+03  0.15467494147E+03  0.00000000000E+00 0. -1.
<mgrwt>
<rscale>  0 0.80827717E+02</rscale>
<asrwt>0</asrwt>
<pdfrwt beam="1">  1        2 0.69052979E-01 0.80827717E+02</pdfrwt>
<pdfrwt beam="2">  1       -1 0.55982398E-03 0.80827717E+02</pdfrwt>
<totfact> 0.28613871E+05</totfact>
</mgrwt>
</event>
<event>
 8    1  0.2389776E-024  0.8016858E+02  0.7818608E-02  0.1328574E+00
          2   -1    0    0  501    0  0.00000000000E+00  0.00000000000E+00  0.10934370935E+02  0.10934371233E+02  0.25500000000E-02 0. -1.
         -1   -1    0    0    0  501 -0.00000000000E+00 -0.00000000000E+00 -0.14694492304E+03  0.14694492313E+03  0.50400000000E-02 0.  1.
         24    2    1    2    0    0 -0.35527136788E-14  0.22204460493E-15 -0.13601055211E+03  0.15787929436E+03  0.80168580526E+02 0.  0.
         66    2    3    3    0    0 -0.31580923705E+02  0.16494624994E+01 -0.19621308896E+02  0.37270245912E+02  0.19999997354E+01 0.  0.
        -13    1    3    3    0    0  0.31580923705E+02 -0.16494624994E+01 -0.11638924321E+03  0.12060904845E+03  0.10566000000E+00 0.  1.
         13    1    4    4    0    0 -0.25118647340E+02  0.16489959959E+01 -0.15835410701E+02  0.29739486010E+02  0.10566000000E+00 0. -1.
        -13    1    4    4    0    0 -0.35246986528E+01  0.11111139706E+00 -0.24894526406E+01  0.43179144064E+01  0.10566000000E+00 0.  1.
        -14    1    4    4    0    0 -0.29375777121E+01 -0.11064489351E+00 -0.12964455545E+01  0.32128454963E+01  0.00000000000E+00 0.  1.
<mgrwt>
<rscale>  0 0.80168581E+02</rscale>
<asrwt>0</asrwt>
<pdfrwt beam="1">  1        2 0.16822110E-02 0.80168581E+02</pdfrwt>
<pdfrwt beam="2">  1       -1 0.22606910E-01 0.80168581E+02</pdfrwt>
<totfact> 0.10786184E+05</totfact>
</mgrwt>
</event>
<event>
 8    1  0.2389776E-024  0.7918091E+02  0.7818608E-02  0.1331392E+00
         -1   -1    0    0    0  501 -0.00000000000E+00  0.00000000000E+00  0.64100128334E+02  0.64100128532E+02  0.50400000000E-02 0.  1.
          2   -1    0    0  501    0  0.00000000000E+00 -0.00000000000E+00 -0.24452432477E+02  0.24452432610E+02  0.25500000000E-02 0. -1.
         24    2    1    2    0    0  0.00000000000E+00  0.00000000000E+00  0.39647695856E+02  0.88552561142E+02  0.79180908672E+02 0.  0.
         66    2    3    3    0    0 -0.32071226756E+02  0.23162754449E+02  0.19201504600E+02  0.44020160800E+02  0.19999996708E+01 0.  0.
        -13    1    3    3    0    0  0.32071226756E+02 -0.23162754449E+02  0.20446191256E+02  0.44532400342E+02  0.10566000000E+00 0.  1.
         13    1    4    4    0    0 -0.29629939788E+02  0.21444711028E+02  0.17734896498E+02  0.40649067403E+02  0.10566000000E+00 0. -1.
        -13    1    4    4    0    0 -0.61235244002E+00  0.64708711959E+00  0.26846229543E+00  0.93644716391E+00  0.10566000000E+00 0.  1.
         14    1    4    4    0    0 -0.18289345285E+01  0.10709563013E+01  0.11981458068E+01  0.24346462337E+01  0.00000000000E+00 0. -1.
<mgrwt>
<rscale>  0 0.79180909E+02</rscale>
<asrwt>0</asrwt>
<pdfrwt beam="1">  1        2 0.37619128E-02 0.79180909E+02</pdfrwt>
<pdfrwt beam="2">  1       -1 0.98615580E-02 0.79180909E+02</pdfrwt>
<totfact> 0.13306051E+05</totfact>
</mgrwt>
</event>
<event>
 8    1  0.2389776E-024  0.8443277E+02  0.7818608E-02  0.1316923E+00
          2   -1    0    0  501    0  0.00000000000E+00  0.00000000000E+00  0.13370855903E+04  0.13370855903E+04  0.25500000000E-02 0. -1.
         -1   -1    0    0    0  501 -0.00000000000E+00 -0.00000000000E+00 -0.13329114910E+01  0.13329210195E+01  0.50400000000E-02 0.  1.
         24    2    1    2    0    0  0.00000000000E+00  0.00000000000E+00  0.13357526788E+04  0.13384185113E+04  0.84432769136E+02 0.  0.
         66    2    3    3    0    0 -0.70033520990E+01 -0.25890919609E+02  0.11845523769E+04  0.11848576793E+04  0.20000010213E+01 0.  0.
        -13    1    3    3    0    0  0.70033520990E+01  0.25890919609E+02  0.15120030194E+03  0.15356083201E+03  0.10566000000E+00 0.  1.
         13    1    4    4    0    0 -0.14104739496E+01 -0.60630590929E+01  0.28063143958E+03  0.28070049192E+03  0.10566000000E+00 0. -1.
        -13    1    4    4    0    0 -0.25574857052E+01 -0.83811382311E+01  0.41948046917E+03  0.41957199548E+03  0.10566000000E+00 0.  1.
        -14    1    4    4    0    0 -0.30353924442E+01 -0.11446722285E+02  0.48444046815E+03  0.48458519193E+03  0.00000000000E+00 0.  1.
<mgrwt>
<rscale>  0 0.84432769E+02</rscale>
<asrwt>0</asrwt>
<pdfrwt beam="1">  1        2 0.20570460E+00 0.84432769E+02</pdfrwt>
<pdfrwt beam="2">  1       -1 0.20506491E-03 0.84432769E+02</pdfrwt>
<totfact> 0.29903555E+05</totfact>
</mgrwt>
</event>
<event>
 8    1  0.2389776E-024  0.8073014E+02  0.7818608E-02  0.1326992E+00
          2   -1    0    0  501    0  0.00000000000E+00  0.00000000000E+00  0.47471768887E+01  0.47471775736E+01  0.25500000000E-02 0. -1.
         -1   -1    0    0    0  501 -0.00000000000E+00 -0.00000000000E+00 -0.34322271242E+03  0.34322271246E+03  0.50400000000E-02 0.  1.
         24    2    1    2    0    0 -0.17763568394E-14  0.00000000000E+00 -0.33847553553E+03  0.34796989003E+03  0.80730144399E+02 0.  0.
         66    2    3    3    0    0  0.95786523140E+01  0.37571481332E+02 -0.12135037948E+03  0.12740989514E+03  0.19999978089E+01 0.  0.
        -13    1    3    3    0    0 -0.95786523140E+01 -0.37571481332E+02 -0.21712515606E+03  0.22055999489E+03  0.10566000000E+00 0.  1.
         13    1    4    4    0    0  0.40958319706E+01  0.16117868116E+02 -0.52668245804E+02  0.55231483705E+02  0.10566000000E+00 0. -1.
        -13    1    4    4    0    0  0.52463251165E+00  0.15437686091E+01 -0.40310530582E+01  0.43495992441E+01  0.10566000000E+00 0.  1.
        -14    1    4    4    0    0  0.49581878318E+01  0.19909844607E+02 -0.64651080616E+02  0.67828812194E+02  0.00000000000E+00 0.  1.
<mgrwt>
<rscale>  0 0.80730144E+02</rscale>
<asrwt>0</asrwt>
<pdfrwt beam="1">  1        2 0.73033523E-03 0.80730144E+02</pdfrwt>
<pdfrwt beam="2">  1       -1 0.52803475E-01 0.80730144E+02</pdfrwt>
<totfact> 0.79715421E+04</totfact>
</mgrwt>
</event>
<event>
 8    1  0.2389776E-024  0.8146081E+02  0.7818608E-02  0.1324956E+00
         -1   -1    0    0    0  501 -0.00000000000E+00  0.00000000000E+00  0.24784338684E+01  0.24784389929E+01  0.50400000000E-02 0.  1.
          2   -1    0    0  501    0  0.00000000000E+00 -0.00000000000E+00 -0.66935991750E+03  0.66935991750E+03  0.25500000000E-02 0. -1.
         24    2    1    2    0    0  0.00000000000E+00  0.00000000000E+00 -0.66688148363E+03  0.67183835650E+03  0.81460812978E+02 0.  0.
         66    2    3    3    0    0  0.28379751184E+02 -0.12726065099E+02 -0.55021903377E+03  0.55110103260E+03  0.20000000334E+01 0.  0.
        -13    1    3    3    0    0 -0.28379751184E+02  0.12726065099E+02 -0.11666244986E+03  0.12073732390E+03  0.10566000000E+00 0.  1.
         13    1    4    4    0    0  0.21157430412E+02 -0.91823631405E+01 -0.40030736264E+03  0.40097125633E+03  0.10566000000E+00 0. -1.
        -13    1    4    4    0    0  0.25719221724E+01 -0.86098608623E+00 -0.47527946442E+02  0.47605387696E+02  0.10566000000E+00 0.  1.
         14    1    4    4    0    0  0.46503985996E+01 -0.26827158724E+01 -0.10238372469E+03  0.10252438857E+03  0.00000000000E+00 0. -1.
<mgrwt>
<rscale>  0 0.81460813E+02</rscale>
<asrwt>0</asrwt>
<pdfrwt beam="1">  1        2 0.10297830E+00 0.81460813E+02</pdfrwt>
<pdfrwt beam="2">  1       -1 0.38129845E-03 0.81460813E+02</pdfrwt>
<totfact> 0.31576266E+05</totfact>
</mgrwt>
</event>
<event>
 8    1  0.2389776E-024  0.7973659E+02  0.7818608E-02  0.1329801E+00
         -1   -1    0    0    0  501 -0.00000000000E+00  0.00000000000E+00  0.25923645736E+02  0.25923646226E+02  0.50400000000E-02 0.  1.
          2   -1    0    0  501    0  0.00000000000E+00 -0.00000000000E+00 -0.61313941009E+02  0.61313941062E+02  0.25500000000E-02 0. -1.
         24    2    1    2    0    0  0.00000000000E+00  0.17763568394E-14 -0.35390295273E+02  0.87237587288E+02  0.79736589069E+02 0.  0.
         66    2    3    3    0    0 -0.31907851518E+02 -0.15573040547E+02 -0.37485833597E+02  0.51670284533E+02  0.20000007053E+01 0.  0.
        -13    1    3    3    0    0  0.31907851518E+02  0.15573040547E+02  0.20955383237E+01  0.35567302756E+02  0.10566000000E+00 0.  1.
         13    1    4    4    0    0 -0.23347991186E+02 -0.11838145767E+02 -0.27884008181E+02  0.38246561465E+02  0.10566000000E+00 0. -1.
        -13    1    4    4    0    0 -0.36973688944E+01 -0.15715025336E+01 -0.47499185285E+01  0.62219809560E+01  0.10566000000E+00 0.  1.
         14    1    4    4    0    0 -0.48624914383E+01 -0.21633922469E+01 -0.48519068876E+01  0.72017421120E+01  0.00000000000E+00 0. -1.
<mgrwt>
<rscale>  0 0.79736589E+02</rscale>
<asrwt>0</asrwt>
<pdfrwt beam="1">  1        2 0.94329140E-02 0.79736589E+02</pdfrwt>
<pdfrwt beam="2">  1       -1 0.39882533E-02 0.79736589E+02</pdfrwt>
<totfact> 0.15785438E+05</totfact>
</mgrwt>
</event>
<event>
 8    1  0.2389776E-024  0.7892733E+02  0.7818608E-02  0.1332123E+00
          2   -1    0    0  501    0  0.00000000000E+00  0.00000000000E+00  0.25021769073E+03  0.25021769074E+03  0.25500000000E-02 0. -1.
         -1   -1    0    0    0  501 -0.00000000000E+00 -0.00000000000E+00 -0.62241025025E+01  0.62241045431E+01  0.50400000000E-02 0.  1.
         24    2    1    2    0    0 -0.17763568394E-14  0.00000000000E+00  0.24399358823E+03  0.25644179529E+03  0.78927329066E+02 0.  0.
         66    2    3    3    0    0 -0.15561384742E+02 -0.27609218905E+02  0.19833855877E+03  0.20086465482E+03  0.19999993886E+01 0.  0.
        -13    1    3    3    0    0  0.15561384742E+02  0.27609218905E+02  0.45655029461E+02  0.55577140469E+02  0.10566000000E+00 0.  1.
         13    1    4    4    0    0 -0.10929942611E+02 -0.20234676113E+02  0.14405046356E+03  0.14587478527E+03  0.10566000000E+00 0. -1.
        -13    1    4    4    0    0 -0.21460928633E+00 -0.13189155820E+00  0.18318796626E+01  0.18521338134E+01  0.10566000000E+00 0.  1.
         14    1    4    4    0    0 -0.44168328442E+01 -0.72426512333E+01  0.52456215546E+02  0.53137735731E+02  0.00000000000E+00 0. -1.
<mgrwt>
<rscale>  0 0.78927329E+02</rscale>
<asrwt>0</asrwt>
<pdfrwt beam="1">  1        2 0.38495031E-01 0.78927329E+02</pdfrwt>
<pdfrwt beam="2">  1       -1 0.95755436E-03 0.78927329E+02</pdfrwt>
<totfact> 0.24737741E+05</totfact>
</mgrwt>
</event>
<event>
 8    1  0.2389776E-024  0.8113310E+02  0.7818608E-02  0.1325866E+00
          2   -1    0    0  501    0  0.00000000000E+00  0.00000000000E+00  0.48636376016E+03  0.48636376017E+03  0.25500000000E-02 0. -1.
         -1   -1    0    0    0  501 -0.00000000000E+00 -0.00000000000E+00 -0.33835659707E+01  0.33835697244E+01  0.50400000000E-02 0.  1.
         24    2    1    2    0    0  0.00000000000E+00  0.00000000000E+00  0.48298019419E+03  0.48974732990E+03  0.81133095321E+02 0.  0.
         66    2    3    3    0    0 -0.29352991869E+02 -0.63059788217E+01  0.40609512455E+03  0.40720831731E+03  0.20000005349E+01 0.  0.
        -13    1    3    3    0    0  0.29352991869E+02  0.63059788217E+01  0.76885069648E+02  0.82539012590E+02  0.10566000000E+00 0.  1.
         13    1    4    4    0    0 -0.11929324213E+02 -0.29995800734E+01  0.16124580233E+03  0.16171433514E+03  0.10566000000E+00 0. -1.
        -13    1    4    4    0    0 -0.11963664576E+01 -0.50112314653E+00  0.15905259243E+02  0.15958410094E+02  0.10566000000E+00 0.  1.
         14    1    4    4    0    0 -0.16227301198E+02 -0.28052756018E+01  0.22894406298E+03  0.22953557207E+03  0.00000000000E+00 0. -1.
<mgrwt>
<rscale>  0 0.81133095E+02</rscale>
<asrwt>0</asrwt>
<pdfrwt beam="1">  1        2 0.74825145E-01 0.81133095E+02</pdfrwt>
<pdfrwt beam="2">  1       -1 0.52054924E-03 0.81133095E+02</pdfrwt>
<totfact> 0.29094842E+05</totfact>
</mgrwt>
</event>
<event>
 8    1  0.2389776E-024  0.8507487E+02  0.7818608E-02  0.1315237E+00
          2   -1    0    0  501    0  0.00000000000E+00  0.00000000000E+00  0.21728042089E+02  0.21728042238E+02  0.25500000000E-02 0. -1.
         -1   -1    0    0    0  501 -0.00000000000E+00 -0.00000000000E+00 -0.83276414002E+02  0.83276414154E+02  0.50400000000E-02 0.  1.
         24    2    1    2    0    0  0.00000000000E+00  0.00000000000E+00 -0.61548371913E+02  0.10500445639E+03  0.85074871596E+02 0.  0.
         66    2    3    3    0    0 -0.55520753908E+01 -0.18019900328E+02  0.16238606767E+02  0.24964669004E+02  0.19999999398E+01 0.  0.
        -13    1    3    3    0    0  0.55520753908E+01  0.18019900328E+02 -0.77786978680E+02  0.80039787388E+02  0.10566000000E+00 0.  1.
         13    1    4    4    0    0  0.59197774079E-01 -0.30640347312E+00  0.24084025668E+00  0.40811215325E+00  0.10566000000E+00 0. -1.
        -13    1    4    4    0    0 -0.22164897569E+01 -0.67152622038E+01  0.52440819670E+01  0.88044950463E+01  0.10566000000E+00 0. -1.
         14    1    4    4    0    0 -0.33947834080E+01 -0.10998234652E+02  0.10753684543E+02  0.15752061805E+02  0.00000000000E+00 0. -1.
<mgrwt>
<rscale>  0 0.85074872E+02</rscale>
<asrwt>0</asrwt>
<pdfrwt beam="1">  1        2 0.33427758E-02 0.85074872E+02</pdfrwt>
<pdfrwt beam="2">  1       -1 0.12811756E-01 0.85074872E+02</pdfrwt>
<totfact> 0.10578833E+05</totfact>
</mgrwt>
</event>
<event>
 8    1  0.2389776E-024  0.8246219E+02  0.7818608E-02  0.1322206E+00
          2   -1    0    0  501    0  0.00000000000E+00  0.00000000000E+00  0.41615152873E+03  0.41615152874E+03  0.25500000000E-02 0. -1.
         -1   -1    0    0    0  501 -0.00000000000E+00 -0.00000000000E+00 -0.40850563404E+01  0.40850594495E+01  0.50400000000E-02 0.  1.
         24    2    1    2    0    0  0.00000000000E+00  0.00000000000E+00  0.41206647239E+03  0.42023658819E+03  0.82462187600E+02 0.  0.
         66    2    3    3    0    0 -0.27512505899E+02 -0.19781012500E+02  0.32564371529E+03  0.32740808747E+03  0.19999995562E+01 0.  0.
        -13    1    3    3    0    0  0.27512505899E+02  0.19781012500E+02  0.86422757106E+02  0.92828500722E+02  0.10566000000E+00 0.  1.
         13    1    4    4    0    0 -0.21171114049E+02 -0.15916976317E+02  0.25620702441E+03  0.25757254653E+03  0.10566000000E+00 0. -1.
        -13    1    4    4    0    0 -0.61685657863E+01 -0.36224671085E+01  0.66358994390E+02  0.66743544799E+02  0.10566000000E+00 0.  1.
        -14    1    4    4    0    0 -0.17282606325E+00 -0.24156907349E+00  0.30776964852E+01  0.30919961384E+01  0.00000000000E+00 0.  1.
<mgrwt>
<rscale>  0 0.82462188E+02</rscale>
<asrwt>0</asrwt>
<pdfrwt beam="1">  1        2 0.64023299E-01 0.82462188E+02</pdfrwt>
<pdfrwt beam="2">  1       -1 0.62847058E-03 0.82462188E+02</pdfrwt>
<totfact> 0.26462042E+05</totfact>
</mgrwt>
</event>
<event>
 8    1  0.2389776E-024  0.8235881E+02  0.7818608E-02  0.1322488E+00
          2   -1    0    0  501    0  0.00000000000E+00  0.00000000000E+00  0.93334728249E+01  0.93334731732E+01  0.25500000000E-02 0. -1.
         -1   -1    0    0    0  501 -0.00000000000E+00 -0.00000000000E+00 -0.18168405339E+03  0.18168405346E+03  0.50400000000E-02 0.  1.
         24    2    1    2    0    0  0.00000000000E+00  0.00000000000E+00 -0.17235058056E+03  0.19101752663E+03  0.82358805600E+02 0.  0.
         66    2    3    3    0    0 -0.35662399192E+02 -0.10401330241E+02 -0.12730789126E+03  0.13263217393E+03  0.19999990188E+01 0.  0.
        -13    1    3    3    0    0  0.35662399192E+02  0.10401330241E+02 -0.45042689303E+02  0.58385352706E+02  0.10566000000E+00 0.  1.
         13    1    4    4    0    0 -0.28327929117E+02 -0.85137809047E+01 -0.99863273951E+02  0.10415200757E+03  0.10566000000E+00 0. -1.
        -13    1    4    4    0    0 -0.42304740994E+01 -0.14590824716E+01 -0.16278141515E+02  0.16882383955E+02  0.10566000000E+00 0.  1.
         14    1    4    4    0    0 -0.31039959765E+01 -0.42846686452E+00 -0.11166475795E+02  0.11597782398E+02  0.00000000000E+00 0. -1.
<mgrwt>
<rscale>  0 0.82358806E+02</rscale>
<asrwt>0</asrwt>
<pdfrwt beam="1">  1        2 0.14359190E-02 0.82358806E+02</pdfrwt>
<pdfrwt beam="2">  1       -1 0.27951391E-01 0.82358806E+02</pdfrwt>
<totfact> 0.95159748E+04</totfact>
</mgrwt>
</event>
<event>
 8    1  0.2389776E-024  0.8043044E+02  0.7818608E-02  0.1327834E+00
         -1   -1    0    0    0  501 -0.00000000000E+00  0.00000000000E+00  0.18401149737E+01  0.18401218759E+01  0.50400000000E-02 0.  1.
          2   -1    0    0  501    0  0.00000000000E+00 -0.00000000000E+00 -0.87889113805E+03  0.87889113805E+03  0.25500000000E-02 0. -1.
         24    2    1    2    0    0  0.35527136788E-14  0.00000000000E+00 -0.87705102307E+03  0.88073125993E+03  0.80430436639E+02 0.  0.
         66    2    3    3    0    0 -0.30212430929E+02  0.10989734176E+02 -0.70289695219E+03  0.70363462865E+03  0.19999997102E+01 0.  0.
        -13    1    3    3    0    0  0.30212430929E+02 -0.10989734176E+02 -0.17415407088E+03  0.17709663128E+03  0.10566000000E+00 0.  1.
         13    1    4    4    0    0 -0.26001176340E+02  0.92155761161E+01 -0.59069461888E+03  0.59133842421E+03  0.10566000000E+00 0. -1.
        -13    1    4    4    0    0 -0.37974350651E+01  0.17275911578E+01 -0.10265155780E+03  0.10273635465E+03  0.10566000000E+00 0.  1.
         14    1    4    4    0    0 -0.41381952436E+00  0.46566902201E-01 -0.95507755148E+01  0.95598497901E+01  0.00000000000E+00 0. -1.
<mgrwt>
<rscale>  0 0.80430437E+02</rscale>
<asrwt>0</asrwt>
<pdfrwt beam="1">  1        2 0.13521369E+00 0.80430437E+02</pdfrwt>
<pdfrwt beam="2">  1       -1 0.28309585E-03 0.80430437E+02</pdfrwt>
<totfact> 0.34367370E+05</totfact>
</mgrwt>
</event>
<event>
 8    1  0.2389776E-024  0.8078239E+02  0.7818608E-02  0.1326846E+00
         -1   -1    0    0    0  501 -0.00000000000E+00  0.00000000000E+00  0.24158752252E+02  0.24158752778E+02  0.50400000000E-02 0.  1.
          2   -1    0    0  501    0  0.00000000000E+00 -0.00000000000E+00 -0.67530333195E+02  0.67530333243E+02  0.25500000000E-02 0. -1.
         24    2    1    2    0    0  0.17763568394E-14  0.00000000000E+00 -0.43371580943E+02  0.91689086020E+02  0.80782389552E+02 0.  0.
         66    2    3    3    0    0  0.13270891911E+02  0.59684923585E+01 -0.64435034460E+02  0.66087919812E+02  0.20000015202E+01 0.  0.
        -13    1    3    3    0    0 -0.13270891911E+02 -0.59684923585E+01  0.21063453517E+02  0.25601166208E+02  0.10566000000E+00 0.  1.
         13    1    4    4    0    0  0.10779234657E+01  0.59589719463E+00 -0.70175225031E+01  0.71255735616E+01  0.10566000000E+00 0. -1.
        -13    1    4    4    0    0  0.19390509535E+01  0.63016563371E+00 -0.11160673609E+02  0.11345872675E+02  0.10566000000E+00 0.  1.
         14    1    4    4    0    0  0.10253917491E+02  0.47424295302E+01 -0.46256838348E+02  0.47616473575E+02  0.00000000000E+00 0. -1.
<mgrwt>
<rscale>  0 0.80782390E+02</rscale>
<asrwt>0</asrwt>
<pdfrwt beam="1">  1        2 0.10389282E-01 0.80782390E+02</pdfrwt>
<pdfrwt beam="2">  1       -1 0.37167312E-02 0.80782390E+02</pdfrwt>
<totfact> 0.15589522E+05</totfact>
</mgrwt>
</event>
<event>
 8    1  0.2389776E-024  0.7974055E+02  0.7818608E-02  0.1329789E+00
         -1   -1    0    0    0  501 -0.00000000000E+00  0.00000000000E+00  0.17681245943E+01  0.17681317775E+01  0.50400000000E-02 0.  1.
          2   -1    0    0  501    0  0.00000000000E+00 -0.00000000000E+00 -0.89905190103E+03  0.89905190103E+03  0.25500000000E-02 0. -1.
         24    2    1    2    0    0 -0.35527136788E-14  0.35527136788E-14 -0.89728377644E+03  0.90082003281E+03  0.79740554670E+02 0.  0.
         66    2    3    3    0    0 -0.23787200488E+02  0.21589462709E+02 -0.71522770203E+03  0.71595153577E+03  0.20000023543E+01 0.  0.
        -13    1    3    3    0    0  0.23787200488E+02 -0.21589462709E+02 -0.18205607441E+03  0.18486849704E+03  0.10566000000E+00 0.  1.
         13    1    4    4    0    0 -0.79148961831E-01  0.11737073234E+00 -0.41419943422E+01  0.41457594736E+01  0.10566000000E+00 0. -1.
        -13    1    4    4    0    0 -0.54154262152E+00  0.39844538680E+00 -0.12658709959E+02  0.12676992111E+02  0.10566000000E+00 0.  1.
         14    1    4    4    0    0 -0.23166508905E+02  0.21073646590E+02 -0.69842699773E+03  0.69912878418E+03  0.00000000000E+00 0. -1.
<mgrwt>
<rscale>  0 0.79740555E+02</rscale>
<asrwt>0</asrwt>
<pdfrwt beam="1">  1        2 0.13831531E+00 0.79740555E+02</pdfrwt>
<pdfrwt beam="2">  1       -1 0.27202044E-03 0.79740555E+02</pdfrwt>
<totfact> 0.35238422E+05</totfact>
</mgrwt>
</event>
<event>
 8    1  0.2389776E-024  0.7901220E+02  0.7818608E-02  0.1331878E+00
          2   -1    0    0  501    0  0.00000000000E+00  0.00000000000E+00  0.51101284364E+02  0.51101284428E+02  0.25500000000E-02 0. -1.
         -1   -1    0    0    0  501 -0.00000000000E+00 -0.00000000000E+00 -0.30541929323E+02  0.30541929739E+02  0.50400000000E-02 0.  1.
         24    2    1    2    0    0  0.35527136788E-14 -0.71054273576E-14  0.20559355041E+02  0.81643214166E+02  0.79012197411E+02 0.  0.
         66    2    3    3    0    0 -0.26750997567E+02  0.29033235843E+02  0.10727309651E+02  0.40958758475E+02  0.20000172854E+01 0.  0.
        -13    1    3    3    0    0  0.26750997567E+02 -0.29033235843E+02  0.98320453903E+01  0.40684455692E+02  0.10566000000E+00 0.  1.
         13    1    4    4    0    0 -0.76575667719E+01  0.83955374503E+01  0.29304298754E+01  0.11735500042E+02  0.10566000000E+00 0. -1.
        -13    1    4    4    0    0 -0.11363527396E+02  0.11150870801E+02  0.46946281544E+01  0.16598866589E+02  0.10566000000E+00 0.  1.
        -14    1    4    4    0    0 -0.77299033992E+01  0.94868275910E+01  0.31022516210E+01  0.12624391844E+02  0.00000000000E+00 0.  1.
<mgrwt>
<rscale>  0 0.79012197E+02</rscale>
<asrwt>0</asrwt>
<pdfrwt beam="1">  1        2 0.78617359E-02 0.79012197E+02</pdfrwt>
<pdfrwt beam="2">  1       -1 0.46987585E-02 0.79012197E+02</pdfrwt>
<totfact> 0.15533150E+05</totfact>
</mgrwt>
</event>
<event>
 8    1  0.2389776E-024  0.7896453E+02  0.7818608E-02  0.1332016E+00
          2   -1    0    0  501    0  0.00000000000E+00  0.00000000000E+00  0.63363587323E+02  0.63363587374E+02  0.25500000000E-02 0. -1.
         -1   -1    0    0    0  501 -0.00000000000E+00 -0.00000000000E+00 -0.24601655784E+02  0.24601656300E+02  0.50400000000E-02 0.  1.
         24    2    1    2    0    0  0.00000000000E+00  0.35527136788E-14  0.38761931539E+02  0.87965243675E+02  0.78964528480E+02 0.  0.
         66    2    3    3    0    0  0.34105399371E+02  0.19184821565E+02  0.13756053754E+02  0.41526674225E+02  0.20000031452E+01 0.  0.
        -13    1    3    3    0    0 -0.34105399371E+02 -0.19184821565E+02  0.25005877785E+02  0.46438569450E+02  0.10566000000E+00 0.  1.
         13    1    4    4    0    0  0.24896481707E+02  0.13701173458E+02  0.10407644492E+02  0.30263628060E+02  0.10566000000E+00 0. -1.
        -13    1    4    4    0    0  0.19479421223E+01  0.10139474304E+01  0.35865390819E+00  0.22276365424E+01  0.10566000000E+00 0.  1.
        -14    1    4    4    0    0  0.72609755420E+01  0.44697006768E+01  0.29897553540E+01  0.90354096221E+01  0.00000000000E+00 0.  1.
<mgrwt>
<rscale>  0 0.78964528E+02</rscale>
<asrwt>0</asrwt>
<pdfrwt beam="1">  1        2 0.97482440E-02 0.78964528E+02</pdfrwt>
<pdfrwt beam="2">  1       -1 0.37848702E-02 0.78964528E+02</pdfrwt>
<totfact> 0.16332693E+05</totfact>
</mgrwt>
</event>
<event>
 8    1  0.2389776E-024  0.7996966E+02  0.7818608E-02  0.1329138E+00
         -1   -1    0    0    0  501 -0.00000000000E+00  0.00000000000E+00  0.34611405911E+01  0.34611442607E+01  0.50400000000E-02 0.  1.
          2   -1    0    0  501    0  0.00000000000E+00 -0.00000000000E+00 -0.46192452099E+03  0.46192452100E+03  0.25500000000E-02 0. -1.
         24    2    1    2    0    0  0.00000000000E+00  0.35527136788E-14 -0.45846338040E+03  0.46538566526E+03  0.79969658375E+02 0.  0.
         66    2    3    3    0    0  0.10955408535E+02 -0.25442002840E+02 -0.39697961267E+03  0.39794990811E+03  0.19999999879E+01 0.  0.
        -13    1    3    3    0    0 -0.10955408535E+02  0.25442002840E+02 -0.61483767729E+02  0.67435757153E+02  0.10566000000E+00 0.  1.
         13    1    4    4    0    0  0.11125480833E+01 -0.28957037341E+01 -0.42701739870E+02  0.42814397290E+02  0.10566000000E+00 0. -1.
        -13    1    4    4    0    0  0.92758552723E+01 -0.21420350065E+02 -0.32967634154E+03  0.33050170079E+03  0.10566000000E+00 0.  1.
        -14    1    4    4    0    0  0.56700517897E+00 -0.11259490411E+01 -0.24601531262E+02  0.24633810029E+02  0.00000000000E+00 0.  1.
<mgrwt>
<rscale>  0 0.79969658E+02</rscale>
<asrwt>0</asrwt>
<pdfrwt beam="1">  1        2 0.71065262E-01 0.79969658E+02</pdfrwt>
<pdfrwt beam="2">  1       -1 0.53248382E-03 0.79969658E+02</pdfrwt>
<totfact> 0.29705784E+05</totfact>
</mgrwt>
</event>
<event>
 8    1  0.2389776E-024  0.7745090E+02  0.7818608E-02  0.1336445E+00
          2   -1    0    0  501    0  0.00000000000E+00  0.00000000000E+00  0.32719841158E+02  0.32719841257E+02  0.25500000000E-02 0. -1.
         -1   -1    0    0    0  501 -0.00000000000E+00 -0.00000000000E+00 -0.45833361206E+02  0.45833361483E+02  0.50400000000E-02 0.  1.
         24    2    1    2    0    0  0.00000000000E+00  0.00000000000E+00 -0.13113520048E+02  0.78553202740E+02  0.77450895751E+02 0.  0.
         66    2    3    3    0    0  0.14764967274E+02  0.18765378893E+02  0.24327403560E+02  0.34146248012E+02  0.19999964247E+01 0.  0.
        -13    1    3    3    0    0 -0.14764967274E+02 -0.18765378893E+02 -0.37440923608E+02  0.44406954728E+02  0.10566000000E+00 0.  1.
         13    1    4    4    0    0  0.70442340468E+01  0.91133163306E+01  0.12600632567E+02  0.17072225191E+02  0.10566000000E+00 0. -1.
        -13    1    4    4    0    0  0.68632144014E+01  0.84631450944E+01  0.10785831083E+02  0.15332118346E+02  0.10566000000E+00 0.  1.
        -14    1    4    4    0    0  0.85751882553E+00  0.11889174685E+01  0.94093991041E+00  0.17419044744E+01  0.00000000000E+00 0.  1.
<mgrwt>
<rscale>  0 0.77450896E+02</rscale>
<asrwt>0</asrwt>
<pdfrwt beam="1">  1        2 0.50338217E-02 0.77450896E+02</pdfrwt>
<pdfrwt beam="2">  1       -1 0.70512864E-02 0.77450896E+02</pdfrwt>
<totfact> 0.14979528E+05</totfact>
</mgrwt>
</event>
<event>
 8    1  0.2389776E-024  0.8022200E+02  0.7818608E-02  0.1328423E+00
         -1   -1    0    0    0  501 -0.00000000000E+00  0.00000000000E+00  0.10158488721E+03  0.10158488733E+03  0.50400000000E-02 0.  1.
          2   -1    0    0  501    0  0.00000000000E+00 -0.00000000000E+00 -0.15837911365E+02  0.15837911570E+02  0.25500000000E-02 0. -1.
         24    2    1    2    0    0  0.00000000000E+00  0.00000000000E+00  0.85746975845E+02  0.11742279890E+03  0.80222003441E+02 0.  0.
         66    2    3    3    0    0  0.21919965268E+02 -0.33157530516E+02  0.35297039699E+02  0.53195749086E+02  0.20000005037E+01 0.  0.
        -13    1    3    3    0    0 -0.21919965268E+02  0.33157530516E+02  0.50449936146E+02  0.64227049819E+02  0.10566000000E+00 0.  1.
         13    1    4    4    0    0  0.12605804671E+02 -0.19743258392E+02  0.20142959271E+02  0.30894215245E+02  0.10566000000E+00 0. -1.
        -13    1    4    4    0    0  0.11317502380E+01 -0.13897280550E+01  0.13180972447E+01  0.22272734566E+01  0.10566000000E+00 0. -1.
         14    1    4    4    0    0  0.81824103581E+01 -0.12024544069E+02  0.13835983184E+02  0.20074260385E+02  0.00000000000E+00 0. -1.
<mgrwt>
<rscale>  0 0.80222003E+02</rscale>
<asrwt>0</asrwt>
<pdfrwt beam="1">  1        2 0.24366018E-02 0.80222003E+02</pdfrwt>
<pdfrwt beam="2">  1       -1 0.15628444E-01 0.80222003E+02</pdfrwt>
<totfact> 0.11731661E+05</totfact>
</mgrwt>
</event>
<event>
 8    1  0.2389776E-024  0.7607078E+02  0.7818608E-02  0.1340587E+00
          2   -1    0    0  501    0  0.00000000000E+00  0.00000000000E+00  0.35542879698E+03  0.35542879699E+03  0.25500000000E-02 0. -1.
         -1   -1    0    0    0  501 -0.00000000000E+00 -0.00000000000E+00 -0.40702677922E+01  0.40702709126E+01  0.50400000000E-02 0.  1.
         24    2    1    2    0    0  0.00000000000E+00  0.00000000000E+00  0.35135852919E+03  0.35949906790E+03  0.76070781442E+02 0.  0.
         66    2    3    3    0    0 -0.31539312136E+02 -0.20963250934E+02  0.16048690745E+03  0.16490674213E+03  0.20000094712E+01 0.  0.
        -13    1    3    3    0    0  0.31539312136E+02  0.20963250934E+02  0.19087162174E+03  0.19459232577E+03  0.10566000000E+00 0.  1.
         13    1    4    4    0    0 -0.21805136846E+02 -0.14177778649E+02  0.11246006440E+03  0.11542855214E+03  0.10566000000E+00 0. -1.
        -13    1    4    4    0    0 -0.68945982822E+01 -0.52538732924E+01  0.34751822936E+02  0.35816742335E+02  0.10566000000E+00 0.  1.
        -14    1    4    4    0    0 -0.28395770083E+01 -0.15315989919E+01  0.13275020121E+02  0.13661447664E+02  0.00000000000E+00 0.  1.
<mgrwt>
<rscale>  0 0.76070781E+02</rscale>
<asrwt>0</asrwt>
<pdfrwt beam="1">  1        2 0.54681357E-01 0.76070781E+02</pdfrwt>
<pdfrwt beam="2">  1       -1 0.62619525E-03 0.76070781E+02</pdfrwt>
<totfact> 0.30903616E+05</totfact>
</mgrwt>
</event>
<event>
 8    1  0.2389776E-024  0.7937027E+02  0.7818608E-02  0.1330848E+00
         -1   -1    0    0    0  501 -0.00000000000E+00  0.00000000000E+00  0.19990940761E+02  0.19990941396E+02  0.50400000000E-02 0.  1.
          2   -1    0    0  501    0  0.00000000000E+00 -0.00000000000E+00 -0.78781170887E+02  0.78781170929E+02  0.25500000000E-02 0. -1.
         24    2    1    2    0    0 -0.22204460493E-15  0.35527136788E-14 -0.58790230126E+02  0.98772112325E+02  0.79370265307E+02 0.  0.
         66    2    3    3    0    0  0.14074069607E+01  0.21892131940E+02 -0.70530585687E+02  0.73890525801E+02  0.20000126210E+01 0.  0.
        -13    1    3    3    0    0 -0.14074069607E+01 -0.21892131940E+02  0.11740355561E+02  0.24881586525E+02  0.10566000000E+00 0.  1.
         13    1    4    4    0    0  0.13717215962E+00  0.36576402146E+01 -0.11126042160E+02  0.11713117703E+02  0.10566000000E+00 0.  1.
        -13    1    4    4    0    0 -0.18074435007E+00  0.98206307036E+01 -0.31639558055E+02  0.33129296007E+02  0.10566000000E+00 0. -1.
         14    1    4    4    0    0  0.14509791512E+01  0.84138610222E+01 -0.27764985472E+02  0.29048112091E+02  0.00000000000E+00 0. -1.
<mgrwt>
<rscale>  0 0.79370265E+02</rscale>
<asrwt>0</asrwt>
<pdfrwt beam="1">  1        2 0.12120180E-01 0.79370265E+02</pdfrwt>
<pdfrwt beam="2">  1       -1 0.30755295E-02 0.79370265E+02</pdfrwt>
<totfact> 0.16988222E+05</totfact>
</mgrwt>
</event>
<event>
 8    1  0.2389776E-024  0.8125622E+02  0.7818608E-02  0.1325524E+00
         -1   -1    0    0    0  501 -0.00000000000E+00  0.00000000000E+00  0.39103850832E+01  0.39103883311E+01  0.50400000000E-02 0.  1.
          2   -1    0    0  501    0  0.00000000000E+00 -0.00000000000E+00 -0.42211766538E+03  0.42211766539E+03  0.25500000000E-02 0. -1.
         24    2    1    2    0    0  0.00000000000E+00  0.00000000000E+00 -0.41820728030E+03  0.42602805372E+03  0.81256219837E+02 0.  0.
         66    2    3    3    0    0  0.20664900285E+02  0.34933671321E+02 -0.21506562241E+03  0.21887124397E+03  0.19999987225E+01 0.  0.
        -13    1    3    3    0    0 -0.20664900285E+02 -0.34933671321E+02 -0.20314165788E+03  0.20715680975E+03  0.10566000000E+00 0.  1.
         13    1    4    4    0    0  0.16071447986E+02  0.28170024878E+02 -0.17047303683E+03  0.17353071541E+03  0.10566000000E+00 0. -1.
        -13    1    4    4    0    0  0.38907726265E+01  0.54358928275E+01 -0.35352506619E+02  0.35979131879E+02  0.10566000000E+00 0.  1.
         14    1    4    4    0    0  0.70267967319E+00  0.13277536154E+01 -0.92400789651E+01  0.93613966729E+01  0.00000000000E+00 0. -1.
<mgrwt>
<rscale>  0 0.81256220E+02</rscale>
<asrwt>0</asrwt>
<pdfrwt beam="1">  1        2 0.64941143E-01 0.81256220E+02</pdfrwt>
<pdfrwt beam="2">  1       -1 0.60159829E-03 0.81256220E+02</pdfrwt>
<totfact> 0.27637606E+05</totfact>
</mgrwt>
</event>
<event>
 8    1  0.2389776E-024  0.7716792E+02  0.7818608E-02  0.1337286E+00
          2   -1    0    0  501    0  0.00000000000E+00  0.00000000000E+00  0.12942735917E+03  0.12942735920E+03  0.25500000000E-02 0. -1.
         -1   -1    0    0    0  501 -0.00000000000E+00 -0.00000000000E+00 -0.11502374760E+02  0.11502375865E+02  0.50400000000E-02 0.  1.
         24    2    1    2    0    0  0.00000000000E+00 -0.17763568394E-14  0.11792498441E+03  0.14092973506E+03  0.77167922585E+02 0.  0.
         66    2    3    3    0    0 -0.35451694975E+02  0.68086924108E+01  0.83743524871E+02  0.91214905188E+02  0.20000004452E+01 0.  0.
        -13    1    3    3    0    0  0.35451694975E+02 -0.68086924108E+01  0.34181459541E+02  0.49714829873E+02  0.10566000000E+00 0.  1.
         13    1    4    4    0    0 -0.19862353333E+02  0.31020143746E+01  0.45635333467E+02  0.49867127427E+02  0.10566000000E+00 0. -1.
        -13    1    4    4    0    0 -0.53846686305E+01  0.12278653667E+01  0.14093221008E+02  0.15137118353E+02  0.10566000000E+00 0.  1.
         14    1    4    4    0    0 -0.10204673011E+02  0.24788126695E+01  0.24014970395E+02  0.26210659408E+02  0.00000000000E+00 0. -1.
<mgrwt>
<rscale>  0 0.77167923E+02</rscale>
<asrwt>0</asrwt>
<pdfrwt beam="1">  1        2 0.19911900E-01 0.77167923E+02</pdfrwt>
<pdfrwt beam="2">  1       -1 0.17695963E-02 0.77167923E+02</pdfrwt>
<totfact> 0.21041821E+05</totfact>
</mgrwt>
</event>
<event>
 8    1  0.2389776E-024  0.7434004E+02  0.7818608E-02  0.1345927E+00
          2   -1    0    0  501    0  0.00000000000E+00  0.00000000000E+00  0.79215113992E+03  0.79215113992E+03  0.25500000000E-02 0. -1.
         -1   -1    0    0    0  501 -0.00000000000E+00 -0.00000000000E+00 -0.17441212437E+01  0.17441285257E+01  0.50400000000E-02 0.  1.
         24    2    1    2    0    0  0.17763568394E-14  0.17763568394E-14  0.79040701868E+03  0.79389526845E+03  0.74340043679E+02 0.  0.
         66    2    3    3    0    0 -0.12688790368E+02 -0.11072316785E+02  0.74903520861E+03  0.74922716538E+03  0.20000000610E+01 0.  0.
        -13    1    3    3    0    0  0.12688790368E+02  0.11072316785E+02  0.41371810065E+02  0.44668103072E+02  0.10566000000E+00 0.  1.
         13    1    4    4    0    0 -0.80328163648E+01 -0.73696623497E+01  0.49847573014E+03  0.49859492854E+03  0.10566000000E+00 0. -1.
        -13    1    4    4    0    0 -0.30334981808E+01 -0.20249405146E+01  0.13568743506E+03  0.13573648623E+03  0.10566000000E+00 0.  1.
        -14    1    4    4    0    0 -0.16224758223E+01 -0.16777139204E+01  0.11487204341E+03  0.11489575062E+03  0.00000000000E+00 0.  1.
<mgrwt>
<rscale>  0 0.74340044E+02</rscale>
<asrwt>0</asrwt>
<pdfrwt beam="1">  1        2 0.12186933E+00 0.74340044E+02</pdfrwt>
<pdfrwt beam="2">  1       -1 0.26832707E-03 0.74340044E+02</pdfrwt>
<totfact> 0.41480873E+05</totfact>
</mgrwt>
</event>
<event>
 8    1  0.2389776E-024  0.7997257E+02  0.7818608E-02  0.1329129E+00
          2   -1    0    0  501    0  0.00000000000E+00  0.00000000000E+00  0.15472565633E+02  0.15472565843E+02  0.25500000000E-02 0. -1.
         -1   -1    0    0    0  501 -0.00000000000E+00 -0.00000000000E+00 -0.10333793138E+03  0.10333793150E+03  0.50400000000E-02 0.  1.
         24    2    1    2    0    0  0.00000000000E+00  0.00000000000E+00 -0.87865365746E+02  0.11881049735E+03  0.79972568933E+02 0.  0.
         66    2    3    3    0    0  0.39039354780E+02 -0.28371827984E+01 -0.32003014803E+02  0.50599543351E+02  0.20000007459E+01 0.  0.
        -13    1    3    3    0    0 -0.39039354780E+02  0.28371827984E+01 -0.55862350943E+02  0.68210953994E+02  0.10566000000E+00 0.  1.
         13    1    4    4    0    0  0.95576409538E+01 -0.71909741589E+00 -0.74192640275E+01  0.12121148644E+02  0.10566000000E+00 0. -1.
        -13    1    4    4    0    0  0.16219830042E+02 -0.19019183756E+01 -0.13956163727E+02  0.21482221722E+02  0.10566000000E+00 0.  1.
        -14    1    4    4    0    0  0.13261883784E+02 -0.21616700694E+00 -0.10627587049E+02  0.16996172985E+02  0.00000000000E+00 0.  1.
<mgrwt>
<rscale>  0 0.79972569E+02</rscale>
<asrwt>0</asrwt>
<pdfrwt beam="1">  1        2 0.23803948E-02 0.79972569E+02</pdfrwt>
<pdfrwt beam="2">  1       -1 0.15898143E-01 0.79972569E+02</pdfrwt>
<totfact> 0.11779540E+05</totfact>
</mgrwt>
</event>
<event>
 8    1  0.2389776E-024  0.8014975E+02  0.7818608E-02  0.1328627E+00
          2   -1    0    0  501    0  0.00000000000E+00  0.00000000000E+00  0.85131588148E+03  0.85131588149E+03  0.25500000000E-02 0. -1.
         -1   -1    0    0    0  501 -0.00000000000E+00 -0.00000000000E+00 -0.18864826614E+01  0.18864893939E+01  0.50400000000E-02 0.  1.
         24    2    1    2    0    0 -0.22204460493E-15  0.00000000000E+00  0.84942939882E+03  0.85320237088E+03  0.80149747935E+02 0.  0.
         66    2    3    3    0    0  0.14390259679E+01 -0.27167999336E+02  0.73784661000E+03  0.73835072349E+03  0.20000006224E+01 0.  0.
        -13    1    3    3    0    0 -0.14390259679E+01  0.27167999336E+02  0.11158278882E+03  0.11485164739E+03  0.10566000000E+00 0.  1.
         13    1    4    4    0    0 -0.20048675024E+00 -0.40599305791E+01  0.96544647733E+02  0.96630240614E+02  0.10566000000E+00 0. -1.
        -13    1    4    4    0    0  0.37738162911E+00 -0.34628966305E+01  0.93504770332E+02  0.93569692255E+02  0.10566000000E+00 0. -1.
         14    1    4    4    0    0  0.12621310891E+01 -0.19645172126E+02  0.54779719194E+03  0.54815079062E+03  0.00000000000E+00 0. -1.
<mgrwt>
<rscale>  0 0.80149748E+02</rscale>
<asrwt>0</asrwt>
<pdfrwt beam="1">  1        2 0.13097177E+00 0.80149748E+02</pdfrwt>
<pdfrwt beam="2">  1       -1 0.29022842E-03 0.80149748E+02</pdfrwt>
<totfact> 0.34534746E+05</totfact>
</mgrwt>
</event>
<event>
 8    1  0.2389776E-024  0.7904699E+02  0.7818608E-02  0.1331778E+00
          2   -1    0    0  501    0  0.00000000000E+00  0.00000000000E+00  0.79145113005E+02  0.79145113047E+02  0.25500000000E-02 0. -1.
         -1   -1    0    0    0  501 -0.00000000000E+00 -0.00000000000E+00 -0.19737246913E+02  0.19737247556E+02  0.50400000000E-02 0.  1.
         24    2    1    2    0    0  0.00000000000E+00  0.00000000000E+00  0.59407866093E+02  0.98882360603E+02  0.79046990358E+02 0.  0.
         66    2    3    3    0    0  0.30342860582E+01 -0.15033612076E+02  0.75255514620E+02  0.76828437781E+02  0.19999968051E+01 0.  0.
        -13    1    3    3    0    0 -0.30342860582E+01  0.15033612076E+02 -0.15847648527E+02  0.22053922822E+02  0.10566000000E+00 0.  1.
         13    1    4    4    0    0  0.16094939241E+01 -0.64049245832E+01  0.36610790321E+02  0.37201809923E+02  0.10566000000E+00 0. -1.
        -13    1    4    4    0    0  0.95060749298E+00 -0.69016944107E+01  0.31410155065E+02  0.32173685607E+02  0.10566000000E+00 0.  1.
         14    1    4    4    0    0  0.47418464112E+00 -0.17269930823E+01  0.72345692349E+01  0.74529422509E+01  0.00000000000E+00 0. -1.
<mgrwt>
<rscale>  0 0.79046990E+02</rscale>
<asrwt>0</asrwt>
<pdfrwt beam="1">  1        2 0.12176171E-01 0.79046990E+02</pdfrwt>
<pdfrwt beam="2">  1       -1 0.30364996E-02 0.79046990E+02</pdfrwt>
<totfact> 0.17196191E+05</totfact>
</mgrwt>
</event>
<event>
 8    1  0.2389776E-024  0.8540262E+02  0.7818608E-02  0.1314383E+00
          2   -1    0    0  501    0  0.00000000000E+00  0.00000000000E+00  0.25487906227E+03  0.25487906228E+03  0.25500000000E-02 0. -1.
         -1   -1    0    0    0  501 -0.00000000000E+00 -0.00000000000E+00 -0.71539873407E+01  0.71539891161E+01  0.50400000000E-02 0.  1.
         24    2    1    2    0    0  0.35527136788E-14  0.00000000000E+00  0.24772507493E+03  0.26203305140E+03  0.85402618675E+02 0.  0.
         66    2    3    3    0    0 -0.31657556719E+02 -0.85500868591E+01  0.20773742297E+03  0.21031914267E+03  0.19999970696E+01 0.  0.
        -13    1    3    3    0    0  0.31657556719E+02  0.85500868591E+01  0.39987651955E+02  0.51713908725E+02  0.10566000000E+00 0.  1.
         13    1    4    4    0    0 -0.19299172683E+02 -0.57533549888E+01  0.13266472461E+03  0.13418457243E+03  0.10566000000E+00 0. -1.
        -13    1    4    4    0    0 -0.12191301436E+02 -0.27583327299E+01  0.74061302600E+02  0.75108747407E+02  0.10566000000E+00 0.  1.
         14    1    4    4    0    0 -0.16708260040E+00 -0.38399140459E-01  0.10113957640E+01  0.10258228311E+01  0.00000000000E+00 0. -1.
<mgrwt>
<rscale>  0 0.85402619E+02</rscale>
<asrwt>0</asrwt>
<pdfrwt beam="1">  1        2 0.39212166E-01 0.85402619E+02</pdfrwt>
<pdfrwt beam="2">  1       -1 0.11006135E-02 0.85402619E+02</pdfrwt>
<totfact> 0.20229928E+05</totfact>
</mgrwt>
</event>
<event>
 8    1  0.2389776E-024  0.7939293E+02  0.7818608E-02  0.1330783E+00
         -1   -1    0    0    0  501 -0.00000000000E+00  0.00000000000E+00  0.13053486802E+01  0.13053584099E+01  0.50400000000E-02 0.  1.
          2   -1    0    0  501    0  0.00000000000E+00 -0.00000000000E+00 -0.12071896089E+04  0.12071896089E+04  0.25500000000E-02 0. -1.
         24    2    1    2    0    0  0.44408920985E-15  0.17763568394E-14 -0.12058842602E+04  0.12084949673E+04  0.79392927732E+02 0.  0.
         66    2    3    3    0    0 -0.37260770168E+01 -0.10409986429E+02 -0.11832588615E+04  0.11833122094E+04  0.19999988784E+01 0.  0.
        -13    1    3    3    0    0  0.37260770168E+01  0.10409986429E+02 -0.22625398666E+02  0.25182757915E+02  0.10566000000E+00 0.  1.
         13    1    4    4    0    0 -0.17556813250E+01 -0.67059128574E+01 -0.77851654745E+03  0.77854741506E+03  0.10566000000E+00 0. -1.
        -13    1    4    4    0    0 -0.25001451679E+00 -0.39683105076E+00 -0.28975061944E+02  0.28979050378E+02  0.10566000000E+00 0.  1.
         14    1    4    4    0    0 -0.17203811749E+01 -0.33072425210E+01 -0.37576725214E+03  0.37578574394E+03  0.00000000000E+00 0. -1.
<mgrwt>
<rscale>  0 0.79392928E+02</rscale>
<asrwt>0</asrwt>
<pdfrwt beam="1">  1        2 0.18572059E+00 0.79392928E+02</pdfrwt>
<pdfrwt beam="2">  1       -1 0.20082459E-03 0.79392928E+02</pdfrwt>
<totfact> 0.35713501E+05</totfact>
</mgrwt>
</event>
<event>
 8    1  0.2389776E-024  0.7419301E+02  0.7818608E-02  0.1346388E+00
          2   -1    0    0  501    0  0.00000000000E+00  0.00000000000E+00  0.18176465805E+03  0.18176465807E+03  0.25500000000E-02 0. -1.
         -1   -1    0    0    0  501 -0.00000000000E+00 -0.00000000000E+00 -0.75710573941E+01  0.75710590716E+01  0.50400000000E-02 0.  1.
         24    2    1    2    0    0  0.00000000000E+00  0.00000000000E+00  0.17419360066E+03  0.18933571714E+03  0.74193013656E+02 0.  0.
         66    2    3    3    0    0  0.25164689400E+02 -0.10797302851E+02  0.15092267493E+03  0.15339979514E+03  0.20000002990E+01 0.  0.
        -13    1    3    3    0    0 -0.25164689400E+02  0.10797302851E+02  0.23270925730E+02  0.35935921998E+02  0.10566000000E+00 0.  1.
         13    1    4    4    0    0  0.10762649494E+02 -0.43856795563E+01  0.64866602563E+02  0.65899591056E+02  0.10566000000E+00 0. -1.
        -13    1    4    4    0    0  0.27617607658E+01 -0.95627322289E+00  0.18879606987E+02  0.19104777021E+02  0.10566000000E+00 0.  1.
        -14    1    4    4    0    0  0.11640279141E+02 -0.54553500719E+01  0.67176465379E+02  0.68395427067E+02  0.00000000000E+00 0.  1.
<mgrwt>
<rscale>  0 0.74193014E+02</rscale>
<asrwt>0</asrwt>
<pdfrwt beam="1">  1        2 0.27963791E-01 0.74193014E+02</pdfrwt>
<pdfrwt beam="2">  1       -1 0.11647783E-02 0.74193014E+02</pdfrwt>
<totfact> 0.26027286E+05</totfact>
</mgrwt>
</event>
<event>
 8    1  0.2389776E-024  0.8076889E+02  0.7818608E-02  0.1326883E+00
         -1   -1    0    0    0  501 -0.00000000000E+00  0.00000000000E+00  0.15784727187E+01  0.15784807649E+01  0.50400000000E-02 0.  1.
          2   -1    0    0  501    0  0.00000000000E+00 -0.00000000000E+00 -0.10332135680E+04  0.10332135680E+04  0.25500000000E-02 0. -1.
         24    2    1    2    0    0  0.00000000000E+00  0.00000000000E+00 -0.10316350953E+04  0.10347920488E+04  0.80768894866E+02 0.  0.
         66    2    3    3    0    0  0.12670743762E+02 -0.25083193381E+02 -0.88727281384E+03  0.88771997867E+03  0.20000009215E+01 0.  0.
        -13    1    3    3    0    0 -0.12670743762E+02  0.25083193381E+02 -0.14436228148E+03  0.14707207014E+03  0.10566000000E+00 0.  1.
         13    1    4    4    0    0  0.57724007405E+01 -0.10157355571E+02 -0.36788670867E+03  0.36807218594E+03  0.10566000000E+00 0. -1.
        -13    1    4    4    0    0  0.12238831722E+01 -0.28545567516E+01 -0.84231887701E+02  0.84289195357E+02  0.10566000000E+00 0.  1.
        -14    1    4    4    0    0  0.56744598489E+01 -0.12071281058E+02 -0.43515421747E+03  0.43535859737E+03  0.00000000000E+00 0.  1.
<mgrwt>
<rscale>  0 0.80768895E+02</rscale>
<asrwt>0</asrwt>
<pdfrwt beam="1">  1        2 0.15895539E+00 0.80768895E+02</pdfrwt>
<pdfrwt beam="2">  1       -1 0.24284340E-03 0.80768895E+02</pdfrwt>
<totfact> 0.34400454E+05</totfact>
</mgrwt>
</event>
<event>
 8    1  0.2389776E-024  0.7990386E+02  0.7818608E-02  0.1329324E+00
          2   -1    0    0  501    0  0.00000000000E+00  0.00000000000E+00  0.42189115295E+02  0.42189115372E+02  0.25500000000E-02 0. -1.
         -1   -1    0    0    0  501 -0.00000000000E+00 -0.00000000000E+00 -0.37833378538E+02  0.37833378874E+02  0.50400000000E-02 0.  1.
         24    2    1    2    0    0  0.00000000000E+00  0.17763568394E-14  0.43557367570E+01  0.80022494246E+02  0.79903861876E+02 0.  0.
         66    2    3    3    0    0  0.36417129685E+02 -0.11187817585E+02  0.14145913400E+02  0.40687607446E+02  0.19999842254E+01 0.  0.
        -13    1    3    3    0    0 -0.36417129685E+02  0.11187817585E+02 -0.97901766429E+01  0.39334886800E+02  0.10566000000E+00 0.  1.
         13    1    4    4    0    0  0.79047633488E+00 -0.29287003650E+00  0.58237405669E+00  0.10300239181E+01  0.10566000000E+00 0. -1.
        -13    1    4    4    0    0  0.28859355388E+02 -0.88097161247E+01  0.10614103118E+02  0.31986619713E+02  0.10566000000E+00 0.  1.
        -14    1    4    4    0    0  0.67672979625E+01 -0.20852314239E+01  0.29494362250E+01  0.76709638149E+01  0.00000000000E+00 0.  1.
<mgrwt>
<rscale>  0 0.79903862E+02</rscale>
<asrwt>0</asrwt>
<pdfrwt beam="1">  1        2 0.64906331E-02 0.79903862E+02</pdfrwt>
<pdfrwt beam="2">  1       -1 0.58205198E-02 0.79903862E+02</pdfrwt>
<totfact> 0.14460962E+05</totfact>
</mgrwt>
</event>
<event>
 8    1  0.2389776E-024  0.8154067E+02  0.7818608E-02  0.1324735E+00
         -1   -1    0    0    0  501 -0.00000000000E+00  0.00000000000E+00  0.10174917104E+03  0.10174917117E+03  0.50400000000E-02 0.  1.
          2   -1    0    0  501    0  0.00000000000E+00 -0.00000000000E+00 -0.16336449469E+02  0.16336449668E+02  0.25500000000E-02 0. -1.
         24    2    1    2    0    0  0.00000000000E+00  0.00000000000E+00  0.85412721573E+02  0.11808562083E+03  0.81540669861E+02 0.  0.
         66    2    3    3    0    0  0.32142893828E+02  0.16748701496E+02  0.69690345753E+02  0.78577534436E+02  0.20000003567E+01 0.  0.
        -13    1    3    3    0    0 -0.32142893828E+02 -0.16748701496E+02  0.15722375820E+02  0.39508086399E+02  0.10566000000E+00 0.  1.
         13    1    4    4    0    0  0.13225165415E+01  0.89336984475E+00  0.38289243854E+01  0.41495765648E+01  0.10566000000E+00 0.  1.
        -13    1    4    4    0    0  0.12929361399E+02  0.68730441338E+01  0.27223334560E+02  0.30911619667E+02  0.10566000000E+00 0. -1.
         14    1    4    4    0    0  0.17891015888E+02  0.89822875174E+01  0.38638086808E+02  0.43516338204E+02  0.00000000000E+00 0. -1.
<mgrwt>
<rscale>  0 0.81540670E+02</rscale>
<asrwt>0</asrwt>
<pdfrwt beam="1">  1        2 0.25133000E-02 0.81540670E+02</pdfrwt>
<pdfrwt beam="2">  1       -1 0.15653718E-01 0.81540670E+02</pdfrwt>
<totfact> 0.11260229E+05</totfact>
</mgrwt>
</event>
<event>
 8    1  0.2389776E-024  0.7829317E+02  0.7818608E-02  0.1333966E+00
          2   -1    0    0  501    0  0.00000000000E+00  0.00000000000E+00  0.81837837895E+03  0.81837837895E+03  0.25500000000E-02 0. -1.
         -1   -1    0    0    0  501 -0.00000000000E+00 -0.00000000000E+00 -0.18725476265E+01  0.18725544092E+01  0.50400000000E-02 0.  1.
         24    2    1    2    0    0 -0.17763568394E-14  0.00000000000E+00  0.81650583132E+03  0.82025093336E+03  0.78293174018E+02 0.  0.
         66    2    3    3    0    0  0.10779993565E+02 -0.33038142175E+01  0.80098477377E+03  0.80106662099E+03  0.20000004312E+01 0.  0.
        -13    1    3    3    0    0 -0.10779993565E+02  0.33038142175E+01  0.15521057552E+02  0.19184312373E+02  0.10566000000E+00 0.  1.
         13    1    4    4    0    0  0.24417405134E+01 -0.42399204533E+00  0.14656025473E+03  0.14658124470E+03  0.10566000000E+00 0. -1.
        -13    1    4    4    0    0  0.11205454519E+01 -0.82068642524E+00  0.85436214064E+02  0.85447568637E+02  0.10566000000E+00 0.  1.
         14    1    4    4    0    0  0.72177075998E+01 -0.20591357469E+01  0.56898830497E+03  0.56903780765E+03  0.00000000000E+00 0. -1.
<mgrwt>
<rscale>  0 0.78293174E+02</rscale>
<asrwt>0</asrwt>
<pdfrwt beam="1">  1        2 0.12590462E+00 0.78293174E+02</pdfrwt>
<pdfrwt beam="2">  1       -1 0.28808419E-03 0.78293174E+02</pdfrwt>
<totfact> 0.36481493E+05</totfact>
</mgrwt>
</event>
<event>
 8    1  0.2389776E-024  0.7996805E+02  0.7818608E-02  0.1329142E+00
          2   -1    0    0  501    0  0.00000000000E+00  0.00000000000E+00  0.18638128237E+04  0.18638128237E+04  0.25500000000E-02 0. -1.
         -1   -1    0    0    0  501 -0.00000000000E+00 -0.00000000000E+00 -0.85776228319E+00  0.85777708996E+00  0.50400000000E-02 0.  1.
         24    2    1    2    0    0  0.00000000000E+00  0.00000000000E+00  0.18629550614E+04  0.18646706008E+04  0.79968047359E+02 0.  0.
         66    2    3    3    0    0 -0.31467777031E+00 -0.10379434075E+02  0.18317970020E+04  0.18318275269E+04  0.19999983996E+01 0.  0.
        -13    1    3    3    0    0  0.31467777031E+00  0.10379434075E+02  0.31158059398E+02  0.32843073901E+02  0.10566000000E+00 0.  1.
         13    1    4    4    0    0 -0.45535378440E+00 -0.44868982131E+01  0.86855829163E+03  0.86857000681E+03  0.10566000000E+00 0. -1.
        -13    1    4    4    0    0 -0.27120102313E+00 -0.43274981258E+01  0.63429833308E+03  0.63431316186E+03  0.10566000000E+00 0.  1.
         14    1    4    4    0    0  0.41187703722E+00 -0.15650377362E+01  0.32894037733E+03  0.32894435824E+03  0.00000000000E+00 0. -1.
<mgrwt>
<rscale>  0 0.79968047E+02</rscale>
<asrwt>0</asrwt>
<pdfrwt beam="1">  1        2 0.28674036E+00 0.79968047E+02</pdfrwt>
<pdfrwt beam="2">  1       -1 0.13196460E-03 0.79968047E+02</pdfrwt>
<totfact> 0.29494078E+05</totfact>
</mgrwt>
</event>
<event>
 8    1  0.2389776E-024  0.8506251E+02  0.7818608E-02  0.1315269E+00
         -1   -1    0    0    0  501 -0.00000000000E+00  0.00000000000E+00  0.66932217746E+02  0.66932217935E+02  0.50400000000E-02 0.  1.
          2   -1    0    0  501    0  0.00000000000E+00 -0.00000000000E+00 -0.27025959971E+02  0.27025960091E+02  0.25500000000E-02 0. -1.
         24    2    1    2    0    0  0.00000000000E+00 -0.35527136788E-14  0.39906257775E+02  0.93958178027E+02  0.85062505304E+02 0.  0.
         66    2    3    3    0    0  0.10066480287E+02  0.25865256999E+02 -0.15598428915E+02  0.31900729211E+02  0.19999986610E+01 0.  0.
        -13    1    3    3    0    0 -0.10066480287E+02 -0.25865256999E+02  0.55504686689E+02  0.62057448815E+02  0.10566000000E+00 0.  1.
         13    1    4    4    0    0  0.25776549842E+01  0.67661693575E+01 -0.34715447678E+01  0.80304508032E+01  0.10566000000E+00 0.  1.
        -13    1    4    4    0    0  0.35650839954E+01  0.10491840527E+02 -0.60238513144E+01  0.12612949307E+02  0.10566000000E+00 0. -1.
         14    1    4    4    0    0  0.39237413074E+01  0.86072471144E+01 -0.61030328325E+01  0.11257329101E+02  0.00000000000E+00 0. -1.
<mgrwt>
<rscale>  0 0.85062505E+02</rscale>
<asrwt>0</asrwt>
<pdfrwt beam="1">  1        2 0.41578400E-02 0.85062505E+02</pdfrwt>
<pdfrwt beam="2">  1       -1 0.10297264E-01 0.85062505E+02</pdfrwt>
<totfact> 0.11076877E+05</totfact>
</mgrwt>
</event>
<event>
 8    1  0.2389776E-024  0.7943418E+02  0.7818608E-02  0.1330665E+00
          2   -1    0    0  501    0  0.00000000000E+00  0.00000000000E+00  0.83937522632E+01  0.83937526506E+01  0.25500000000E-02 0. -1.
         -1   -1    0    0    0  501 -0.00000000000E+00 -0.00000000000E+00 -0.18793112402E+03  0.18793112408E+03  0.50400000000E-02 0.  1.
         24    2    1    2    0    0  0.00000000000E+00  0.00000000000E+00 -0.17953737175E+03  0.19632487673E+03  0.79434182622E+02 0.  0.
         66    2    3    3    0    0  0.32281107447E+02  0.19657811398E+02 -0.59865402875E+02  0.70826308033E+02  0.20000002943E+01 0.  0.
        -13    1    3    3    0    0 -0.32281107447E+02 -0.19657811398E+02 -0.11967196888E+03  0.12549856870E+03  0.10566000000E+00 0.  1.
         13    1    4    4    0    0  0.32958921211E+01  0.15345950576E+01 -0.56943294390E+01  0.67568068391E+01  0.10566000000E+00 0. -1.
        -13    1    4    4    0    0  0.43673816276E+01  0.21917388769E+01 -0.76580956815E+01  0.90848959866E+01  0.10566000000E+00 0. -1.
         14    1    4    4    0    0  0.24617833698E+02  0.15931477464E+02 -0.46512977755E+02  0.54984605207E+02  0.00000000000E+00 0. -1.
<mgrwt>
<rscale>  0 0.79434183E+02</rscale>
<asrwt>0</asrwt>
<pdfrwt beam="1">  1        2 0.12913467E-02 0.79434183E+02</pdfrwt>
<pdfrwt beam="2">  1       -1 0.28912478E-01 0.79434183E+02</pdfrwt>
<totfact> 0.10330706E+05</totfact>
</mgrwt>
</event>
<event>
 8    1  0.2389776E-024  0.8159204E+02  0.7818608E-02  0.1324593E+00
          2   -1    0    0  501    0  0.00000000000E+00  0.00000000000E+00  0.27296046288E+03  0.27296046289E+03  0.25500000000E-02 0. -1.
         -1   -1    0    0    0  501 -0.00000000000E+00 -0.00000000000E+00 -0.60972742686E+01  0.60972763516E+01  0.50400000000E-02 0.  1.
         24    2    1    2    0    0  0.00000000000E+00  0.00000000000E+00  0.26686318861E+03  0.27905773925E+03  0.81592036351E+02 0.  0.
         66    2    3    3    0    0  0.30960632062E+02  0.23534304580E+02  0.17538382824E+03  0.17965497888E+03  0.19999997042E+01 0.  0.
        -13    1    3    3    0    0 -0.30960632062E+02 -0.23534304580E+02  0.91479360371E+02  0.99402760362E+02  0.10566000000E+00 0.  1.
         13    1    4    4    0    0  0.94200303073E+01  0.68701240039E+01  0.55958610437E+02  0.57160413058E+02  0.10566000000E+00 0. -1.
        -13    1    4    4    0    0  0.10544042584E+01  0.97773745302E+00  0.57874875830E+01  0.59643872633E+01  0.10566000000E+00 0.  1.
         14    1    4    4    0    0  0.20486197496E+02  0.15686443123E+02  0.11363773022E+03  0.11653017856E+03  0.00000000000E+00 0. -1.
<mgrwt>
<rscale>  0 0.81592036E+02</rscale>
<asrwt>0</asrwt>
<pdfrwt beam="1">  1        2 0.41993926E-01 0.81592036E+02</pdfrwt>
<pdfrwt beam="2">  1       -1 0.93804216E-03 0.81592036E+02</pdfrwt>
<totfact> 0.23393627E+05</totfact>
</mgrwt>
</event>
<event>
 8    1  0.2389776E-024  0.7897890E+02  0.7818608E-02  0.1331974E+00
         -1   -1    0    0    0  501 -0.00000000000E+00  0.00000000000E+00  0.44420001409E+01  0.44420030001E+01  0.50400000000E-02 0.  1.
          2   -1    0    0  501    0  0.00000000000E+00 -0.00000000000E+00 -0.35106166880E+03  0.35106166881E+03  0.25500000000E-02 0. -1.
         24    2    1    2    0    0  0.71054273576E-14  0.00000000000E+00 -0.34661966866E+03  0.35550367181E+03  0.78978895716E+02 0.  0.
         66    2    3    3    0    0 -0.35324429260E+02 -0.60098471219E+01 -0.24785858011E+03  0.25044322569E+03  0.19999977203E+01 0.  0.
        -13    1    3    3    0    0  0.35324429260E+02  0.60098471219E+01 -0.98761088543E+02  0.10506044612E+03  0.10566000000E+00 0.  1.
         13    1    4    4    0    0 -0.26012874725E+01 -0.89713296520E+00 -0.19113070188E+02  0.19310415845E+02  0.10566000000E+00 0.  1.
        -13    1    4    4    0    0 -0.17535357410E+02 -0.31102017819E+01 -0.12086858105E+03  0.12217359438E+03  0.10566000000E+00 0. -1.
         14    1    4    4    0    0 -0.15187784377E+02 -0.20025123748E+01 -0.10787692887E+03  0.10895921546E+03  0.00000000000E+00 0. -1.
<mgrwt>
<rscale>  0 0.78978896E+02</rscale>
<asrwt>0</asrwt>
<pdfrwt beam="1">  1        2 0.54009466E-01 0.78978896E+02</pdfrwt>
<pdfrwt beam="2">  1       -1 0.68338514E-03 0.78978896E+02</pdfrwt>
<totfact> 0.27900312E+05</totfact>
</mgrwt>
</event>
<event>
 8    1  0.2389776E-024  0.7427414E+02  0.7818608E-02  0.1346134E+00
         -1   -1    0    0    0  501 -0.00000000000E+00  0.00000000000E+00  0.27238418673E+01  0.27238465302E+01  0.50400000000E-02 0.  1.
          2   -1    0    0  501    0  0.00000000000E+00 -0.00000000000E+00 -0.50632920270E+03  0.50632920270E+03  0.25500000000E-02 0. -1.
         24    2    1    2    0    0  0.00000000000E+00  0.00000000000E+00 -0.50360536083E+03  0.50905304923E+03  0.74274137340E+02 0.  0.
         66    2    3    3    0    0 -0.19707371353E+02 -0.14970541186E+02 -0.44150666780E+03  0.44220429137E+03  0.19999992849E+01 0.  0.
        -13    1    3    3    0    0  0.19707371353E+02  0.14970541186E+02 -0.62098693025E+02  0.66848757868E+02  0.10566000000E+00 0.  1.
         13    1    4    4    0    0 -0.16882933169E+02 -0.12755245026E+02 -0.38224462165E+03  0.38282984687E+03  0.10566000000E+00 0. -1.
        -13    1    4    4    0    0 -0.12027241720E+01 -0.12629695208E+01 -0.31934353172E+02  0.31982115534E+02  0.10566000000E+00 0.  1.
        -14    1    4    4    0    0 -0.16217140120E+01 -0.95232663972E+00 -0.27327692978E+02  0.27392328960E+02  0.00000000000E+00 0.  1.
<mgrwt>
<rscale>  0 0.74274137E+02</rscale>
<asrwt>0</asrwt>
<pdfrwt beam="1">  1        2 0.77896725E-01 0.74274137E+02</pdfrwt>
<pdfrwt beam="2">  1       -1 0.41905336E-03 0.74274137E+02</pdfrwt>
<totfact> 0.37073450E+05</totfact>
</mgrwt>
</event>
<event>
 8    1  0.2389776E-024  0.7991331E+02  0.7818608E-02  0.1329298E+00
         -1   -1    0    0    0  501 -0.00000000000E+00  0.00000000000E+00  0.16634021825E+03  0.16634021833E+03  0.50400000000E-02 0.  1.
          2   -1    0    0  501    0  0.00000000000E+00 -0.00000000000E+00 -0.95980041211E+01  0.95980044599E+01  0.25500000000E-02 0. -1.
         24    2    1    2    0    0 -0.35527136788E-14  0.00000000000E+00  0.15674221413E+03  0.17593822278E+03  0.79913306446E+02 0.  0.
         66    2    3    3    0    0 -0.21930703737E+02  0.15466115031E+02  0.13318798325E+02  0.30025770112E+02  0.20000003576E+01 0.  0.
        -13    1    3    3    0    0  0.21930703737E+02 -0.15466115031E+02  0.14342341580E+03  0.14591245267E+03  0.10566000000E+00 0.  1.
         13    1    4    4    0    0 -0.52065718790E+01  0.31965866334E+01  0.35419684439E+01  0.70628083175E+01  0.10566000000E+00 0. -1.
        -13    1    4    4    0    0 -0.66622952406E+01  0.42531503396E+01  0.40316988483E+01  0.88736252639E+01  0.10566000000E+00 0.  1.
         14    1    4    4    0    0 -0.10061836617E+02  0.80163780582E+01  0.57451310327E+01  0.14089336530E+02  0.00000000000E+00 0. -1.
<mgrwt>
<rscale>  0 0.79913306E+02</rscale>
<asrwt>0</asrwt>
<pdfrwt beam="1">  1        2 0.14766160E-02 0.79913306E+02</pdfrwt>
<pdfrwt beam="2">  1       -1 0.25590803E-01 0.79913306E+02</pdfrwt>
<totfact> 0.10527669E+05</totfact>
</mgrwt>
</event>
<event>
 8    1  0.2389776E-024  0.8060166E+02  0.7818608E-02  0.1327353E+00
          2   -1    0    0  501    0  0.00000000000E+00  0.00000000000E+00  0.48225336824E+03  0.48225336825E+03  0.25500000000E-02 0. -1.
         -1   -1    0    0    0  501 -0.00000000000E+00 -0.00000000000E+00 -0.33678477603E+01  0.33678515315E+01  0.50400000000E-02 0.  1.
         24    2    1    2    0    0  0.71054273576E-14  0.00000000000E+00  0.47888552048E+03  0.48562121978E+03  0.80601658630E+02 0.  0.
         66    2    3    3    0    0 -0.36441845623E+02 -0.95345264802E+00  0.34276165594E+03  0.34470055115E+03  0.19999996570E+01 0.  0.
        -13    1    3    3    0    0  0.36441845623E+02  0.95345264802E+00  0.13612386455E+03  0.14092066863E+03  0.10566000000E+00 0.  1.
         13    1    4    4    0    0 -0.24708089005E+01 -0.42517836485E+00  0.21867830689E+02  0.22011334725E+02  0.10566000000E+00 0. -1.
        -13    1    4    4    0    0 -0.84045355167E+01 -0.22810244556E+00  0.83740034399E+02  0.84161112000E+02  0.10566000000E+00 0.  1.
         14    1    4    4    0    0 -0.25566501206E+02 -0.30017183761E+00  0.23715379085E+03  0.23852810442E+03  0.00000000000E+00 0. -1.
<mgrwt>
<rscale>  0 0.80601659E+02</rscale>
<asrwt>0</asrwt>
<pdfrwt beam="1">  1        2 0.74192862E-01 0.80601659E+02</pdfrwt>
<pdfrwt beam="2">  1       -1 0.51813046E-03 0.80601659E+02</pdfrwt>
<totfact> 0.29516744E+05</totfact>
</mgrwt>
</event>
<event>
 8    1  0.2389776E-024  0.8046673E+02  0.7818608E-02  0.1327732E+00
          2   -1    0    0  501    0  0.00000000000E+00  0.00000000000E+00  0.11706510242E+03  0.11706510244E+03  0.25500000000E-02 0. -1.
         -1   -1    0    0    0  501 -0.00000000000E+00 -0.00000000000E+00 -0.13827550988E+02  0.13827551906E+02  0.50400000000E-02 0.  1.
         24    2    1    2    0    0  0.17763568394E-14  0.00000000000E+00  0.10323755143E+03  0.13089265435E+03  0.80466731871E+02 0.  0.
         66    2    3    3    0    0  0.15873718148E+02  0.20655064275E+02  0.10147316458E+03  0.10478267861E+03  0.20000000574E+01 0.  0.
        -13    1    3    3    0    0 -0.15873718148E+02 -0.20655064275E+02  0.17643868544E+01  0.26109975739E+02  0.10566000000E+00 0.  1.
         13    1    4    4    0    0  0.54623123812E+01  0.68067187688E+01  0.36146967543E+02  0.37185786311E+02  0.10566000000E+00 0. -1.
        -13    1    4    4    0    0  0.34920762619E+00  0.19860904325E+00  0.15988021258E+01  0.16518849207E+01  0.10566000000E+00 0.  1.
         14    1    4    4    0    0  0.10062198141E+02  0.13649736463E+02  0.63727394906E+02  0.65945007381E+02  0.00000000000E+00 0. -1.
<mgrwt>
<rscale>  0 0.80466732E+02</rscale>
<asrwt>0</asrwt>
<pdfrwt beam="1">  1        2 0.18010016E-01 0.80466732E+02</pdfrwt>
<pdfrwt beam="2">  1       -1 0.21273155E-02 0.80466732E+02</pdfrwt>
<totfact> 0.18263462E+05</totfact>
</mgrwt>
</event>
<event>
 8    1  0.2389776E-024  0.7729127E+02  0.7818608E-02  0.1336919E+00
          2   -1    0    0  501    0  0.00000000000E+00  0.00000000000E+00  0.15541713450E+03  0.15541713452E+03  0.25500000000E-02 0. -1.
         -1   -1    0    0    0  501 -0.00000000000E+00 -0.00000000000E+00 -0.96095249695E+01  0.96095262912E+01  0.50400000000E-02 0.  1.
         24    2    1    2    0    0  0.00000000000E+00 -0.35527136788E-14  0.14580760953E+03  0.16502666082E+03  0.77291265884E+02 0.  0.
         66    2    3    3    0    0 -0.24749800748E+02  0.22369375459E+02  0.11449364913E+03  0.11927169523E+03  0.19999991275E+01 0.  0.
        -13    1    3    3    0    0  0.24749800748E+02 -0.22369375459E+02  0.31313960403E+02  0.45754965585E+02  0.10566000000E+00 0.  1.
         13    1    4    4    0    0 -0.56977451785E+01  0.47009663094E+01  0.25151133022E+02  0.26213623189E+02  0.10566000000E+00 0. -1.
        -13    1    4    4    0    0 -0.41840095319E+00  0.46625490028E+00  0.15222424651E+01  0.16494966347E+01  0.10566000000E+00 0.  1.
        -14    1    4    4    0    0 -0.18633654616E+02  0.17202154250E+02  0.87820273643E+02  0.91408575407E+02  0.00000000000E+00 0.  1.
<mgrwt>
<rscale>  0 0.77291266E+02</rscale>
<asrwt>0</asrwt>
<pdfrwt beam="1">  1        2 0.23910329E-01 0.77291266E+02</pdfrwt>
<pdfrwt beam="2">  1       -1 0.14783885E-02 0.77291266E+02</pdfrwt>
<totfact> 0.22195450E+05</totfact>
</mgrwt>
</event>
<event>
 8    1  0.2389776E-024  0.8475659E+02  0.7818608E-02  0.1316070E+00
         -1   -1    0    0    0  501 -0.00000000000E+00  0.00000000000E+00  0.54404951942E+02  0.54404952176E+02  0.50400000000E-02 0.  1.
          2   -1    0    0  501    0  0.00000000000E+00 -0.00000000000E+00 -0.33010231150E+02  0.33010231249E+02  0.25500000000E-02 0. -1.
         24    2    1    2    0    0  0.00000000000E+00  0.00000000000E+00  0.21394720792E+02  0.87415183425E+02  0.84756593935E+02 0.  0.
         66    2    3    3    0    0  0.23905584513E+02  0.14937240606E+02 -0.21900257408E+02  0.35752194456E+02  0.20000015131E+01 0.  0.
        -13    1    3    3    0    0 -0.23905584513E+02 -0.14937240606E+02  0.43294978200E+02  0.51662988969E+02  0.10566000000E+00 0.  1.
         13    1    4    4    0    0  0.10910007459E+02  0.63255341364E+01 -0.93851131143E+01  0.15720437560E+02  0.10566000000E+00 0. -1.
        -13    1    4    4    0    0  0.82980404993E+01  0.60606750042E+01 -0.77554667028E+01  0.12874303300E+02  0.10566000000E+00 0.  1.
         14    1    4    4    0    0  0.46975365543E+01  0.25510314658E+01 -0.47596775904E+01  0.71574535964E+01  0.00000000000E+00 0. -1.
<mgrwt>
<rscale>  0 0.84756594E+02</rscale>
<asrwt>0</asrwt>
<pdfrwt beam="1">  1        2 0.50784971E-02 0.84756594E+02</pdfrwt>
<pdfrwt beam="2">  1       -1 0.83699927E-02 0.84756594E+02</pdfrwt>
<totfact> 0.11663175E+05</totfact>
</mgrwt>
</event>
<event>
 8    1  0.2389776E-024  0.8069491E+02  0.7818608E-02  0.1327091E+00
          2   -1    0    0  501    0  0.00000000000E+00  0.00000000000E+00  0.37030600726E+03  0.37030600727E+03  0.25500000000E-02 0. -1.
         -1   -1    0    0    0  501 -0.00000000000E+00 -0.00000000000E+00 -0.43961384263E+01  0.43961413154E+01  0.50400000000E-02 0.  1.
         24    2    1    2    0    0 -0.71054273576E-14 -0.88817841970E-15  0.36590986883E+03  0.37470214858E+03  0.80694907173E+02 0.  0.
         66    2    3    3    0    0 -0.32364390554E+02 -0.72779536982E+01  0.28951124082E+03  0.29141238983E+03  0.20000006831E+01 0.  0.
        -13    1    3    3    0    0  0.32364390554E+02  0.72779536982E+01  0.76398628012E+02  0.83289758747E+02  0.10566000000E+00 0.  1.
         13    1    4    4    0    0 -0.79272847642E+01 -0.13941658945E+01  0.67683362188E+02  0.68160356684E+02  0.10566000000E+00 0. -1.
        -13    1    4    4    0    0 -0.51138703653E+00 -0.30663641383E+00  0.47647880447E+01  0.48031147954E+01  0.10566000000E+00 0.  1.
        -14    1    4    4    0    0 -0.23925718753E+02 -0.55771513899E+01  0.21706309059E+03  0.21844891835E+03  0.00000000000E+00 0.  1.
<mgrwt>
<rscale>  0 0.80694907E+02</rscale>
<asrwt>0</asrwt>
<pdfrwt beam="1">  1        2 0.56970175E-01 0.80694907E+02</pdfrwt>
<pdfrwt beam="2">  1       -1 0.67632898E-03 0.80694907E+02</pdfrwt>
<totfact> 0.26880188E+05</totfact>
</mgrwt>
</event>
<event>
 8    1  0.2389776E-024  0.8090460E+02  0.7818608E-02  0.1326504E+00
          2   -1    0    0  501    0  0.00000000000E+00  0.00000000000E+00  0.97362139062E+02  0.97362139096E+02  0.25500000000E-02 0. -1.
         -1   -1    0    0    0  501 -0.00000000000E+00 -0.00000000000E+00 -0.16807237032E+02  0.16807237787E+02  0.50400000000E-02 0.  1.
         24    2    1    2    0    0  0.35527136788E-14 -0.35527136788E-14  0.80554902031E+02  0.11416937688E+03  0.80904600467E+02 0.  0.
         66    2    3    3    0    0 -0.29458902951E+02  0.23607029842E+02  0.60715826353E+02  0.71522936131E+02  0.20000005259E+01 0.  0.
        -13    1    3    3    0    0  0.29458902951E+02 -0.23607029842E+02  0.19839075678E+02  0.42646440752E+02  0.10566000000E+00 0.  1.
         13    1    4    4    0    0 -0.11737488508E+02  0.10263628407E+02  0.26225281926E+02  0.30510445436E+02  0.10566000000E+00 0. -1.
        -13    1    4    4    0    0 -0.55429741814E+01  0.38972907013E+01  0.10316608365E+02  0.12343298173E+02  0.10566000000E+00 0.  1.
         14    1    4    4    0    0 -0.12178440261E+02  0.94461107335E+01  0.24173936062E+02  0.28669192523E+02  0.00000000000E+00 0. -1.
<mgrwt>
<rscale>  0 0.80904600E+02</rscale>
<asrwt>0</asrwt>
<pdfrwt beam="1">  1        2 0.14978790E-01 0.80904600E+02</pdfrwt>
<pdfrwt beam="2">  1       -1 0.25857289E-02 0.80904600E+02</pdfrwt>
<totfact> 0.17071607E+05</totfact>
</mgrwt>
</event>
<event>
 8    1  0.2389776E-024  0.7938292E+02  0.7818608E-02  0.1330812E+00
          2   -1    0    0  501    0  0.00000000000E+00  0.00000000000E+00  0.15279892605E+03  0.15279892607E+03  0.25500000000E-02 0. -1.
         -1   -1    0    0    0  501 -0.00000000000E+00 -0.00000000000E+00 -0.10310358457E+02  0.10310359689E+02  0.50400000000E-02 0.  1.
         24    2    1    2    0    0  0.00000000000E+00  0.35527136788E-14  0.14248856759E+03  0.16310928576E+03  0.79382915079E+02 0.  0.
         66    2    3    3    0    0 -0.34540275363E+02  0.19419981076E+02  0.74988191871E+02  0.84837463412E+02  0.19999977377E+01 0.  0.
        -13    1    3    3    0    0  0.34540275363E+02 -0.19419981076E+02  0.67500375722E+02  0.78271822349E+02  0.10566000000E+00 0.  1.
         13    1    4    4    0    0 -0.55519464171E+01  0.35796289730E+01  0.12539529423E+02  0.14173525136E+02  0.10566000000E+00 0.  1.
        -13    1    4    4    0    0 -0.19781577987E+02  0.11599022344E+02  0.43105076610E+02  0.48825269488E+02  0.10566000000E+00 0. -1.
        -14    1    4    4    0    0 -0.92067509580E+01  0.42413297586E+01  0.19343585838E+02  0.21838668787E+02  0.00000000000E+00 0.  1.
<mgrwt>
<rscale>  0 0.79382915E+02</rscale>
<asrwt>0</asrwt>
<pdfrwt beam="1">  1        2 0.23507525E-01 0.79382915E+02</pdfrwt>
<pdfrwt beam="2">  1       -1 0.15862092E-02 0.79382915E+02</pdfrwt>
<totfact> 0.20567978E+05</totfact>
</mgrwt>
</event>
<event>
 8    1  0.2389776E-024  0.7667643E+02  0.7818608E-02  0.1338757E+00
         -1   -1    0    0    0  501 -0.00000000000E+00  0.00000000000E+00  0.64188659690E+01  0.64188679477E+01  0.50400000000E-02 0.  1.
          2   -1    0    0  501    0  0.00000000000E+00 -0.00000000000E+00 -0.22898412862E+03  0.22898412863E+03  0.25500000000E-02 0. -1.
         24    2    1    2    0    0  0.35527136788E-14  0.00000000000E+00 -0.22256526265E+03  0.23540299658E+03  0.76676428326E+02 0.  0.
         66    2    3    3    0    0 -0.29499819835E+02 -0.21848969246E+02 -0.77699472334E+02  0.85958273705E+02  0.19999975096E+01 0.  0.
        -13    1    3    3    0    0  0.29499819835E+02  0.21848969246E+02 -0.14486579032E+03  0.14944472287E+03  0.10566000000E+00 0.  1.
         13    1    4    4    0    0 -0.40031148335E+01 -0.26802863845E+01 -0.10150113794E+02  0.11235872798E+02  0.10566000000E+00 0. -1.
        -13    1    4    4    0    0 -0.23143283908E+02 -0.16858302971E+02 -0.59848383312E+02  0.66344963020E+02  0.10566000000E+00 0.  1.
        -14    1    4    4    0    0 -0.23534210937E+01 -0.23103798902E+01 -0.77009752283E+01  0.83774378868E+01  0.00000000000E+00 0.  1.
<mgrwt>
<rscale>  0 0.76676428E+02</rscale>
<asrwt>0</asrwt>
<pdfrwt beam="1">  1        2 0.35228321E-01 0.76676428E+02</pdfrwt>
<pdfrwt beam="2">  1       -1 0.98751817E-03 0.76676428E+02</pdfrwt>
<totfact> 0.25860297E+05</totfact>
</mgrwt>
</event>
<event>
 8    1  0.2389776E-024  0.7959792E+02  0.7818608E-02  0.1330196E+00
          2   -1    0    0  501    0  0.00000000000E+00  0.00000000000E+00  0.79264638123E+02  0.79264638164E+02  0.25500000000E-02 0. -1.
         -1   -1    0    0    0  501 -0.00000000000E+00 -0.00000000000E+00 -0.19983149502E+02  0.19983150137E+02  0.50400000000E-02 0.  1.
         24    2    1    2    0    0  0.00000000000E+00 -0.17763568394E-14  0.59281488621E+02  0.99247788301E+02  0.79597918249E+02 0.  0.
         66    2    3    3    0    0  0.17210635716E+02  0.12458154565E+02  0.71583356565E+02  0.74696643402E+02  0.20000003760E+01 0.  0.
        -13    1    3    3    0    0 -0.17210635716E+02 -0.12458154565E+02 -0.12301867944E+02  0.24551144899E+02  0.10566000000E+00 0.  1.
         13    1    4    4    0    0  0.74963196471E+01  0.52910044973E+01  0.30916940270E+02  0.32249928629E+02  0.10566000000E+00 0. -1.
        -13    1    4    4    0    0  0.55668103564E+01  0.31866292137E+01  0.21599227099E+02  0.22531794394E+02  0.10566000000E+00 0.  1.
        -14    1    4    4    0    0  0.41475057128E+01  0.39805208537E+01  0.19067189195E+02  0.19914920379E+02  0.00000000000E+00 0.  1.
<mgrwt>
<rscale>  0 0.79597918E+02</rscale>
<asrwt>0</asrwt>
<pdfrwt beam="1">  1        2 0.12194560E-01 0.79597918E+02</pdfrwt>
<pdfrwt beam="2">  1       -1 0.30743308E-02 0.79597918E+02</pdfrwt>
<totfact> 0.16883950E+05</totfact>
</mgrwt>
</event>
<event>
 8    1  0.2389776E-024  0.7988147E+02  0.7818608E-02  0.1329388E+00
          2   -1    0    0  501    0  0.00000000000E+00  0.00000000000E+00  0.20326746872E+04  0.20326746872E+04  0.25500000000E-02 0. -1.
         -1   -1    0    0    0  501 -0.00000000000E+00 -0.00000000000E+00 -0.78480142193E+00  0.78481760522E+00  0.50400000000E-02 0.  1.
         24    2    1    2    0    0  0.00000000000E+00 -0.35527136788E-14  0.20318898858E+04  0.20334595048E+04  0.79881473208E+02 0.  0.
         66    2    3    3    0    0  0.19215256425E+01 -0.16713433332E+02  0.19380106145E+04  0.19380846661E+04  0.20000060702E+01 0.  0.
        -13    1    3    3    0    0 -0.19215256425E+01  0.16713433332E+02  0.93879271262E+02  0.95374838670E+02  0.10566000000E+00 0.  1.
         13    1    4    4    0    0  0.19176617065E+01 -0.12800234747E+02  0.14588476515E+04  0.14589050706E+04  0.10566000000E+00 0. -1.
        -13    1    4    4    0    0  0.29670356033E+00 -0.72276522924E+00  0.96564802063E+02  0.96568020504E+02  0.10566000000E+00 0.  1.
         14    1    4    4    0    0 -0.29283962434E+00 -0.31904333559E+01  0.38259816092E+03  0.38261157505E+03  0.00000000000E+00 0. -1.
<mgrwt>
<rscale>  0 0.79881473E+02</rscale>
<asrwt>0</asrwt>
<pdfrwt beam="1">  1        2 0.31271638E+00 0.79881473E+02</pdfrwt>
<pdfrwt beam="2">  1       -1 0.12074101E-03 0.79881473E+02</pdfrwt>
<totfact> 0.27444174E+05</totfact>
</mgrwt>
</event>
<event>
 8    1  0.2389776E-024  0.7918372E+02  0.7818608E-02  0.1331384E+00
         -1   -1    0    0    0  501 -0.00000000000E+00  0.00000000000E+00  0.18317616420E+02  0.18317617113E+02  0.50400000000E-02 0.  1.
          2   -1    0    0  501    0  0.00000000000E+00 -0.00000000000E+00 -0.85574199862E+02  0.85574199900E+02  0.25500000000E-02 0. -1.
         24    2    1    2    0    0  0.00000000000E+00  0.00000000000E+00 -0.67256583442E+02  0.10389181701E+03  0.79183720713E+02 0.  0.
         66    2    3    3    0    0 -0.12223556637E+02  0.93451395856E+01 -0.81476260054E+02  0.82940508278E+02  0.19999976027E+01 0.  0.
        -13    1    3    3    0    0  0.12223556637E+02 -0.93451395856E+01  0.14219676611E+02  0.20951308735E+02  0.10566000000E+00 0.  1.
         13    1    4    4    0    0 -0.64414330673E+01  0.52849623243E+01 -0.47487434035E+02  0.48212969645E+02  0.10566000000E+00 0. -1.
        -13    1    4    4    0    0 -0.22616706393E+01  0.21277018727E+01 -0.14445223091E+02  0.14775584710E+02  0.10566000000E+00 0.  1.
         14    1    4    4    0    0 -0.35204529301E+01  0.19324753886E+01 -0.19543602928E+02  0.19951953923E+02  0.00000000000E+00 0. -1.
<mgrwt>
<rscale>  0 0.79183721E+02</rscale>
<asrwt>0</asrwt>
<pdfrwt beam="1">  1        2 0.13165261E-01 0.79183721E+02</pdfrwt>
<pdfrwt beam="2">  1       -1 0.28180950E-02 0.79183721E+02</pdfrwt>
<totfact> 0.17465960E+05</totfact>
</mgrwt>
</event>
<event>
 8    1  0.2389776E-024  0.8009175E+02  0.7818608E-02  0.1328791E+00
         -1   -1    0    0    0  501 -0.00000000000E+00  0.00000000000E+00  0.99895975574E+02  0.99895975702E+02  0.50400000000E-02 0.  1.
          2   -1    0    0  501    0  0.00000000000E+00 -0.00000000000E+00 -0.16053419976E+02  0.16053420179E+02  0.25500000000E-02 0. -1.
         24    2    1    2    0    0  0.00000000000E+00  0.17763568394E-14  0.83842555598E+02  0.11594939588E+03  0.80091749111E+02 0.  0.
         66    2    3    3    0    0 -0.18236272936E+02  0.13607151342E+02 -0.57161087923E+01  0.23545490391E+02  0.19999999491E+01 0.  0.
        -13    1    3    3    0    0  0.18236272936E+02 -0.13607151342E+02  0.89558664391E+02  0.92403905489E+02  0.10566000000E+00 0.  1.
         13    1    4    4    0    0 -0.76696317731E+01  0.53680996653E+01 -0.23380784643E+01  0.96497419910E+01  0.10566000000E+00 0. -1.
        -13    1    4    4    0    0 -0.36897450403E+01  0.31636095619E+01 -0.19117652791E+01  0.52238543663E+01  0.10566000000E+00 0.  1.
        -14    1    4    4    0    0 -0.68768961225E+01  0.50754421143E+01 -0.14662650489E+01  0.86718940336E+01  0.00000000000E+00 0.  1.
<mgrwt>
<rscale>  0 0.80091749E+02</rscale>
<asrwt>0</asrwt>
<pdfrwt beam="1">  1        2 0.24697569E-02 0.80091749E+02</pdfrwt>
<pdfrwt beam="2">  1       -1 0.15368612E-01 0.80091749E+02</pdfrwt>
<totfact> 0.11821821E+05</totfact>
</mgrwt>
</event>
<event>
 8    1  0.2389776E-024  0.8039824E+02  0.7818608E-02  0.1327925E+00
         -1   -1    0    0    0  501 -0.00000000000E+00  0.00000000000E+00  0.40732760563E+01  0.40732791743E+01  0.50400000000E-02 0.  1.
          2   -1    0    0  501    0  0.00000000000E+00 -0.00000000000E+00 -0.39672459103E+03  0.39672459104E+03  0.25500000000E-02 0. -1.
         24    2    1    2    0    0  0.00000000000E+00  0.00000000000E+00 -0.39265131497E+03  0.40079787021E+03  0.80398243863E+02 0.  0.
         66    2    3    3    0    0  0.30762627883E+02 -0.41653405329E+01 -0.32357076705E+03  0.32506265646E+03  0.20000004945E+01 0.  0.
        -13    1    3    3    0    0 -0.30762627883E+02  0.41653405329E+01 -0.69080547921E+02  0.75735213746E+02  0.10566000000E+00 0.  1.
         13    1    4    4    0    0  0.13479430681E+02 -0.23050235908E+01 -0.14674471941E+03  0.14738056868E+03  0.10566000000E+00 0. -1.
        -13    1    4    4    0    0  0.11634484130E+02 -0.93180429967E+00 -0.12291650501E+03  0.12346946119E+03  0.10566000000E+00 0.  1.
         14    1    4    4    0    0  0.56487130721E+01 -0.92851264238E+00 -0.53909542639E+02  0.54212626597E+02  0.00000000000E+00 0. -1.
<mgrwt>
<rscale>  0 0.80398244E+02</rscale>
<asrwt>0</asrwt>
<pdfrwt beam="1">  1        2 0.61034522E-01 0.80398244E+02</pdfrwt>
<pdfrwt beam="2">  1       -1 0.62665841E-03 0.80398244E+02</pdfrwt>
<totfact> 0.27809239E+05</totfact>
</mgrwt>
</event>
<event>
 8    1  0.2389776E-024  0.8005049E+02  0.7818608E-02  0.1328908E+00
         -1   -1    0    0    0  501 -0.00000000000E+00  0.00000000000E+00  0.11840677920E+03  0.11840677931E+03  0.50400000000E-02 0.  1.
          2   -1    0    0  501    0  0.00000000000E+00 -0.00000000000E+00 -0.13529799872E+02  0.13529800112E+02  0.25500000000E-02 0. -1.
         24    2    1    2    0    0  0.00000000000E+00  0.35527136788E-14  0.10487697933E+03  0.13193657942E+03  0.80050485295E+02 0.  0.
         66    2    3    3    0    0  0.25780216614E+02  0.26103924830E+02  0.26204670925E+02  0.45130025901E+02  0.19999998310E+01 0.  0.
        -13    1    3    3    0    0 -0.25780216614E+02 -0.26103924830E+02  0.78672308407E+02  0.86806553522E+02  0.10566000000E+00 0.  1.
         13    1    4    4    0    0  0.90483948169E+01  0.90158767870E+01  0.93641084846E+01  0.15838471351E+02  0.10566000000E+00 0. -1.
        -13    1    4    4    0    0  0.16134559768E+02  0.16548936187E+02  0.16584196984E+02  0.28447109897E+02  0.10566000000E+00 0.  1.
        -14    1    4    4    0    0  0.59726202958E+00  0.53911185557E+00  0.25636545694E+00  0.84444465320E+00  0.00000000000E+00 0.  1.
<mgrwt>
<rscale>  0 0.80050485E+02</rscale>
<asrwt>0</asrwt>
<pdfrwt beam="1">  1        2 0.20815078E-02 0.80050485E+02</pdfrwt>
<pdfrwt beam="2">  1       -1 0.18216427E-01 0.80050485E+02</pdfrwt>
<totfact> 0.11401205E+05</totfact>
</mgrwt>
</event>
<event>
 8    1  0.2389776E-024  0.7342757E+02  0.7818608E-02  0.1348811E+00
         -1   -1    0    0    0  501 -0.00000000000E+00  0.00000000000E+00  0.13160894519E+01  0.13160991023E+01  0.50400000000E-02 0.  1.
          2   -1    0    0  501    0  0.00000000000E+00 -0.00000000000E+00 -0.10241683246E+04  0.10241683246E+04  0.25500000000E-02 0. -1.
         24    2    1    2    0    0  0.35527136788E-14 -0.44408920985E-15 -0.10228522351E+04  0.10254844237E+04  0.73427571898E+02 0.  0.
         66    2    3    3    0    0 -0.12724074512E+02  0.34308155843E+01 -0.98996677856E+03  0.99005651116E+03  0.20000200711E+01 0.  0.
        -13    1    3    3    0    0  0.12724074512E+02 -0.34308155843E+01 -0.32885456556E+02  0.35427912508E+02  0.10566000000E+00 0.  1.
         13    1    4    4    0    0 -0.71330040373E+01  0.17313383370E+01 -0.49311472904E+03  0.49316936689E+03  0.10566000000E+00 0. -1.
        -13    1    4    4    0    0 -0.12516367944E+00 -0.18917270698E-01 -0.19832866375E+02  0.19833551787E+02  0.10566000000E+00 0. -1.
         14    1    4    4    0    0 -0.54659067949E+01  0.17183945181E+01 -0.47701918314E+03  0.47705359249E+03  0.00000000000E+00 0. -1.
<mgrwt>
<rscale>  0 0.73427572E+02</rscale>
<asrwt>0</asrwt>
<pdfrwt beam="1">  1        2 0.15756372E+00 0.73427572E+02</pdfrwt>
<pdfrwt beam="2">  1       -1 0.20247686E-03 0.73427572E+02</pdfrwt>
<totfact> 0.44005200E+05</totfact>
</mgrwt>
</event>
<event>
 8    1  0.2389776E-024  0.8036506E+02  0.7818608E-02  0.1328019E+00
         -1   -1    0    0    0  501 -0.00000000000E+00  0.00000000000E+00  0.39435989828E+02  0.39435990151E+02  0.50400000000E-02 0.  1.
          2   -1    0    0  501    0  0.00000000000E+00 -0.00000000000E+00 -0.40943201542E+02  0.40943201622E+02  0.25500000000E-02 0. -1.
         24    2    1    2    0    0  0.00000000000E+00  0.17763568394E-14 -0.15072117136E+01  0.80379191772E+02  0.80365059465E+02 0.  0.
         66    2    3    3    0    0 -0.35636122950E+02  0.12055752844E+02 -0.14804897427E+02  0.40477887973E+02  0.19999978546E+01 0.  0.
        -13    1    3    3    0    0  0.35636122950E+02 -0.12055752844E+02  0.13297685713E+02  0.39901303799E+02  0.10566000000E+00 0.  1.
         13    1    4    4    0    0 -0.73899443838E+01  0.18170560662E+01 -0.31378805644E+01  0.82322797095E+01  0.10566000000E+00 0. -1.
        -13    1    4    4    0    0 -0.59939100453E+01  0.22703565446E+01 -0.20801011605E+01  0.67393962151E+01  0.10566000000E+00 0.  1.
         14    1    4    4    0    0 -0.22252268521E+02  0.79683402327E+01 -0.95869157017E+01  0.25506212048E+02  0.00000000000E+00 0. -1.
<mgrwt>
<rscale>  0 0.80365059E+02</rscale>
<asrwt>0</asrwt>
<pdfrwt beam="1">  1        2 0.62989541E-02 0.80365059E+02</pdfrwt>
<pdfrwt beam="2">  1       -1 0.60670754E-02 0.80365059E+02</pdfrwt>
<totfact> 0.14144824E+05</totfact>
</mgrwt>
</event>
<event>
 8    1  0.2389776E-024  0.8385944E+02  0.7818608E-02  0.1318442E+00
         -1   -1    0    0    0  501 -0.00000000000E+00  0.00000000000E+00  0.20206663165E+01  0.20206726019E+01  0.50400000000E-02 0.  1.
          2   -1    0    0  501    0  0.00000000000E+00 -0.00000000000E+00 -0.87005888765E+03  0.87005888765E+03  0.25500000000E-02 0. -1.
         24    2    1    2    0    0 -0.35527136788E-14 -0.35527136788E-14 -0.86803822133E+03  0.87207956025E+03  0.83859440255E+02 0.  0.
         66    2    3    3    0    0 -0.12846346319E+02 -0.20311104021E+02 -0.79126995345E+03  0.79163735940E+03  0.20000018688E+01 0.  0.
        -13    1    3    3    0    0  0.12846346319E+02  0.20311104021E+02 -0.76768267878E+02  0.80442200849E+02  0.10566000000E+00 0.  1.
         13    1    4    4    0    0 -0.77910666783E+00 -0.20469687422E+01 -0.78649510286E+02  0.78680071940E+02  0.10566000000E+00 0. -1.
        -13    1    4    4    0    0 -0.20638697703E+01 -0.28595980656E+01 -0.12575267966E+03  0.12580216400E+03  0.10566000000E+00 0.  1.
        -14    1    4    4    0    0 -0.10003369881E+02 -0.15404537213E+02 -0.58686776350E+03  0.58715512347E+03  0.00000000000E+00 0.  1.
<mgrwt>
<rscale>  0 0.83859440E+02</rscale>
<asrwt>0</asrwt>
<pdfrwt beam="1">  1        2 0.13385491E+00 0.83859440E+02</pdfrwt>
<pdfrwt beam="2">  1       -1 0.31087292E-03 0.83859440E+02</pdfrwt>
<totfact> 0.30788011E+05</totfact>
</mgrwt>
</event>
<event>
 8    1  0.2389776E-024  0.7456249E+02  0.7818608E-02  0.1345231E+00
          2   -1    0    0  501    0  0.00000000000E+00  0.00000000000E+00  0.51676060615E+01  0.51676066906E+01  0.25500000000E-02 0. -1.
         -1   -1    0    0    0  501 -0.00000000000E+00 -0.00000000000E+00 -0.26896226614E+03  0.26896226619E+03  0.50400000000E-02 0.  1.
         24    2    1    2    0    0  0.00000000000E+00 -0.35527136788E-14 -0.26379466008E+03  0.27412987288E+03  0.74562487339E+02 0.  0.
         66    2    3    3    0    0  0.30403505063E+02 -0.21244355670E+02 -0.14482846522E+03  0.14951581890E+03  0.19999981737E+01 0.  0.
        -13    1    3    3    0    0 -0.30403505063E+02  0.21244355670E+02 -0.11896619486E+03  0.12461405399E+03  0.10566000000E+00 0.  1.
         13    1    4    4    0    0  0.24152055948E+01 -0.16264734618E+01 -0.12842301826E+02  0.13168694476E+02  0.10566000000E+00 0. -1.
        -13    1    4    4    0    0  0.10446912838E+02 -0.74676581097E+01 -0.46957811496E+02  0.48682143852E+02  0.10566000000E+00 0.  1.
         14    1    4    4    0    0  0.17541386630E+02 -0.12150224098E+02 -0.85028351903E+02  0.87664980567E+02  0.00000000000E+00 0. -1.
<mgrwt>
<rscale>  0 0.74562487E+02</rscale>
<asrwt>0</asrwt>
<pdfrwt beam="1">  1        2 0.79501657E-03 0.74562487E+02</pdfrwt>
<pdfrwt beam="2">  1       -1 0.41378800E-01 0.74562487E+02</pdfrwt>
<totfact> 0.10794596E+05</totfact>
</mgrwt>
</event>
<event>
 8    1  0.2389776E-024  0.7846175E+02  0.7818608E-02  0.1333474E+00
         -1   -1    0    0    0  501 -0.00000000000E+00  0.00000000000E+00  0.31739888700E+02  0.31739889100E+02  0.50400000000E-02 0.  1.
          2   -1    0    0  501    0  0.00000000000E+00 -0.00000000000E+00 -0.48489822373E+02  0.48489822440E+02  0.25500000000E-02 0. -1.
         24    2    1    2    0    0  0.00000000000E+00 -0.71054273576E-14 -0.16749933674E+02  0.80229711540E+02  0.78461750782E+02 0.  0.
         66    2    3    3    0    0 -0.19171760624E+02 -0.24237272040E+02 -0.33049828473E+02  0.45291201327E+02  0.19999985394E+01 0.  0.
        -13    1    3    3    0    0  0.19171760624E+02  0.24237272040E+02  0.16299894800E+02  0.34938510213E+02  0.10566000000E+00 0.  1.
         13    1    4    4    0    0 -0.33585734300E+00 -0.43411997066E+00 -0.90781982963E+00  0.10660962351E+01  0.10566000000E+00 0. -1.
        -13    1    4    4    0    0 -0.61515521999E+01 -0.86260840393E+01 -0.11438479147E+02  0.15591692966E+02  0.10566000000E+00 0. -1.
         14    1    4    4    0    0 -0.12684351081E+02 -0.15177068030E+02 -0.20703529497E+02  0.28633412126E+02  0.00000000000E+00 0. -1.
<mgrwt>
<rscale>  0 0.78461751E+02</rscale>
<asrwt>0</asrwt>
<pdfrwt beam="1">  1        2 0.74599727E-02 0.78461751E+02</pdfrwt>
<pdfrwt beam="2">  1       -1 0.48830598E-02 0.78461751E+02</pdfrwt>
<totfact> 0.15654678E+05</totfact>
</mgrwt>
</event>
<event>
 8    1  0.2389776E-024  0.8106276E+02  0.7818608E-02  0.1326062E+00
         -1   -1    0    0    0  501 -0.00000000000E+00  0.00000000000E+00  0.26864803945E+02  0.26864804417E+02  0.50400000000E-02 0.  1.
          2   -1    0    0  501    0  0.00000000000E+00 -0.00000000000E+00 -0.61150376296E+02  0.61150376349E+02  0.25500000000E-02 0. -1.
         24    2    1    2    0    0  0.17763568394E-14 -0.17763568394E-14 -0.34285572351E+02  0.88015180766E+02  0.81062763177E+02 0.  0.
         66    2    3    3    0    0 -0.12706081705E+02  0.15261337029E+02 -0.55486032453E+02  0.58966538926E+02  0.19999988387E+01 0.  0.
        -13    1    3    3    0    0  0.12706081705E+02 -0.15261337029E+02  0.21200460102E+02  0.29048641840E+02  0.10566000000E+00 0.  1.
         13    1    4    4    0    0 -0.64339173425E+01  0.89311567195E+01 -0.28880514024E+02  0.30907217718E+02  0.10566000000E+00 0. -1.
        -13    1    4    4    0    0 -0.30039957272E+01  0.31696191318E+01 -0.13013613556E+02  0.13727191176E+02  0.10566000000E+00 0.  1.
         14    1    4    4    0    0 -0.32681686352E+01  0.31605611779E+01 -0.13591904873E+02  0.14332130032E+02  0.00000000000E+00 0. -1.
<mgrwt>
<rscale>  0 0.81062763E+02</rscale>
<asrwt>0</asrwt>
<pdfrwt beam="1">  1        2 0.94077502E-02 0.81062763E+02</pdfrwt>
<pdfrwt beam="2">  1       -1 0.41330468E-02 0.81062763E+02</pdfrwt>
<totfact> 0.15083307E+05</totfact>
</mgrwt>
</event>
<event>
 8    1  0.2389776E-024  0.8023099E+02  0.7818608E-02  0.1328397E+00
          2   -1    0    0  501    0  0.00000000000E+00  0.00000000000E+00  0.75241284733E+03  0.75241284733E+03  0.25500000000E-02 0. -1.
         -1   -1    0    0    0  501 -0.00000000000E+00 -0.00000000000E+00 -0.21387866301E+01  0.21387925685E+01  0.50400000000E-02 0.  1.
         24    2    1    2    0    0  0.35527136788E-14  0.00000000000E+00  0.75027406070E+03  0.75455163990E+03  0.80230986040E+02 0.  0.
         66    2    3    3    0    0 -0.19755844124E+02  0.11185518330E+02  0.68613017236E+03  0.68650857433E+03  0.20000016178E+01 0.  0.
        -13    1    3    3    0    0  0.19755844124E+02 -0.11185518330E+02  0.64143888340E+02  0.68043065575E+02  0.10566000000E+00 0.  1.
         13    1    4    4    0    0 -0.48384282362E+01  0.34015954006E+01  0.16195828456E+03  0.16206627762E+03  0.10566000000E+00 0. -1.
        -13    1    4    4    0    0 -0.10109150011E+02  0.50667827921E+01  0.35961383146E+03  0.35979158709E+03  0.10566000000E+00 0.  1.
         14    1    4    4    0    0 -0.48082658762E+01  0.27171401378E+01  0.16455805634E+03  0.16465070962E+03  0.00000000000E+00 0. -1.
<mgrwt>
<rscale>  0 0.80230986E+02</rscale>
<asrwt>0</asrwt>
<pdfrwt beam="1">  1        2 0.11575578E+00 0.80230986E+02</pdfrwt>
<pdfrwt beam="2">  1       -1 0.32904467E-03 0.80230986E+02</pdfrwt>
<totfact> 0.33721056E+05</totfact>
</mgrwt>
</event>
<event>
 8    1  0.2389776E-024  0.7960167E+02  0.7818608E-02  0.1330186E+00
          2   -1    0    0  501    0  0.00000000000E+00  0.00000000000E+00  0.18769110153E+03  0.18769110154E+03  0.25500000000E-02 0. -1.
         -1   -1    0    0    0  501 -0.00000000000E+00 -0.00000000000E+00 -0.84399640136E+01  0.84399655185E+01  0.50400000000E-02 0.  1.
         24    2    1    2    0    0  0.00000000000E+00  0.00000000000E+00  0.17925113751E+03  0.19613106706E+03  0.79601665607E+02 0.  0.
         66    2    3    3    0    0 -0.85021337149E+01  0.18674097446E+02  0.17363915408E+03  0.17485869730E+03  0.19999999125E+01 0.  0.
        -13    1    3    3    0    0  0.85021337149E+01 -0.18674097446E+02  0.56119834335E+01  0.21272369760E+02  0.10566000000E+00 0.  1.
         13    1    4    4    0    0 -0.65742036843E+01  0.13733453557E+02  0.12869229966E+03  0.12958991881E+03  0.10566000000E+00 0. -1.
        -13    1    4    4    0    0 -0.12099358944E+01  0.39616748539E+01  0.36667307915E+02  0.36900697097E+02  0.10566000000E+00 0.  1.
        -14    1    4    4    0    0 -0.71799413614E+00  0.97896903527E+00  0.82795465041E+01  0.83680813969E+01  0.00000000000E+00 0.  1.
<mgrwt>
<rscale>  0 0.79601666E+02</rscale>
<asrwt>0</asrwt>
<pdfrwt beam="1">  1        2 0.28875553E-01 0.79601666E+02</pdfrwt>
<pdfrwt beam="2">  1       -1 0.12984562E-02 0.79601666E+02</pdfrwt>
<totfact> 0.21866681E+05</totfact>
</mgrwt>
</event>
<event>
 8    1  0.2389776E-024  0.7962440E+02  0.7818608E-02  0.1330121E+00
         -1   -1    0    0    0  501 -0.00000000000E+00  0.00000000000E+00  0.13491044169E+02  0.13491045111E+02  0.50400000000E-02 0.  1.
          2   -1    0    0  501    0  0.00000000000E+00 -0.00000000000E+00 -0.11748618963E+03  0.11748618966E+03  0.25500000000E-02 0. -1.
         24    2    1    2    0    0 -0.35527136788E-14  0.00000000000E+00 -0.10399514546E+03  0.13097723477E+03  0.79624404224E+02 0.  0.
         66    2    3    3    0    0 -0.17633051269E+02  0.28904042225E+02 -0.86402741737E+02  0.92821344176E+02  0.20000002453E+01 0.  0.
        -13    1    3    3    0    0  0.17633051269E+02 -0.28904042225E+02 -0.17592403721E+02  0.38155890590E+02  0.10566000000E+00 0.  1.
         13    1    4    4    0    0 -0.12465963663E+02  0.19638812301E+02 -0.57628914523E+02  0.62146489456E+02  0.10566000000E+00 0. -1.
        -13    1    4    4    0    0 -0.29830221962E+01  0.59889770062E+01 -0.17850009859E+02  0.19063060693E+02  0.10566000000E+00 0.  1.
        -14    1    4    4    0    0 -0.21840654095E+01  0.32762529179E+01 -0.10923817355E+02  0.11611794026E+02  0.00000000000E+00 0.  1.
<mgrwt>
<rscale>  0 0.79624404E+02</rscale>
<asrwt>0</asrwt>
<pdfrwt beam="1">  1        2 0.18074798E-01 0.79624404E+02</pdfrwt>
<pdfrwt beam="2">  1       -1 0.20755454E-02 0.79624404E+02</pdfrwt>
<totfact> 0.18803608E+05</totfact>
</mgrwt>
</event>
<event>
 8    1  0.2389776E-024  0.7474937E+02  0.7818608E-02  0.1344649E+00
          2   -1    0    0  501    0  0.00000000000E+00  0.00000000000E+00  0.30099258042E+03  0.30099258043E+03  0.25500000000E-02 0. -1.
         -1   -1    0    0    0  501 -0.00000000000E+00 -0.00000000000E+00 -0.46408672313E+01  0.46408699680E+01  0.50400000000E-02 0.  1.
         24    2    1    2    0    0  0.00000000000E+00  0.35527136788E-14  0.29635171319E+03  0.30563345040E+03  0.74749368512E+02 0.  0.
         66    2    3    3    0    0 -0.47014526459E+01 -0.25079919550E+02  0.25979030792E+03  0.26104809921E+03  0.19999973565E+01 0.  0.
        -13    1    3    3    0    0  0.47014526459E+01  0.25079919550E+02  0.36561405273E+02  0.44585351195E+02  0.10566000000E+00 0.  1.
         13    1    4    4    0    0 -0.21195706390E+01 -0.74969189016E+01  0.79149898851E+02  0.79532471513E+02  0.10566000000E+00 0. -1.
        -13    1    4    4    0    0 -0.68963590728E+00 -0.31205114434E+01  0.29287467515E+02  0.29461502114E+02  0.10566000000E+00 0. -1.
         14    1    4    4    0    0 -0.18922460997E+01 -0.14462489205E+02  0.15135294155E+03  0.15205412558E+03  0.00000000000E+00 0. -1.
<mgrwt>
<rscale>  0 0.74749369E+02</rscale>
<asrwt>0</asrwt>
<pdfrwt beam="1">  1        2 0.46306550E-01 0.74749369E+02</pdfrwt>
<pdfrwt beam="2">  1       -1 0.71397981E-03 0.74749369E+02</pdfrwt>
<totfact> 0.30477828E+05</totfact>
</mgrwt>
</event>
<event>
 8    1  0.2389776E-024  0.7779583E+02  0.7818608E-02  0.1335426E+00
         -1   -1    0    0    0  501 -0.00000000000E+00  0.00000000000E+00  0.22411283584E+01  0.22411340255E+01  0.50400000000E-02 0.  1.
          2   -1    0    0  501    0  0.00000000000E+00 -0.00000000000E+00 -0.67512678606E+03  0.67512678606E+03  0.25500000000E-02 0. -1.
         24    2    1    2    0    0  0.00000000000E+00  0.17763568394E-14 -0.67288565770E+03  0.67736792009E+03  0.77795827825E+02 0.  0.
         66    2    3    3    0    0  0.91210472186E+01 -0.84801245667E+01 -0.65728266975E+03  0.65740369178E+03  0.19999986621E+01 0.  0.
        -13    1    3    3    0    0 -0.91210472186E+01  0.84801245667E+01 -0.15602987949E+02  0.19964228310E+02  0.10566000000E+00 0.  1.
         13    1    4    4    0    0  0.54675590160E+01 -0.48951287483E+01 -0.39296322037E+03  0.39303175471E+03  0.10566000000E+00 0. -1.
        -13    1    4    4    0    0  0.16828736308E+01 -0.11393589794E+01 -0.80854876791E+02  0.80880482611E+02  0.10566000000E+00 0.  1.
        -14    1    4    4    0    0  0.19706145718E+01 -0.24456368390E+01 -0.18346457259E+03  0.18349145445E+03  0.00000000000E+00 0.  1.
<mgrwt>
<rscale>  0 0.77795828E+02</rscale>
<asrwt>0</asrwt>
<pdfrwt beam="1">  1        2 0.10386550E+00 0.77795828E+02</pdfrwt>
<pdfrwt beam="2">  1       -1 0.34478995E-03 0.77795828E+02</pdfrwt>
<totfact> 0.35663516E+05</totfact>
</mgrwt>
</event>
<event>
 8    1  0.2389776E-024  0.7944497E+02  0.7818608E-02  0.1330634E+00
         -1   -1    0    0    0  501 -0.00000000000E+00  0.00000000000E+00  0.20679502610E+03  0.20679502616E+03  0.50400000000E-02 0.  1.
          2   -1    0    0  501    0  0.00000000000E+00 -0.00000000000E+00 -0.76301435543E+01  0.76301439804E+01  0.25500000000E-02 0. -1.
         24    2    1    2    0    0  0.00000000000E+00  0.71054273576E-14  0.19916488255E+03  0.21442517015E+03  0.79444969325E+02 0.  0.
         66    2    3    3    0    0  0.35945617256E+01 -0.36220699137E+02  0.14240714620E+03  0.14699882723E+03  0.19999992658E+01 0.  0.
        -13    1    3    3    0    0 -0.35945617256E+01  0.36220699137E+02  0.56757736349E+02  0.67426342919E+02  0.10566000000E+00 0.  1.
         13    1    4    4    0    0  0.21849537991E+01 -0.20978835643E+02  0.81387708913E+02  0.84076488355E+02  0.10566000000E+00 0. -1.
        -13    1    4    4    0    0  0.65018575552E+00 -0.77233322477E+01  0.28378501108E+02  0.29418074235E+02  0.10566000000E+00 0.  1.
         14    1    4    4    0    0  0.75942217101E+00 -0.75185312459E+01  0.32640936180E+02  0.33504264636E+02  0.00000000000E+00 0. -1.
<mgrwt>
<rscale>  0 0.79444969E+02</rscale>
<asrwt>0</asrwt>
<pdfrwt beam="1">  1        2 0.11738684E-02 0.79444969E+02</pdfrwt>
<pdfrwt beam="2">  1       -1 0.31814615E-01 0.79444969E+02</pdfrwt>
<totfact> 0.10035487E+05</totfact>
</mgrwt>
</event>
<event>
 8    1  0.2389776E-024  0.8085191E+02  0.7818608E-02  0.1326651E+00
         -1   -1    0    0    0  501 -0.00000000000E+00  0.00000000000E+00  0.83613599727E+01  0.83613614917E+01  0.50400000000E-02 0.  1.
          2   -1    0    0  501    0  0.00000000000E+00 -0.00000000000E+00 -0.19545357160E+03  0.19545357162E+03  0.25500000000E-02 0. -1.
         24    2    1    2    0    0  0.00000000000E+00  0.00000000000E+00 -0.18709221163E+03  0.20381493311E+03  0.80851909726E+02 0.  0.
         66    2    3    3    0    0  0.20584672791E+02 -0.20301927952E+01 -0.18108777002E+03  0.18227624885E+03  0.20000013476E+01 0.  0.
        -13    1    3    3    0    0 -0.20584672791E+02  0.20301927952E+01 -0.60044416048E+01  0.21538684261E+02  0.10566000000E+00 0.  1.
         13    1    4    4    0    0  0.11677027638E+02 -0.21124133805E+01 -0.10237692335E+03  0.10306241247E+03  0.10566000000E+00 0. -1.
        -13    1    4    4    0    0  0.41257345390E+01 -0.50280262491E-01 -0.35741895087E+02  0.35979416922E+02  0.10566000000E+00 0.  1.
         14    1    4    4    0    0  0.47819106134E+01  0.13250084779E+00 -0.42968951585E+02  0.43234419458E+02  0.00000000000E+00 0. -1.
<mgrwt>
<rscale>  0 0.80851910E+02</rscale>
<asrwt>0</asrwt>
<pdfrwt beam="1">  1        2 0.30069777E-01 0.80851910E+02</pdfrwt>
<pdfrwt beam="2">  1       -1 0.12863633E-02 0.80851910E+02</pdfrwt>
<totfact> 0.21279754E+05</totfact>
</mgrwt>
</event>
<event>
 8    1  0.2389776E-024  0.7392232E+02  0.7818608E-02  0.1347241E+00
          2   -1    0    0  501    0  0.00000000000E+00  0.00000000000E+00  0.33074604320E+03  0.33074604321E+03  0.25500000000E-02 0. -1.
         -1   -1    0    0    0  501 -0.00000000000E+00 -0.00000000000E+00 -0.41304409415E+01  0.41304440164E+01  0.50400000000E-02 0.  1.
         24    2    1    2    0    0  0.00000000000E+00  0.00000000000E+00  0.32661560226E+03  0.33487648723E+03  0.73922324492E+02 0.  0.
         66    2    3    3    0    0  0.10440917554E+02  0.35012187709E+02  0.18793011031E+03  0.19145911419E+03  0.19999994726E+01 0.  0.
        -13    1    3    3    0    0 -0.10440917554E+02 -0.35012187709E+02  0.13868549195E+03  0.14341737304E+03  0.10566000000E+00 0.  1.
         13    1    4    4    0    0  0.62940526789E+01  0.19944738730E+02  0.11008850443E+03  0.11205756411E+03  0.10566000000E+00 0. -1.
        -13    1    4    4    0    0  0.41014628815E+01  0.13975562366E+02  0.72825848269E+02  0.74268120222E+02  0.10566000000E+00 0.  1.
        -14    1    4    4    0    0  0.45401993653E-01  0.10918866130E+01  0.50157576057E+01  0.51334298549E+01  0.00000000000E+00 0.  1.
<mgrwt>
<rscale>  0 0.73922324E+02</rscale>
<asrwt>0</asrwt>
<pdfrwt beam="1">  1        2 0.50884007E-01 0.73922324E+02</pdfrwt>
<pdfrwt beam="2">  1       -1 0.63545269E-03 0.73922324E+02</pdfrwt>
<totfact> 0.32449739E+05</totfact>
</mgrwt>
</event>
<event>
 8    1  0.2389776E-024  0.7923105E+02  0.7818608E-02  0.1331248E+00
          2   -1    0    0  501    0  0.00000000000E+00  0.00000000000E+00  0.14426729337E+02  0.14426729562E+02  0.25500000000E-02 0. -1.
         -1   -1    0    0    0  501 -0.00000000000E+00 -0.00000000000E+00 -0.10878346522E+03  0.10878346534E+03  0.50400000000E-02 0.  1.
         24    2    1    2    0    0  0.35527136788E-14  0.00000000000E+00 -0.94356735884E+02  0.12321019490E+03  0.79231045182E+02 0.  0.
         66    2    3    3    0    0  0.26960249557E+02  0.34113554865E+00 -0.21269134436E+01  0.27120014647E+02  0.20000010077E+01 0.  0.
        -13    1    3    3    0    0 -0.26960249557E+02 -0.34113554865E+00 -0.92229822441E+02  0.96090180253E+02  0.10566000000E+00 0.  1.
         13    1    4    4    0    0  0.15445389950E+02  0.40038199499E-02 -0.89113152189E+00  0.15471437107E+02  0.10566000000E+00 0. -1.
        -13    1    4    4    0    0  0.23951988712E+01  0.28871645382E+00  0.17112289343E+00  0.24209051827E+01  0.10566000000E+00 0.  1.
         14    1    4    4    0    0  0.91196607352E+01  0.48415274885E-01 -0.14069048151E+01  0.92276723567E+01  0.00000000000E+00 0. -1.
<mgrwt>
<rscale>  0 0.79231045E+02</rscale>
<asrwt>0</asrwt>
<pdfrwt beam="1">  1        2 0.22194969E-02 0.79231045E+02</pdfrwt>
<pdfrwt beam="2">  1       -1 0.16735917E-01 0.79231045E+02</pdfrwt>
<totfact> 0.11922701E+05</totfact>
</mgrwt>
</event>
<event>
 8    1  0.2389776E-024  0.8039792E+02  0.7818608E-02  0.1327926E+00
         -1   -1    0    0    0  501 -0.00000000000E+00  0.00000000000E+00  0.91344022377E+01  0.91344036282E+01  0.50400000000E-02 0.  1.
          2   -1    0    0  501    0  0.00000000000E+00 -0.00000000000E+00 -0.17690881524E+03  0.17690881526E+03  0.25500000000E-02 0. -1.
         24    2    1    2    0    0  0.00000000000E+00  0.00000000000E+00 -0.16777441300E+03  0.18604321889E+03  0.80397920592E+02 0.  0.
         66    2    3    3    0    0 -0.15616168745E+02 -0.14516319536E+02 -0.16273036683E+03  0.16413336209E+03  0.20000009844E+01 0.  0.
        -13    1    3    3    0    0  0.15616168745E+02  0.14516319536E+02 -0.50440461786E+01  0.21909856801E+02  0.10566000000E+00 0.  1.
         13    1    4    4    0    0 -0.31845410243E+01 -0.32134514260E+01 -0.31071757538E+02  0.31399567707E+02  0.10566000000E+00 0. -1.
        -13    1    4    4    0    0 -0.49797769104E+01 -0.43983961271E+01 -0.46843379108E+02  0.47312338738E+02  0.10566000000E+00 0.  1.
        -14    1    4    4    0    0 -0.74518508100E+01 -0.69044719830E+01 -0.84815230180E+02  0.85421455644E+02  0.00000000000E+00 0.  1.
<mgrwt>
<rscale>  0 0.80397921E+02</rscale>
<asrwt>0</asrwt>
<pdfrwt beam="1">  1        2 0.27216738E-01 0.80397921E+02</pdfrwt>
<pdfrwt beam="2">  1       -1 0.14052929E-02 0.80397921E+02</pdfrwt>
<totfact> 0.20874113E+05</totfact>
</mgrwt>
</event>
<event>
 8    1  0.2389776E-024  0.8558011E+02  0.7818608E-02  0.1313922E+00
         -1   -1    0    0    0  501 -0.00000000000E+00  0.00000000000E+00  0.18832576735E+01  0.18832644176E+01  0.50400000000E-02 0.  1.
          2   -1    0    0  501    0  0.00000000000E+00 -0.00000000000E+00 -0.97224371043E+03  0.97224371044E+03  0.25500000000E-02 0. -1.
         24    2    1    2    0    0  0.00000000000E+00  0.00000000000E+00 -0.97036045276E+03  0.97412697485E+03  0.85580107843E+02 0.  0.
         66    2    3    3    0    0 -0.32160993133E+01 -0.23680171458E+02 -0.88914939529E+03  0.88947273199E+03  0.19999997082E+01 0.  0.
        -13    1    3    3    0    0  0.32160993133E+01  0.23680171458E+02 -0.81211057469E+02  0.84654242861E+02  0.10566000000E+00 0.  1.
         13    1    4    4    0    0 -0.11470080874E+01 -0.13899422053E+02 -0.51299860841E+03  0.51318816526E+03  0.10566000000E+00 0. -1.
        -13    1    4    4    0    0 -0.16863311428E+01 -0.78664752278E+01 -0.28944831099E+03  0.28956011646E+03  0.10566000000E+00 0.  1.
         14    1    4    4    0    0 -0.38276008308E+00 -0.19142741773E+01 -0.86702475884E+02  0.86724450274E+02  0.00000000000E+00 0. -1.
<mgrwt>
<rscale>  0 0.85580108E+02</rscale>
<asrwt>0</asrwt>
<pdfrwt beam="1">  1        2 0.14957555E+00 0.85580108E+02</pdfrwt>
<pdfrwt beam="2">  1       -1 0.28973325E-03 0.85580108E+02</pdfrwt>
<totfact> 0.29512777E+05</totfact>
</mgrwt>
</event>
<event>
 8    1  0.2389776E-024  0.8100655E+02  0.7818608E-02  0.1326219E+00
          2   -1    0    0  501    0  0.00000000000E+00  0.00000000000E+00  0.40073502763E+03  0.40073502764E+03  0.25500000000E-02 0. -1.
         -1   -1    0    0    0  501 -0.00000000000E+00 -0.00000000000E+00 -0.40937636443E+01  0.40937667468E+01  0.50400000000E-02 0.  1.
         24    2    1    2    0    0 -0.88817841970E-15  0.00000000000E+00  0.39664126399E+03  0.40482879439E+03  0.81006545828E+02 0.  0.
         66    2    3    3    0    0  0.70760487685E+01  0.30839598184E+02  0.32460746276E+03  0.32615204454E+03  0.19999998419E+01 0.  0.
        -13    1    3    3    0    0 -0.70760487685E+01 -0.30839598184E+02  0.72033801232E+02  0.78676749846E+02  0.10566000000E+00 0.  1.
         13    1    4    4    0    0  0.47973256988E+01  0.21984646173E+02  0.22633006292E+03  0.22744592225E+03  0.10566000000E+00 0. -1.
        -13    1    4    4    0    0  0.50572791237E+00  0.18917514601E+01  0.17397219861E+02  0.17507395787E+02  0.10566000000E+00 0.  1.
         14    1    4    4    0    0  0.17729951573E+01  0.69632005511E+01  0.80880179972E+02  0.81198726505E+02  0.00000000000E+00 0. -1.
<mgrwt>
<rscale>  0 0.81006546E+02</rscale>
<asrwt>0</asrwt>
<pdfrwt beam="1">  1        2 0.61651577E-01 0.81006546E+02</pdfrwt>
<pdfrwt beam="2">  1       -1 0.62980968E-03 0.81006546E+02</pdfrwt>
<totfact> 0.27362747E+05</totfact>
</mgrwt>
</event>
<event>
 8    1  0.2389776E-024  0.7611143E+02  0.7818608E-02  0.1340463E+00
          2   -1    0    0  501    0  0.00000000000E+00  0.00000000000E+00  0.17547533259E+03  0.17547533261E+03  0.25500000000E-02 0. -1.
         -1   -1    0    0    0  501 -0.00000000000E+00 -0.00000000000E+00 -0.82532243551E+01  0.82532258940E+01  0.50400000000E-02 0.  1.
         24    2    1    2    0    0  0.17763568394E-14  0.00000000000E+00  0.16722210824E+03  0.18372855850E+03  0.76111429673E+02 0.  0.
         66    2    3    3    0    0  0.10769360523E+02  0.14395616387E+02  0.16456339947E+03  0.16555459929E+03  0.20000008497E+01 0.  0.
        -13    1    3    3    0    0 -0.10769360523E+02 -0.14395616387E+02  0.26587087666E+01  0.18173959215E+02  0.10566000000E+00 0.  1.
         13    1    4    4    0    0  0.31021770156E+01  0.50650218859E+01  0.57017459502E+02  0.57326083078E+02  0.10566000000E+00 0. -1.
        -13    1    4    4    0    0  0.20514254257E+01  0.20234742455E+01  0.29393357769E+02  0.29534444963E+02  0.10566000000E+00 0.  1.
         14    1    4    4    0    0  0.56157580815E+01  0.73071202552E+01  0.78152582197E+02  0.78694071246E+02  0.00000000000E+00 0. -1.
<mgrwt>
<rscale>  0 0.76111430E+02</rscale>
<asrwt>0</asrwt>
<pdfrwt beam="1">  1        2 0.26996204E-01 0.76111430E+02</pdfrwt>
<pdfrwt beam="2">  1       -1 0.12697270E-02 0.76111430E+02</pdfrwt>
<totfact> 0.24055062E+05</totfact>
</mgrwt>
</event>
<event>
 8    1  0.2389776E-024  0.7628552E+02  0.7818608E-02  0.1339936E+00
         -1   -1    0    0    0  501 -0.00000000000E+00  0.00000000000E+00  0.31426320015E+01  0.31426360430E+01  0.50400000000E-02 0.  1.
          2   -1    0    0  501    0  0.00000000000E+00 -0.00000000000E+00 -0.46294605453E+03  0.46294605453E+03  0.25500000000E-02 0. -1.
         24    2    1    2    0    0  0.00000000000E+00  0.00000000000E+00 -0.45980342252E+03  0.46608869058E+03  0.76285517089E+02 0.  0.
         66    2    3    3    0    0  0.34184158221E+02  0.11105091785E+02 -0.30758035355E+03  0.30967975980E+03  0.19999995633E+01 0.  0.
        -13    1    3    3    0    0 -0.34184158221E+02 -0.11105091785E+02 -0.15222306897E+03  0.15640893078E+03  0.10566000000E+00 0.  1.
         13    1    4    4    0    0  0.62268677742E+01  0.14961589875E+01 -0.54551277501E+02  0.54925999445E+02  0.10566000000E+00 0. -1.
        -13    1    4    4    0    0  0.33367693296E+01  0.15819550605E+01 -0.30401363387E+02  0.30625000754E+02  0.10566000000E+00 0.  1.
         14    1    4    4    0    0  0.24620521117E+02  0.80269777374E+01 -0.22262771267E+03  0.22412875960E+03  0.00000000000E+00 0. -1.
<mgrwt>
<rscale>  0 0.76285517E+02</rscale>
<asrwt>0</asrwt>
<pdfrwt beam="1">  1        2 0.71222416E-01 0.76285517E+02</pdfrwt>
<pdfrwt beam="2">  1       -1 0.48348253E-03 0.76285517E+02</pdfrwt>
<totfact> 0.33609040E+05</totfact>
</mgrwt>
</event>
<event>
 8    1  0.2389776E-024  0.8006565E+02  0.7818608E-02  0.1328865E+00
         -1   -1    0    0    0  501 -0.00000000000E+00  0.00000000000E+00  0.19869526076E+01  0.19869589997E+01  0.50400000000E-02 0.  1.
          2   -1    0    0  501    0  0.00000000000E+00 -0.00000000000E+00 -0.80657414154E+03  0.80657414154E+03  0.25500000000E-02 0. -1.
         24    2    1    2    0    0 -0.35527136788E-14 -0.17763568394E-14 -0.80458718893E+03  0.80856110054E+03  0.80065652551E+02 0.  0.
         66    2    3    3    0    0  0.11269723972E+02  0.11461185938E+02 -0.77252915248E+03  0.77269894324E+03  0.19999963132E+01 0.  0.
        -13    1    3    3    0    0 -0.11269723972E+02 -0.11461185938E+02 -0.32058036448E+02  0.35862157303E+02  0.10566000000E+00 0.  1.
         13    1    4    4    0    0  0.54920772031E+01  0.47390807924E+01 -0.35790785976E+03  0.35798138086E+03  0.10566000000E+00 0. -1.
        -13    1    4    4    0    0  0.17525509276E+01  0.26824367486E+01 -0.16494628533E+03  0.16497743818E+03  0.10566000000E+00 0.  1.
        -14    1    4    4    0    0  0.40250958414E+01  0.40396683966E+01 -0.24967500739E+03  0.24974012420E+03  0.00000000000E+00 0.  1.
<mgrwt>
<rscale>  0 0.80065653E+02</rscale>
<asrwt>0</asrwt>
<pdfrwt beam="1">  1        2 0.12408807E+00 0.80065653E+02</pdfrwt>
<pdfrwt beam="2">  1       -1 0.30568615E-03 0.80065653E+02</pdfrwt>
<totfact> 0.34340364E+05</totfact>
</mgrwt>
</event>
<event>
 8    1  0.2389776E-024  0.8001116E+02  0.7818608E-02  0.1329020E+00
         -1   -1    0    0    0  501 -0.00000000000E+00  0.00000000000E+00  0.25035153477E+02  0.25035153984E+02  0.50400000000E-02 0.  1.
          2   -1    0    0  501    0  0.00000000000E+00 -0.00000000000E+00 -0.63927958773E+02  0.63927958824E+02  0.25500000000E-02 0. -1.
         24    2    1    2    0    0  0.00000000000E+00  0.35527136788E-14 -0.38892805297E+02  0.88963112808E+02  0.80011156326E+02 0.  0.
         66    2    3    3    0    0 -0.72392260625E+01 -0.23406718643E+02 -0.54587019121E+02  0.59866714694E+02  0.20000000504E+01 0.  0.
        -13    1    3    3    0    0  0.72392260625E+01  0.23406718643E+02  0.15694213824E+02  0.29096398114E+02  0.10566000000E+00 0.  1.
         13    1    4    4    0    0 -0.24430800787E+00 -0.89008462209E+00 -0.22389038264E+01  0.24240031800E+01  0.10566000000E+00 0. -1.
        -13    1    4    4    0    0 -0.26677943395E+01 -0.70877229030E+01 -0.15060558395E+02  0.16857773453E+02  0.10566000000E+00 0.  1.
        -14    1    4    4    0    0 -0.43271237151E+01 -0.15428911118E+02 -0.37287556899E+02  0.40584938061E+02  0.00000000000E+00 0.  1.
<mgrwt>
<rscale>  0 0.80011156E+02</rscale>
<asrwt>0</asrwt>
<pdfrwt beam="1">  1        2 0.98350705E-02 0.80011156E+02</pdfrwt>
<pdfrwt beam="2">  1       -1 0.38515622E-02 0.80011156E+02</pdfrwt>
<totfact> 0.15792467E+05</totfact>
</mgrwt>
</event>
<event>
 8    1  0.2389776E-024  0.7678445E+02  0.7818608E-02  0.1338433E+00
          2   -1    0    0  501    0  0.00000000000E+00  0.00000000000E+00  0.12670431459E+03  0.12670431462E+03  0.25500000000E-02 0. -1.
         -1   -1    0    0    0  501 -0.00000000000E+00 -0.00000000000E+00 -0.11633091023E+02  0.11633092115E+02  0.50400000000E-02 0.  1.
         24    2    1    2    0    0  0.35527136788E-14  0.00000000000E+00  0.11507122357E+03  0.13833740673E+03  0.76784448998E+02 0.  0.
         66    2    3    3    0    0 -0.29401248608E+02 -0.22098541070E+02  0.77242815450E+02  0.85575881338E+02  0.19999977520E+01 0.  0.
        -13    1    3    3    0    0  0.29401248608E+02  0.22098541070E+02  0.37828408118E+02  0.52761525394E+02  0.10566000000E+00 0.  1.
         13    1    4    4    0    0 -0.13583596833E+02 -0.94637743283E+01  0.33457353052E+02  0.37329382057E+02  0.10566000000E+00 0. -1.
        -13    1    4    4    0    0 -0.15296045648E+01 -0.14100978020E+01  0.49651303562E+01  0.53843987060E+01  0.10566000000E+00 0.  1.
         14    1    4    4    0    0 -0.14288047210E+02 -0.11224668940E+02  0.38820332042E+02  0.42862100575E+02  0.00000000000E+00 0. -1.
<mgrwt>
<rscale>  0 0.76784449E+02</rscale>
<asrwt>0</asrwt>
<pdfrwt beam="1">  1        2 0.19492971E-01 0.76784449E+02</pdfrwt>
<pdfrwt beam="2">  1       -1 0.17897065E-02 0.76784449E+02</pdfrwt>
<totfact> 0.21184068E+05</totfact>
</mgrwt>
</event>
<event>
 8    1  0.2389776E-024  0.6980237E+02  0.7818608E-02  0.1360766E+00
         -1   -1    0    0    0  501 -0.00000000000E+00  0.00000000000E+00  0.33367214447E+02  0.33367214828E+02  0.50400000000E-02 0.  1.
          2   -1    0    0  501    0  0.00000000000E+00 -0.00000000000E+00 -0.36505671795E+02  0.36505671884E+02  0.25500000000E-02 0. -1.
         24    2    1    2    0    0  0.00000000000E+00  0.88817841970E-15 -0.31384573480E+01  0.69872886712E+02  0.69802366600E+02 0.  0.
         66    2    3    3    0    0 -0.20689152899E+02 -0.53446039736E+01 -0.29157055824E+02  0.36204140522E+02  0.20000118338E+01 0.  0.
        -13    1    3    3    0    0  0.20689152899E+02  0.53446039736E+01  0.26018598476E+02  0.33668746190E+02  0.10566000000E+00 0.  1.
         13    1    4    4    0    0 -0.10132355392E+02 -0.24518307417E+01 -0.15599060158E+02  0.18762141179E+02  0.10566000000E+00 0. -1.
        -13    1    4    4    0    0 -0.83837155743E+01 -0.21824943000E+01 -0.11168883976E+02  0.14135243242E+02  0.10566000000E+00 0.  1.
        -14    1    4    4    0    0 -0.21730819331E+01 -0.71027893188E+00 -0.23891116893E+01  0.33067561012E+01  0.00000000000E+00 0.  1.
<mgrwt>
<rscale>  0 0.69802367E+02</rscale>
<asrwt>0</asrwt>
<pdfrwt beam="1">  1        2 0.56162573E-02 0.69802367E+02</pdfrwt>
<pdfrwt beam="2">  1       -1 0.51334176E-02 0.69802367E+02</pdfrwt>
<totfact> 0.20339051E+05</totfact>
</mgrwt>
</event>
<event>
 8    1  0.2389776E-024  0.8162910E+02  0.7818608E-02  0.1324491E+00
         -1   -1    0    0    0  501 -0.00000000000E+00  0.00000000000E+00  0.63450905708E+01  0.63450925725E+01  0.50400000000E-02 0.  1.
          2   -1    0    0  501    0  0.00000000000E+00 -0.00000000000E+00 -0.26253797423E+03  0.26253797424E+03  0.25500000000E-02 0. -1.
         24    2    1    2    0    0  0.00000000000E+00  0.00000000000E+00 -0.25619288366E+03  0.26888306681E+03  0.81629100094E+02 0.  0.
         66    2    3    3    0    0 -0.35220337967E+02  0.50384399142E+01 -0.19388450141E+03  0.19713208253E+03  0.19999980765E+01 0.  0.
        -13    1    3    3    0    0  0.35220337967E+02 -0.50384399142E+01 -0.62308382247E+02  0.71750984283E+02  0.10566000000E+00 0.  1.
         13    1    4    4    0    0 -0.46230105660E+01  0.70758841747E+00 -0.25619971316E+02  0.26043559710E+02  0.10566000000E+00 0. -1.
        -13    1    4    4    0    0 -0.30340329796E+02  0.42754805908E+01 -0.16557582856E+03  0.16838699924E+03  0.10566000000E+00 0.  1.
        -14    1    4    4    0    0 -0.25699760522E+00  0.55370905863E-01 -0.26887015373E+01  0.27015235818E+01  0.00000000000E+00 0.  1.
<mgrwt>
<rscale>  0 0.81629100E+02</rscale>
<asrwt>0</asrwt>
<pdfrwt beam="1">  1        2 0.40390449E-01 0.81629100E+02</pdfrwt>
<pdfrwt beam="2">  1       -1 0.97616814E-03 0.81629100E+02</pdfrwt>
<totfact> 0.23038152E+05</totfact>
</mgrwt>
</event>
<event>
 8    1  0.2389776E-024  0.7696882E+02  0.7818608E-02  0.1337880E+00
         -1   -1    0    0    0  501 -0.00000000000E+00  0.00000000000E+00  0.71372924045E+01  0.71372941840E+01  0.50400000000E-02 0.  1.
          2   -1    0    0  501    0  0.00000000000E+00 -0.00000000000E+00 -0.20750859630E+03  0.20750859631E+03  0.25500000000E-02 0. -1.
         24    2    1    2    0    0  0.00000000000E+00 -0.17763568394E-14 -0.20037130389E+03  0.21464589050E+03  0.76968817605E+02 0.  0.
         66    2    3    3    0    0  0.33031519130E+02 -0.14403145947E+02 -0.13772123096E+03  0.14237158889E+03  0.19999997065E+01 0.  0.
        -13    1    3    3    0    0 -0.33031519130E+02  0.14403145947E+02 -0.62650072938E+02  0.72274301604E+02  0.10566000000E+00 0.  1.
         13    1    4    4    0    0  0.22800210618E+02 -0.99984302063E+01 -0.93884269632E+02  0.97129220419E+02  0.10566000000E+00 0.  1.
        -13    1    4    4    0    0  0.31321665829E+01 -0.15015841645E+01 -0.11874905381E+02  0.12372944854E+02  0.10566000000E+00 0. -1.
        -14    1    4    4    0    0  0.70991419297E+01 -0.29031315764E+01 -0.31962055942E+02  0.32869423620E+02  0.00000000000E+00 0.  1.
<mgrwt>
<rscale>  0 0.76968818E+02</rscale>
<asrwt>0</asrwt>
<pdfrwt beam="1">  1        2 0.31924395E-01 0.76968818E+02</pdfrwt>
<pdfrwt beam="2">  1       -1 0.10980453E-02 0.76968818E+02</pdfrwt>
<totfact> 0.24734459E+05</totfact>
</mgrwt>
</event>
<event>
 8    1  0.2389776E-024  0.7740357E+02  0.7818608E-02  0.1336585E+00
          2   -1    0    0  501    0  0.00000000000E+00  0.00000000000E+00  0.75992579160E+01  0.75992583438E+01  0.25500000000E-02 0. -1.
         -1   -1    0    0    0  501 -0.00000000000E+00 -0.00000000000E+00 -0.19710188773E+03  0.19710188780E+03  0.50400000000E-02 0.  1.
         24    2    1    2    0    0  0.17763568394E-14  0.71054273576E-14 -0.18950262982E+03  0.20470114614E+03  0.77403569194E+02 0.  0.
         66    2    3    3    0    0 -0.93763305912E+01 -0.37432356719E+02 -0.87955602246E+02  0.96069167067E+02  0.19999974296E+01 0.  0.
        -13    1    3    3    0    0  0.93763305912E+01  0.37432356719E+02 -0.10154702757E+03  0.10863197907E+03  0.10566000000E+00 0.  1.
         13    1    4    4    0    0 -0.10620022348E+01 -0.53321183446E+01 -0.11558480791E+02  0.12773761272E+02  0.10566000000E+00 0.  1.
        -13    1    4    4    0    0 -0.62241346293E+00 -0.42574140713E+01 -0.10086926453E+02  0.10966778123E+02  0.10566000000E+00 0.  1.
         14    1    4    4    0    0 -0.76919148934E+01 -0.27842824303E+02 -0.66310195002E+02  0.72328627673E+02  0.00000000000E+00 0. -1.
<mgrwt>
<rscale>  0 0.77403569E+02</rscale>
<asrwt>0</asrwt>
<pdfrwt beam="1">  1        2 0.11691168E-02 0.77403569E+02</pdfrwt>
<pdfrwt beam="2">  1       -1 0.30323364E-01 0.77403569E+02</pdfrwt>
<totfact> 0.10879877E+05</totfact>
</mgrwt>
</event>
<event>
 8    1  0.2389776E-024  0.7953380E+02  0.7818608E-02  0.1330380E+00
          2   -1    0    0  501    0  0.00000000000E+00  0.00000000000E+00  0.89907368119E+03  0.89907368119E+03  0.25500000000E-02 0. -1.
         -1   -1    0    0    0  501 -0.00000000000E+00 -0.00000000000E+00 -0.17589249954E+01  0.17589322162E+01  0.50400000000E-02 0.  1.
         24    2    1    2    0    0 -0.17763568394E-14 -0.35527136788E-14  0.89731475619E+03  0.90083261341E+03  0.79533802237E+02 0.  0.
         66    2    3    3    0    0 -0.13986657920E+02  0.17092250822E+02  0.82316293024E+03  0.82346158463E+03  0.20000008595E+01 0.  0.
        -13    1    3    3    0    0  0.13986657920E+02 -0.17092250822E+02  0.74151825959E+02  0.77371028783E+02  0.10566000000E+00 0.  1.
         13    1    4    4    0    0 -0.10164161355E+01  0.10667367908E+01  0.40644471230E+02  0.40671307266E+02  0.10566000000E+00 0. -1.
        -13    1    4    4    0    0 -0.12309674861E+01  0.17945457080E+01  0.84108293142E+02  0.84136507026E+02  0.10566000000E+00 0.  1.
         14    1    4    4    0    0 -0.11739274298E+02  0.14230968323E+02  0.69841016586E+03  0.69865377033E+03  0.00000000000E+00 0. -1.
<mgrwt>
<rscale>  0 0.79533802E+02</rscale>
<asrwt>0</asrwt>
<pdfrwt beam="1">  1        2 0.13831901E+00 0.79533802E+02</pdfrwt>
<pdfrwt beam="2">  1       -1 0.27060443E-03 0.79533802E+02</pdfrwt>
<totfact> 0.35476773E+05</totfact>
</mgrwt>
</event>
<event>
 8    1  0.2389776E-024  0.8058310E+02  0.7818608E-02  0.1327405E+00
         -1   -1    0    0    0  501 -0.00000000000E+00  0.00000000000E+00  0.14683032798E+03  0.14683032806E+03  0.50400000000E-02 0.  1.
          2   -1    0    0  501    0  0.00000000000E+00 -0.00000000000E+00 -0.11056359936E+02  0.11056360230E+02  0.25500000000E-02 0. -1.
         24    2    1    2    0    0  0.71054273576E-14  0.71054273576E-14  0.13577396804E+03  0.15788668829E+03  0.80583099609E+02 0.  0.
         66    2    3    3    0    0  0.20291798647E+02  0.32512896950E+02  0.92128925518E+02  0.99802727845E+02  0.20000019874E+01 0.  0.
        -13    1    3    3    0    0 -0.20291798647E+02 -0.32512896950E+02  0.43645042522E+02  0.58083960447E+02  0.10566000000E+00 0.  1.
         13    1    4    4    0    0  0.31432665149E+01  0.49490338894E+01  0.13066857536E+02  0.14322255085E+02  0.10566000000E+00 0. -1.
        -13    1    4    4    0    0  0.89215745599E+01  0.14692069100E+02  0.43758923038E+02  0.47013890464E+02  0.10566000000E+00 0.  1.
        -14    1    4    4    0    0  0.82269575720E+01  0.12871793960E+02  0.35303144944E+02  0.38466582297E+02  0.00000000000E+00 0.  1.
<mgrwt>
<rscale>  0 0.80583100E+02</rscale>
<asrwt>0</asrwt>
<pdfrwt beam="1">  1        2 0.17009786E-02 0.80583100E+02</pdfrwt>
<pdfrwt beam="2">  1       -1 0.22589280E-01 0.80583100E+02</pdfrwt>
<totfact> 0.10648670E+05</totfact>
</mgrwt>
</event>
<event>
 8    1  0.2389776E-024  0.7870176E+02  0.7818608E-02  0.1332777E+00
         -1   -1    0    0    0  501 -0.00000000000E+00  0.00000000000E+00  0.11481215894E+02  0.11481217000E+02  0.50400000000E-02 0.  1.
          2   -1    0    0  501    0  0.00000000000E+00 -0.00000000000E+00 -0.13487175624E+03  0.13487175627E+03  0.25500000000E-02 0. -1.
         24    2    1    2    0    0  0.71054273576E-14 -0.17763568394E-14 -0.12339054035E+03  0.14635297327E+03  0.78701761966E+02 0.  0.
         66    2    3    3    0    0 -0.23762775680E+02  0.13584052497E+02 -0.11424300390E+03  0.11749323354E+03  0.19999991586E+01 0.  0.
        -13    1    3    3    0    0  0.23762775680E+02 -0.13584052497E+02 -0.91475364509E+01  0.28859739732E+02  0.10566000000E+00 0.  1.
         13    1    4    4    0    0 -0.10859433412E+02  0.64178724476E+01 -0.53405058571E+02  0.54874655587E+02  0.10566000000E+00 0. -1.
        -13    1    4    4    0    0 -0.66983463908E+01  0.32035923286E+01 -0.32805931113E+02  0.33635860750E+02  0.10566000000E+00 0.  1.
        -14    1    4    4    0    0 -0.62049958771E+01  0.39625877210E+01 -0.28032014216E+02  0.28982717200E+02  0.00000000000E+00 0.  1.
<mgrwt>
<rscale>  0 0.78701762E+02</rscale>
<asrwt>0</asrwt>
<pdfrwt beam="1">  1        2 0.20749500E-01 0.78701762E+02</pdfrwt>
<pdfrwt beam="2">  1       -1 0.17663411E-02 0.78701762E+02</pdfrwt>
<totfact> 0.20226564E+05</totfact>
</mgrwt>
</event>
<event>
 8    1  0.2389776E-024  0.7979796E+02  0.7818608E-02  0.1329626E+00
         -1   -1    0    0    0  501 -0.00000000000E+00  0.00000000000E+00  0.13658295451E+02  0.13658296381E+02  0.50400000000E-02 0.  1.
          2   -1    0    0  501    0  0.00000000000E+00 -0.00000000000E+00 -0.11655398131E+03  0.11655398134E+03  0.25500000000E-02 0. -1.
         24    2    1    2    0    0 -0.88817841970E-15  0.00000000000E+00 -0.10289568586E+03  0.13021227772E+03  0.79797964263E+02 0.  0.
         66    2    3    3    0    0  0.45413976649E+01 -0.39480022923E+02 -0.56799584938E+02  0.69350481929E+02  0.19999979729E+01 0.  0.
        -13    1    3    3    0    0 -0.45413976649E+01  0.39480022923E+02 -0.46096100924E+02  0.60861795793E+02  0.10566000000E+00 0.  1.
         13    1    4    4    0    0  0.40058211808E+01 -0.34294778437E+02 -0.48760457372E+02  0.59747567302E+02  0.10566000000E+00 0. -1.
        -13    1    4    4    0    0  0.11886900505E+00 -0.20244474313E+01 -0.26103020761E+01  0.33071677016E+01  0.10566000000E+00 0.  1.
        -14    1    4    4    0    0  0.41670747912E+00 -0.31607970544E+01 -0.54288254900E+01  0.62957469250E+01  0.00000000000E+00 0.  1.
<mgrwt>
<rscale>  0 0.79797964E+02</rscale>
<asrwt>0</asrwt>
<pdfrwt beam="1">  1        2 0.17931381E-01 0.79797964E+02</pdfrwt>
<pdfrwt beam="2">  1       -1 0.21012764E-02 0.79797964E+02</pdfrwt>
<totfact> 0.18650655E+05</totfact>
</mgrwt>
</event>
<event>
 8    1  0.2389776E-024  0.7789361E+02  0.7818608E-02  0.1335138E+00
         -1   -1    0    0    0  501 -0.00000000000E+00  0.00000000000E+00  0.24267708806E+01  0.24267761142E+01  0.50400000000E-02 0.  1.
          2   -1    0    0  501    0  0.00000000000E+00 -0.00000000000E+00 -0.62504949760E+03  0.62504949760E+03  0.25500000000E-02 0. -1.
         24    2    1    2    0    0 -0.17763568394E-14  0.00000000000E+00 -0.62262272672E+03  0.62747627372E+03  0.77893608553E+02 0.  0.
         66    2    3    3    0    0  0.15237387434E+02 -0.12764844792E+01 -0.59983753433E+03  0.60003572808E+03  0.19999998832E+01 0.  0.
        -13    1    3    3    0    0 -0.15237387434E+02  0.12764844792E+01 -0.22785192389E+02  0.27440545634E+02  0.10566000000E+00 0.  1.
         13    1    4    4    0    0  0.61338179289E+01 -0.63194878481E+00 -0.26611033476E+03  0.26618178847E+03  0.10566000000E+00 0. -1.
        -13    1    4    4    0    0  0.98136575585E+00 -0.18451412136E+00 -0.50250903549E+02  0.50260935086E+02  0.10566000000E+00 0.  1.
         14    1    4    4    0    0  0.81222037491E+01 -0.46002157300E+00 -0.28347629602E+03  0.28359300453E+03  0.00000000000E+00 0. -1.
<mgrwt>
<rscale>  0 0.77893609E+02</rscale>
<asrwt>0</asrwt>
<pdfrwt beam="1">  1        2 0.96161333E-01 0.77893609E+02</pdfrwt>
<pdfrwt beam="2">  1       -1 0.37335027E-03 0.77893609E+02</pdfrwt>
<totfact> 0.34858536E+05</totfact>
</mgrwt>
</event>
<event>
 8    1  0.2389776E-024  0.8307489E+02  0.7818608E-02  0.1320545E+00
         -1   -1    0    0    0  501 -0.00000000000E+00  0.00000000000E+00  0.15105348825E+02  0.15105349665E+02  0.50400000000E-02 0.  1.
          2   -1    0    0  501    0  0.00000000000E+00 -0.00000000000E+00 -0.11422173234E+03  0.11422173237E+03  0.25500000000E-02 0. -1.
         24    2    1    2    0    0  0.00000000000E+00  0.00000000000E+00 -0.99116383513E+02  0.12932708203E+03  0.83074885893E+02 0.  0.
         66    2    3    3    0    0  0.17931485772E+02 -0.36496490749E+02 -0.36578660535E+02  0.54731438873E+02  0.19999938892E+01 0.  0.
        -13    1    3    3    0    0 -0.17931485772E+02  0.36496490749E+02 -0.62537722978E+02  0.74595643159E+02  0.10566000000E+00 0.  1.
         13    1    4    4    0    0  0.14391832155E+02 -0.28433283323E+02 -0.28152342997E+02  0.42522253157E+02  0.10566000000E+00 0. -1.
        -13    1    4    4    0    0  0.28141687276E+01 -0.57969842411E+01 -0.64184548320E+01  0.90957296785E+01  0.10566000000E+00 0.  1.
        -14    1    4    4    0    0  0.72548488953E+00 -0.22662231846E+01 -0.20078627062E+01  0.31134560370E+01  0.00000000000E+00 0.  1.
<mgrwt>
<rscale>  0 0.83074886E+02</rscale>
<asrwt>0</asrwt>
<pdfrwt beam="1">  1        2 0.17572574E-01 0.83074886E+02</pdfrwt>
<pdfrwt beam="2">  1       -1 0.23239000E-02 0.83074886E+02</pdfrwt>
<totfact> 0.16647361E+05</totfact>
</mgrwt>
</event>
<event>
 8    1  0.2389776E-024  0.7676328E+02  0.7818608E-02  0.1338496E+00
          2   -1    0    0  501    0  0.00000000000E+00  0.00000000000E+00  0.11680753700E+03  0.11680753702E+03  0.25500000000E-02 0. -1.
         -1   -1    0    0    0  501 -0.00000000000E+00 -0.00000000000E+00 -0.12611774116E+02  0.12611775123E+02  0.50400000000E-02 0.  1.
         24    2    1    2    0    0  0.35527136788E-14 -0.35527136788E-14  0.10419576288E+03  0.12941931215E+03  0.76763281291E+02 0.  0.
         66    2    3    3    0    0 -0.25652622419E+02  0.27759337969E+02  0.63125195189E+02  0.73603180287E+02  0.19999997987E+01 0.  0.
        -13    1    3    3    0    0  0.25652622419E+02 -0.27759337969E+02  0.41070567691E+02  0.55816131861E+02  0.10566000000E+00 0.  1.
         13    1    4    4    0    0 -0.15423274028E+02  0.16522089118E+02  0.35907399792E+02  0.42428873830E+02  0.10566000000E+00 0. -1.
        -13    1    4    4    0    0 -0.48205465820E+01  0.54328681592E+01  0.12766635408E+02  0.14688494458E+02  0.10566000000E+00 0.  1.
        -14    1    4    4    0    0 -0.54088018087E+01  0.58043806913E+01  0.14451159990E+02  0.16485811999E+02  0.00000000000E+00 0.  1.
<mgrwt>
<rscale>  0 0.76763281E+02</rscale>
<asrwt>0</asrwt>
<pdfrwt beam="1">  1        2 0.17970389E-01 0.76763281E+02</pdfrwt>
<pdfrwt beam="2">  1       -1 0.19402731E-02 0.76763281E+02</pdfrwt>
<totfact> 0.20691529E+05</totfact>
</mgrwt>
</event>
<event>
 8    1  0.2389776E-024  0.8034265E+02  0.7818608E-02  0.1328082E+00
          2   -1    0    0  501    0  0.00000000000E+00  0.00000000000E+00  0.35422530155E+02  0.35422530247E+02  0.25500000000E-02 0. -1.
         -1   -1    0    0    0  501 -0.00000000000E+00 -0.00000000000E+00 -0.45556748281E+02  0.45556748560E+02  0.50400000000E-02 0.  1.
         24    2    1    2    0    0  0.11102230246E-15  0.71054273576E-14 -0.10134218126E+02  0.80979278807E+02  0.80342648818E+02 0.  0.
         66    2    3    3    0    0  0.82765338150E+00  0.33447701965E+02  0.17293331062E+02  0.37715952589E+02  0.20000009001E+01 0.  0.
        -13    1    3    3    0    0 -0.82765338150E+00 -0.33447701965E+02 -0.27427549189E+02  0.43263326218E+02  0.10566000000E+00 0.  1.
         13    1    4    4    0    0  0.39180396296E+00  0.72491476695E+01  0.33703592764E+01  0.80046322818E+01  0.10566000000E+00 0. -1.
        -13    1    4    4    0    0  0.12624824599E+00  0.22648144410E+01  0.75779408195E+00  0.23938961920E+01  0.10566000000E+00 0.  1.
         14    1    4    4    0    0  0.30960117255E+00  0.23933739855E+02  0.13165177704E+02  0.27317424115E+02  0.00000000000E+00 0. -1.
<mgrwt>
<rscale>  0 0.80342649E+02</rscale>
<asrwt>0</asrwt>
<pdfrwt beam="1">  1        2 0.54496200E-02 0.80342649E+02</pdfrwt>
<pdfrwt beam="2">  1       -1 0.70087306E-02 0.80342649E+02</pdfrwt>
<totfact> 0.13743173E+05</totfact>
</mgrwt>
</event>
<event>
 8    1  0.2389776E-024  0.8092050E+02  0.7818608E-02  0.1326459E+00
         -1   -1    0    0    0  501 -0.00000000000E+00  0.00000000000E+00  0.26454292487E+02  0.26454292967E+02  0.50400000000E-02 0.  1.
          2   -1    0    0  501    0  0.00000000000E+00 -0.00000000000E+00 -0.61881512899E+02  0.61881512951E+02  0.25500000000E-02 0. -1.
         24    2    1    2    0    0  0.00000000000E+00 -0.17763568394E-14 -0.35427220411E+02  0.88335805918E+02  0.80920495927E+02 0.  0.
         66    2    3    3    0    0  0.35611994285E+02  0.13844987757E+02 -0.32780845757E+01  0.38401089318E+02  0.19999998579E+01 0.  0.
        -13    1    3    3    0    0 -0.35611994285E+02 -0.13844987757E+02 -0.32149135836E+02  0.49934716600E+02  0.10566000000E+00 0.  1.
         13    1    4    4    0    0  0.27913199007E+02  0.11397041720E+02 -0.27406642757E+01  0.30274769090E+02  0.10566000000E+00 0. -1.
        -13    1    4    4    0    0  0.91422819381E+00  0.42323105847E+00 -0.23365424709E+00  0.10395653236E+01  0.10566000000E+00 0.  1.
         14    1    4    4    0    0  0.67845670838E+01  0.20247149783E+01 -0.30376605287E+00  0.70867549042E+01  0.00000000000E+00 0. -1.
<mgrwt>
<rscale>  0 0.80920496E+02</rscale>
<asrwt>0</asrwt>
<pdfrwt beam="1">  1        2 0.95202327E-02 0.80920496E+02</pdfrwt>
<pdfrwt beam="2">  1       -1 0.40698912E-02 0.80920496E+02</pdfrwt>
<totfact> 0.15197855E+05</totfact>
</mgrwt>
</event>
<event>
 8    1  0.2389776E-024  0.8019916E+02  0.7818608E-02  0.1328487E+00
          2   -1    0    0  501    0  0.00000000000E+00  0.00000000000E+00  0.20810598151E+03  0.20810598153E+03  0.25500000000E-02 0. -1.
         -1   -1    0    0    0  501 -0.00000000000E+00 -0.00000000000E+00 -0.77267171873E+01  0.77267188310E+01  0.50400000000E-02 0.  1.
         24    2    1    2    0    0  0.00000000000E+00  0.00000000000E+00  0.20037926432E+03  0.21583270036E+03  0.80199158180E+02 0.  0.
         66    2    3    3    0    0 -0.29307991433E+02 -0.18425562872E+02  0.15457897527E+03  0.15842070361E+03  0.20000020616E+01 0.  0.
        -13    1    3    3    0    0  0.29307991433E+02  0.18425562872E+02  0.45800289054E+02  0.57411996747E+02  0.10566000000E+00 0.  1.
         13    1    4    4    0    0 -0.10363498065E+02 -0.73136275048E+01  0.57840127524E+02  0.59214717389E+02  0.10566000000E+00 0. -1.
        -13    1    4    4    0    0 -0.16087719368E+02 -0.95947709718E+01  0.80919198410E+02  0.83059028286E+02  0.10566000000E+00 0.  1.
        -14    1    4    4    0    0 -0.28567739994E+01 -0.15171643951E+01  0.15819649337E+02  0.16146957937E+02  0.00000000000E+00 0.  1.
<mgrwt>
<rscale>  0 0.80199158E+02</rscale>
<asrwt>0</asrwt>
<pdfrwt beam="1">  1        2 0.32016310E-01 0.80199158E+02</pdfrwt>
<pdfrwt beam="2">  1       -1 0.11887257E-02 0.80199158E+02</pdfrwt>
<totfact> 0.22219966E+05</totfact>
</mgrwt>
</event>
<event>
 8    1  0.2389776E-024  0.7978430E+02  0.7818608E-02  0.1329665E+00
         -1   -1    0    0    0  501 -0.00000000000E+00  0.00000000000E+00  0.33330079846E+02  0.33330080227E+02  0.50400000000E-02 0.  1.
          2   -1    0    0  501    0  0.00000000000E+00 -0.00000000000E+00 -0.47746165418E+02  0.47746165486E+02  0.25500000000E-02 0. -1.
         24    2    1    2    0    0 -0.17763568394E-14 -0.71054273576E-14 -0.14416085572E+02  0.81076245713E+02  0.79784297300E+02 0.  0.
         66    2    3    3    0    0 -0.14851986457E+02 -0.35782008340E+02 -0.16769364290E+02  0.42262811089E+02  0.19999999650E+01 0.  0.
        -13    1    3    3    0    0  0.14851986457E+02  0.35782008340E+02  0.23532787179E+01  0.38813434624E+02  0.10566000000E+00 0.  1.
         13    1    4    4    0    0 -0.24410156827E+01 -0.59069948336E+01 -0.26163238242E+01  0.69070587022E+01  0.10566000000E+00 0. -1.
        -13    1    4    4    0    0 -0.76107588707E+00 -0.30075418559E+01 -0.10918088615E+01  0.32905554465E+01  0.10566000000E+00 0.  1.
        -14    1    4    4    0    0 -0.11649894887E+02 -0.26867471651E+02 -0.13061231604E+02  0.32065196940E+02  0.00000000000E+00 0.  1.
<mgrwt>
<rscale>  0 0.79784297E+02</rscale>
<asrwt>0</asrwt>
<pdfrwt beam="1">  1        2 0.73455639E-02 0.79784297E+02</pdfrwt>
<pdfrwt beam="2">  1       -1 0.51277046E-02 0.79784297E+02</pdfrwt>
<totfact> 0.14904727E+05</totfact>
</mgrwt>
</event>
<event>
 8    1  0.2389776E-024  0.8114909E+02  0.7818608E-02  0.1325822E+00
         -1   -1    0    0    0  501 -0.00000000000E+00  0.00000000000E+00  0.32153737928E+01  0.32153777428E+01  0.50400000000E-02 0.  1.
          2   -1    0    0  501    0  0.00000000000E+00 -0.00000000000E+00 -0.51200657785E+03  0.51200657786E+03  0.25500000000E-02 0. -1.
         24    2    1    2    0    0  0.00000000000E+00 -0.35527136788E-14 -0.50879120406E+03  0.51522195560E+03  0.81149086288E+02 0.  0.
         66    2    3    3    0    0 -0.17146336887E+02 -0.28418998893E+02 -0.40245083474E+03  0.40382212760E+03  0.19999983799E+01 0.  0.
        -13    1    3    3    0    0  0.17146336887E+02  0.28418998893E+02 -0.10634036932E+03  0.11139982800E+03  0.10566000000E+00 0.  1.
         13    1    4    4    0    0 -0.12837855416E+02 -0.19958993687E+02 -0.28448393678E+03  0.28547205364E+03  0.10566000000E+00 0. -1.
        -13    1    4    4    0    0 -0.62080642389E+00 -0.16509458832E+01 -0.20417943965E+02  0.20494258286E+02  0.10566000000E+00 0.  1.
         14    1    4    4    0    0 -0.36876750478E+01 -0.68090593227E+01 -0.97548953990E+02  0.97855815671E+02  0.00000000000E+00 0. -1.
<mgrwt>
<rscale>  0 0.81149086E+02</rscale>
<asrwt>0</asrwt>
<pdfrwt beam="1">  1        2 0.78770178E-01 0.81149086E+02</pdfrwt>
<pdfrwt beam="2">  1       -1 0.49467360E-03 0.81149086E+02</pdfrwt>
<totfact> 0.29560897E+05</totfact>
</mgrwt>
</event>
<event>
 8    1  0.2389776E-024  0.7889054E+02  0.7818608E-02  0.1332230E+00
          2   -1    0    0  501    0  0.00000000000E+00  0.00000000000E+00  0.28414234079E+03  0.28414234080E+03  0.25500000000E-02 0. -1.
         -1   -1    0    0    0  501 -0.00000000000E+00 -0.00000000000E+00 -0.54758787318E+01  0.54758810513E+01  0.50400000000E-02 0.  1.
         24    2    1    2    0    0 -0.35527136788E-14  0.00000000000E+00  0.27866646206E+03  0.28961822185E+03  0.78890540327E+02 0.  0.
         66    2    3    3    0    0  0.25915350250E+02 -0.26504356276E+02  0.18865388921E+03  0.19227162091E+03  0.20000033409E+01 0.  0.
        -13    1    3    3    0    0 -0.25915350250E+02  0.26504356276E+02  0.90012572845E+02  0.97346600939E+02  0.10566000000E+00 0.  1.
         13    1    4    4    0    0  0.82845381913E+01 -0.77287915084E+01  0.57727944664E+02  0.58829368094E+02  0.10566000000E+00 0.  1.
        -13    1    4    4    0    0  0.88637703356E+01 -0.84542904096E+01  0.62527928069E+02  0.63716515940E+02  0.10566000000E+00 0. -1.
        -14    1    4    4    0    0  0.87670417228E+01 -0.10321274358E+02  0.68398016480E+02  0.69725736879E+02  0.00000000000E+00 0.  1.
<mgrwt>
<rscale>  0 0.78890540E+02</rscale>
<asrwt>0</asrwt>
<pdfrwt beam="1">  1        2 0.43714207E-01 0.78890540E+02</pdfrwt>
<pdfrwt beam="2">  1       -1 0.84244306E-03 0.78890540E+02</pdfrwt>
<totfact> 0.25930132E+05</totfact>
</mgrwt>
</event>
<event>
 8    1  0.2389776E-024  0.8122240E+02  0.7818608E-02  0.1325618E+00
         -1   -1    0    0    0  501 -0.00000000000E+00  0.00000000000E+00  0.35617065944E+01  0.35617101603E+01  0.50400000000E-02 0.  1.
          2   -1    0    0  501    0  0.00000000000E+00 -0.00000000000E+00 -0.46305572575E+03  0.46305572575E+03  0.25500000000E-02 0. -1.
         24    2    1    2    0    0  0.00000000000E+00  0.00000000000E+00 -0.45949401915E+03  0.46661743591E+03  0.81222397541E+02 0.  0.
         66    2    3    3    0    0  0.18082186330E+02  0.99468546836E+01 -0.43065963381E+03  0.43115846917E+03  0.19999904349E+01 0.  0.
        -13    1    3    3    0    0 -0.18082186330E+02 -0.99468546836E+01 -0.28834385341E+02  0.35458966745E+02  0.10566000000E+00 0.  1.
         13    1    4    4    0    0  0.59825881715E+01  0.25219254118E+01 -0.12761497029E+03  0.12778005821E+03  0.10566000000E+00 0.  1.
        -13    1    4    4    0    0  0.10043055666E+02  0.58034733077E+01 -0.25102497868E+03  0.25129284581E+03  0.10566000000E+00 0. -1.
        -14    1    4    4    0    0  0.20565424915E+01  0.16214559641E+01 -0.52019684838E+02  0.52085565151E+02  0.00000000000E+00 0.  1.
<mgrwt>
<rscale>  0 0.81222398E+02</rscale>
<asrwt>0</asrwt>
<pdfrwt beam="1">  1        2 0.71239295E-01 0.81222398E+02</pdfrwt>
<pdfrwt beam="2">  1       -1 0.54795551E-03 0.81222398E+02</pdfrwt>
<totfact> 0.28547890E+05</totfact>
</mgrwt>
</event>
<event>
 8    1  0.2389776E-024  0.7161270E+02  0.7818608E-02  0.1354693E+00
          2   -1    0    0  501    0  0.00000000000E+00  0.00000000000E+00  0.98969480981E+02  0.98969481013E+02  0.25500000000E-02 0. -1.
         -1   -1    0    0    0  501 -0.00000000000E+00 -0.00000000000E+00 -0.12954444920E+02  0.12954445901E+02  0.50400000000E-02 0.  1.
         24    2    1    2    0    0 -0.35527136788E-14 -0.22204460493E-15  0.86015036060E+02  0.11192392691E+03  0.71612701299E+02 0.  0.
         66    2    3    3    0    0  0.25793935822E+02 -0.18947805843E+01  0.81678985985E+02  0.85699323715E+02  0.20000037685E+01 0.  0.
        -13    1    3    3    0    0 -0.25793935822E+02  0.18947805843E+01  0.43360500759E+01  0.26224603199E+02  0.10566000000E+00 0.  1.
         13    1    4    4    0    0  0.10595100353E+02 -0.15850783067E+01  0.33856960791E+02  0.35511597863E+02  0.10566000000E+00 0. -1.
        -13    1    4    4    0    0  0.88778643678E+01  0.20824302909E+00  0.27335548616E+02  0.28742011465E+02  0.10566000000E+00 0.  1.
         14    1    4    4    0    0  0.63209711014E+01 -0.51794530664E+00  0.20486476578E+02  0.21445714387E+02  0.00000000000E+00 0. -1.
<mgrwt>
<rscale>  0 0.71612701E+02</rscale>
<asrwt>0</asrwt>
<pdfrwt beam="1">  1        2 0.15226074E-01 0.71612701E+02</pdfrwt>
<pdfrwt beam="2">  1       -1 0.19929916E-02 0.71612701E+02</pdfrwt>
<totfact> 0.23728938E+05</totfact>
</mgrwt>
</event>
<event>
 8    1  0.2389776E-024  0.8051937E+02  0.7818608E-02  0.1327584E+00
          2   -1    0    0  501    0  0.00000000000E+00  0.00000000000E+00  0.19221436510E+04  0.19221436510E+04  0.25500000000E-02 0. -1.
         -1   -1    0    0    0  501 -0.00000000000E+00 -0.00000000000E+00 -0.84323956883E+00  0.84325463061E+00  0.50400000000E-02 0.  1.
         24    2    1    2    0    0  0.00000000000E+00  0.00000000000E+00  0.19213004114E+04  0.19229869056E+04  0.80519365792E+02 0.  0.
         66    2    3    3    0    0  0.21799978137E+01 -0.18857123021E+02  0.18084715590E+04  0.18085722887E+04  0.20000003178E+01 0.  0.
        -13    1    3    3    0    0 -0.21799978137E+01  0.18857123021E+02  0.11282885236E+03  0.11441461693E+03  0.10566000000E+00 0.  1.
         13    1    4    4    0    0  0.12604620103E+01 -0.12036862391E+02  0.11395489989E+04  0.11396132707E+04  0.10566000000E+00 0. -1.
        -13    1    4    4    0    0 -0.16625775343E+00 -0.84377419816E+00  0.11135535322E+03  0.11135872418E+03  0.10566000000E+00 0.  1.
        -14    1    4    4    0    0  0.10857935568E+01 -0.59764864317E+01  0.55756720694E+03  0.55760029375E+03  0.00000000000E+00 0.  1.
<mgrwt>
<rscale>  0 0.80519366E+02</rscale>
<asrwt>0</asrwt>
<pdfrwt beam="1">  1        2 0.29571147E+00 0.80519366E+02</pdfrwt>
<pdfrwt beam="2">  1       -1 0.12973161E-03 0.80519366E+02</pdfrwt>
<totfact> 0.28267170E+05</totfact>
</mgrwt>
</event>
<event>
 8    1  0.2389776E-024  0.7951566E+02  0.7818608E-02  0.1330432E+00
         -1   -1    0    0    0  501 -0.00000000000E+00  0.00000000000E+00  0.10783295542E+01  0.10783413324E+01  0.50400000000E-02 0.  1.
          2   -1    0    0  501    0  0.00000000000E+00 -0.00000000000E+00 -0.14658565726E+04  0.14658565726E+04  0.25500000000E-02 0. -1.
         24    2    1    2    0    0 -0.35527136788E-14 -0.17763568394E-14 -0.14647782430E+04  0.14669349139E+04  0.79515661475E+02 0.  0.
         66    2    3    3    0    0 -0.17228136804E+02 -0.14981493277E+02 -0.13327571928E+04  0.13329542335E+04  0.19999993469E+01 0.  0.
        -13    1    3    3    0    0  0.17228136804E+02  0.14981493277E+02 -0.13202105025E+03  0.13398068037E+03  0.10566000000E+00 0.  1.
         13    1    4    4    0    0 -0.55715797032E+01 -0.43383448178E+01 -0.43125592751E+03  0.43131374881E+03  0.10566000000E+00 0. -1.
        -13    1    4    4    0    0 -0.10392162431E+01 -0.10859311370E+01 -0.10997600391E+03  0.10998632560E+03  0.10566000000E+00 0.  1.
         14    1    4    4    0    0 -0.10617340857E+02 -0.95572173223E+01 -0.79152526135E+03  0.79165415914E+03  0.00000000000E+00 0. -1.
<mgrwt>
<rscale>  0 0.79515661E+02</rscale>
<asrwt>0</asrwt>
<pdfrwt beam="1">  1        2 0.22551480E+00 0.79515661E+02</pdfrwt>
<pdfrwt beam="2">  1       -1 0.16589893E-03 0.79515661E+02</pdfrwt>
<totfact> 0.34061613E+05</totfact>
</mgrwt>
</event>
<event>
 8    1  0.2389776E-024  0.8184800E+02  0.7818608E-02  0.1323887E+00
          2   -1    0    0  501    0  0.00000000000E+00  0.00000000000E+00  0.12184853197E+02  0.12184853464E+02  0.25500000000E-02 0. -1.
         -1   -1    0    0    0  501 -0.00000000000E+00 -0.00000000000E+00 -0.13744719437E+03  0.13744719446E+03  0.50400000000E-02 0.  1.
         24    2    1    2    0    0 -0.35527136788E-14  0.17763568394E-14 -0.12526234117E+03  0.14963204793E+03  0.81848003340E+02 0.  0.
         66    2    3    3    0    0  0.19941659950E+02 -0.14648693160E+02 -0.31331117092E+01  0.25021398838E+02  0.19999994859E+01 0.  0.
        -13    1    3    3    0    0 -0.19941659950E+02  0.14648693160E+02 -0.12212922946E+03  0.12461064909E+03  0.10566000000E+00 0.  1.
         13    1    4    4    0    0  0.18473482379E+02 -0.13801965251E+02 -0.26793439044E+01  0.23215379467E+02  0.10566000000E+00 0. -1.
        -13    1    4    4    0    0  0.13136279600E+01 -0.59693087692E+00 -0.43904422461E+00  0.15119089774E+01  0.10566000000E+00 0.  1.
         14    1    4    4    0    0  0.15454961101E+00 -0.24979703266E+00 -0.14723580190E-01  0.29411039356E+00  0.00000000000E+00 0. -1.
<mgrwt>
<rscale>  0 0.81848003E+02</rscale>
<asrwt>0</asrwt>
<pdfrwt beam="1">  1        2 0.18745929E-02 0.81848003E+02</pdfrwt>
<pdfrwt beam="2">  1       -1 0.21145721E-01 0.81848003E+02</pdfrwt>
<totfact> 0.10408009E+05</totfact>
</mgrwt>
</event>
<event>
 8    1  0.2389776E-024  0.7971098E+02  0.7818608E-02  0.1329874E+00
         -1   -1    0    0    0  501 -0.00000000000E+00  0.00000000000E+00  0.18649087313E+01  0.18649155417E+01  0.50400000000E-02 0.  1.
          2   -1    0    0  501    0  0.00000000000E+00 -0.00000000000E+00 -0.85176127400E+03  0.85176127401E+03  0.25500000000E-02 0. -1.
         24    2    1    2    0    0  0.00000000000E+00  0.88817841970E-15 -0.84989636527E+03  0.85362618955E+03  0.79710976541E+02 0.  0.
         66    2    3    3    0    0 -0.32892182587E+02  0.52502571068E+01 -0.65910197397E+03  0.65994611367E+03  0.19999964408E+01 0.  0.
        -13    1    3    3    0    0  0.32892182587E+02 -0.52502571068E+01 -0.19079439131E+03  0.19368007588E+03  0.10566000000E+00 0.  1.
         13    1    4    4    0    0 -0.18847515682E+02  0.36364282639E+01 -0.38348695799E+03  0.38396706964E+03  0.10566000000E+00 0. -1.
        -13    1    4    4    0    0 -0.46295536926E+01  0.83894906169E-01 -0.90601590703E+02  0.90719894222E+02  0.10566000000E+00 0.  1.
        -14    1    4    4    0    0 -0.94151132122E+01  0.15299339367E+01 -0.18501342528E+03  0.18525914981E+03  0.00000000000E+00 0.  1.
<mgrwt>
<rscale>  0 0.79710977E+02</rscale>
<asrwt>0</asrwt>
<pdfrwt beam="1">  1        2 0.13103989E+00 0.79710977E+02</pdfrwt>
<pdfrwt beam="2">  1       -1 0.28691024E-03 0.79710977E+02</pdfrwt>
<totfact> 0.35033134E+05</totfact>
</mgrwt>
</event>
<event>
 8    1  0.2389776E-024  0.7947931E+02  0.7818608E-02  0.1330536E+00
          2   -1    0    0  501    0  0.00000000000E+00  0.00000000000E+00  0.73039691274E+02  0.73039691319E+02  0.25500000000E-02 0. -1.
         -1   -1    0    0    0  501 -0.00000000000E+00 -0.00000000000E+00 -0.21621668325E+02  0.21621668913E+02  0.50400000000E-02 0.  1.
         24    2    1    2    0    0  0.00000000000E+00  0.00000000000E+00  0.51418022949E+02  0.94661360232E+02  0.79479305715E+02 0.  0.
         66    2    3    3    0    0 -0.50515602746E+01  0.88663509349E+01  0.71437797808E+02  0.72190646190E+02  0.20000003698E+01 0.  0.
        -13    1    3    3    0    0  0.50515602746E+01 -0.88663509349E+01 -0.20019774859E+02  0.22470714042E+02  0.10566000000E+00 0.  1.
         13    1    4    4    0    0 -0.17003532353E+01  0.31238982248E+01  0.24153455850E+02  0.24414146202E+02  0.10566000000E+00 0. -1.
        -13    1    4    4    0    0 -0.22606310921E+01  0.25042968070E+01  0.20683151784E+02  0.20956762326E+02  0.10566000000E+00 0.  1.
         14    1    4    4    0    0 -0.10905759472E+01  0.32381559031E+01  0.26601190175E+02  0.26819737662E+02  0.00000000000E+00 0. -1.
<mgrwt>
<rscale>  0 0.79479306E+02</rscale>
<asrwt>0</asrwt>
<pdfrwt beam="1">  1        2 0.11236876E-01 0.79479306E+02</pdfrwt>
<pdfrwt beam="2">  1       -1 0.33264106E-02 0.79479306E+02</pdfrwt>
<totfact> 0.16606804E+05</totfact>
</mgrwt>
</event>
<event>
 8    1  0.2389776E-024  0.7897836E+02  0.7818608E-02  0.1331976E+00
          2   -1    0    0  501    0  0.00000000000E+00  0.00000000000E+00  0.65572838285E+03  0.65572838285E+03  0.25500000000E-02 0. -1.
         -1   -1    0    0    0  501 -0.00000000000E+00 -0.00000000000E+00 -0.23781090604E+01  0.23781144011E+01  0.50400000000E-02 0.  1.
         24    2    1    2    0    0  0.00000000000E+00 -0.44408920985E-15  0.65335027379E+03  0.65810649725E+03  0.78978360768E+02 0.  0.
         66    2    3    3    0    0 -0.28586589906E+02  0.38976910127E+01  0.55125087217E+03  0.55200897564E+03  0.20000005974E+01 0.  0.
        -13    1    3    3    0    0  0.28586589906E+02 -0.38976910127E+01  0.10209940162E+03  0.10609752161E+03  0.10566000000E+00 0.  1.
         13    1    4    4    0    0 -0.17998513363E+02  0.22417329235E+01  0.33755100065E+03  0.33803795800E+03  0.10566000000E+00 0. -1.
        -13    1    4    4    0    0 -0.33538708991E+01  0.96374043912E+00  0.65080224291E+02  0.65173798443E+02  0.10566000000E+00 0.  1.
         14    1    4    4    0    0 -0.72342056437E+01  0.69221765010E+00  0.14861964723E+03  0.14879721919E+03  0.00000000000E+00 0. -1.
<mgrwt>
<rscale>  0 0.78978361E+02</rscale>
<asrwt>0</asrwt>
<pdfrwt beam="1">  1        2 0.10088142E+00 0.78978361E+02</pdfrwt>
<pdfrwt beam="2">  1       -1 0.36586288E-03 0.78978361E+02</pdfrwt>
<totfact> 0.34048902E+05</totfact>
</mgrwt>
</event>
<event>
 8    1  0.2389776E-024  0.7908709E+02  0.7818608E-02  0.1331662E+00
          2   -1    0    0  501    0  0.00000000000E+00  0.00000000000E+00  0.35504362227E+03  0.35504362228E+03  0.25500000000E-02 0. -1.
         -1   -1    0    0    0  501 -0.00000000000E+00 -0.00000000000E+00 -0.44042230019E+01  0.44042258857E+01  0.50400000000E-02 0.  1.
         24    2    1    2    0    0  0.17763568394E-14  0.00000000000E+00  0.35063939927E+03  0.35944784817E+03  0.79087086375E+02 0.  0.
         66    2    3    3    0    0 -0.11352290098E+02 -0.27059539161E+02  0.29573089699E+03  0.29718993351E+03  0.19999996744E+01 0.  0.
        -13    1    3    3    0    0  0.11352290098E+02  0.27059539161E+02  0.54908502285E+02  0.62257914656E+02  0.10566000000E+00 0.  1.
         13    1    4    4    0    0 -0.94013970063E+01 -0.23078276277E+02  0.24859774587E+03  0.24984363813E+03  0.10566000000E+00 0. -1.
        -13    1    4    4    0    0 -0.80606063126E+00 -0.23997709871E+01  0.27206261326E+02  0.27323990447E+02  0.10566000000E+00 0.  1.
         14    1    4    4    0    0 -0.11448324600E+01 -0.15814918970E+01  0.19926889794E+02  0.20022304933E+02  0.00000000000E+00 0. -1.
<mgrwt>
<rscale>  0 0.79087086E+02</rscale>
<asrwt>0</asrwt>
<pdfrwt beam="1">  1        2 0.54622138E-01 0.79087086E+02</pdfrwt>
<pdfrwt beam="2">  1       -1 0.67757247E-03 0.79087086E+02</pdfrwt>
<totfact> 0.27912611E+05</totfact>
</mgrwt>
</event>
<event>
 8    1  0.2389776E-024  0.7721713E+02  0.7818608E-02  0.1337140E+00
          2   -1    0    0  501    0  0.00000000000E+00  0.00000000000E+00  0.79479555826E+01  0.79479559917E+01  0.25500000000E-02 0. -1.
         -1   -1    0    0    0  501 -0.00000000000E+00 -0.00000000000E+00 -0.18754777461E+03  0.18754777468E+03  0.50400000000E-02 0.  1.
         24    2    1    2    0    0  0.00000000000E+00 -0.35527136788E-14 -0.17959981903E+03  0.19549573067E+03  0.77217133561E+02 0.  0.
         66    2    3    3    0    0 -0.18527437413E+02  0.27085910047E+02 -0.38489203335E+02  0.50619474901E+02  0.20000014445E+01 0.  0.
        -13    1    3    3    0    0  0.18527437413E+02 -0.27085910047E+02 -0.14111061570E+03  0.14487625577E+03  0.10566000000E+00 0.  1.
         13    1    4    4    0    0 -0.11201326129E+02  0.15458151771E+02 -0.21723189751E+02  0.28919410440E+02  0.10566000000E+00 0. -1.
        -13    1    4    4    0    0 -0.49028054097E+01  0.70760034660E+01 -0.10896445922E+02  0.13887081180E+02  0.10566000000E+00 0.  1.
        -14    1    4    4    0    0 -0.24233058736E+01  0.45517548105E+01 -0.58695676623E+01  0.78129832813E+01  0.00000000000E+00 0.  1.
<mgrwt>
<rscale>  0 0.77217134E+02</rscale>
<asrwt>0</asrwt>
<pdfrwt beam="1">  1        2 0.12227626E-02 0.77217134E+02</pdfrwt>
<pdfrwt beam="2">  1       -1 0.28853501E-01 0.77217134E+02</pdfrwt>
<totfact> 0.11107371E+05</totfact>
</mgrwt>
</event>
<event>
 8    1  0.2389776E-024  0.8278438E+02  0.7818608E-02  0.1321330E+00
          2   -1    0    0  501    0  0.00000000000E+00  0.00000000000E+00  0.27289918794E+02  0.27289918913E+02  0.25500000000E-02 0. -1.
         -1   -1    0    0    0  501 -0.00000000000E+00 -0.00000000000E+00 -0.62781912245E+02  0.62781912448E+02  0.50400000000E-02 0.  1.
         24    2    1    2    0    0  0.00000000000E+00  0.00000000000E+00 -0.35491993451E+02  0.90071831361E+02  0.82784377786E+02 0.  0.
         66    2    3    3    0    0  0.32439601260E+01  0.37703762883E+02  0.42422752694E+00  0.37898245071E+02  0.19999994041E+01 0.  0.
        -13    1    3    3    0    0 -0.32439601260E+01 -0.37703762883E+02 -0.35916220978E+02  0.52173586289E+02  0.10566000000E+00 0.  1.
         13    1    4    4    0    0  0.43570949880E+00  0.74145358204E+01  0.53107334793E+00  0.74470388166E+01  0.10566000000E+00 0. -1.
        -13    1    4    4    0    0  0.11987427483E+01  0.12495503884E+02  0.63583049971E+00  0.12569409133E+02  0.10566000000E+00 0.  1.
        -14    1    4    4    0    0  0.16095078788E+01  0.17793723179E+02 -0.74267632070E+00  0.17881797122E+02  0.00000000000E+00 0.  1.
<mgrwt>
<rscale>  0 0.82784378E+02</rscale>
<asrwt>0</asrwt>
<pdfrwt beam="1">  1        2 0.41984491E-02 0.82784378E+02</pdfrwt>
<pdfrwt beam="2">  1       -1 0.96587558E-02 0.82784378E+02</pdfrwt>
<totfact> 0.11989412E+05</totfact>
</mgrwt>
</event>
<event>
 8    1  0.2389776E-024  0.7977460E+02  0.7818608E-02  0.1329692E+00
         -1   -1    0    0    0  501 -0.00000000000E+00  0.00000000000E+00  0.16656448584E+02  0.16656449346E+02  0.50400000000E-02 0.  1.
          2   -1    0    0  501    0  0.00000000000E+00 -0.00000000000E+00 -0.95518358044E+02  0.95518358078E+02  0.25500000000E-02 0. -1.
         24    2    1    2    0    0  0.00000000000E+00  0.35527136788E-14 -0.78861909460E+02  0.11217480742E+03  0.79774599071E+02 0.  0.
         66    2    3    3    0    0 -0.26316102827E+02 -0.19160739529E+02 -0.71806844422E+02  0.78866305296E+02  0.19999994729E+01 0.  0.
        -13    1    3    3    0    0  0.26316102827E+02  0.19160739529E+02 -0.70550650376E+01  0.33308502128E+02  0.10566000000E+00 0.  1.
         13    1    4    4    0    0 -0.65447384479E+01 -0.55896203405E+01 -0.19411245717E+02  0.21234054753E+02  0.10566000000E+00 0. -1.
        -13    1    4    4    0    0 -0.37358884644E+01 -0.21033669078E+01 -0.91629172085E+01  0.10116878509E+02  0.10566000000E+00 0.  1.
         14    1    4    4    0    0 -0.16035475915E+02 -0.11467752281E+02 -0.43232681497E+02  0.47515372034E+02  0.00000000000E+00 0. -1.
<mgrwt>
<rscale>  0 0.79774599E+02</rscale>
<asrwt>0</asrwt>
<pdfrwt beam="1">  1        2 0.14695132E-01 0.79774599E+02</pdfrwt>
<pdfrwt beam="2">  1       -1 0.25625307E-02 0.79774599E+02</pdfrwt>
<totfact> 0.17634664E+05</totfact>
</mgrwt>
</event>
<event>
 8    1  0.2389776E-024  0.7884968E+02  0.7818608E-02  0.1332348E+00
          2   -1    0    0  501    0  0.00000000000E+00  0.00000000000E+00  0.45020613782E+01  0.45020621004E+01  0.25500000000E-02 0. -1.
         -1   -1    0    0    0  501 -0.00000000000E+00 -0.00000000000E+00 -0.34524586237E+03  0.34524586241E+03  0.50400000000E-02 0.  1.
         24    2    1    2    0    0  0.71054273576E-14  0.00000000000E+00 -0.34074380100E+03  0.34974792451E+03  0.78849684735E+02 0.  0.
         66    2    3    3    0    0  0.39308453936E+02  0.26754670078E+01 -0.17058801488E+03  0.17509021529E+03  0.19999995375E+01 0.  0.
        -13    1    3    3    0    0 -0.39308453936E+02 -0.26754670078E+01 -0.17015578612E+03  0.17465770922E+03  0.10566000000E+00 0.  1.
         13    1    4    4    0    0  0.25999294849E+02  0.18994177880E+01 -0.10924033307E+03  0.11230775866E+03  0.10566000000E+00 0. -1.
        -13    1    4    4    0    0  0.26884366435E+01  0.30641126569E+00 -0.13251188722E+02  0.13525041443E+02  0.10566000000E+00 0.  1.
         14    1    4    4    0    0  0.10620722444E+02  0.46963795412E+00 -0.48096493079E+02  0.49257415194E+02  0.00000000000E+00 0. -1.
<mgrwt>
<rscale>  0 0.78849685E+02</rscale>
<asrwt>0</asrwt>
<pdfrwt beam="1">  1        2 0.69262516E-03 0.78849685E+02</pdfrwt>
<pdfrwt beam="2">  1       -1 0.53114727E-01 0.78849685E+02</pdfrwt>
<totfact> 0.84465118E+04</totfact>
</mgrwt>
</event>
<event>
 8    1  0.2389776E-024  0.7950095E+02  0.7818608E-02  0.1330474E+00
         -1   -1    0    0    0  501 -0.00000000000E+00  0.00000000000E+00  0.12510731893E+01  0.12510833411E+01  0.50400000000E-02 0.  1.
          2   -1    0    0  501    0  0.00000000000E+00 -0.00000000000E+00 -0.12629905935E+04  0.12629905935E+04  0.25500000000E-02 0. -1.
         24    2    1    2    0    0  0.00000000000E+00  0.44408920985E-15 -0.12617395203E+04  0.12642416769E+04  0.79500945622E+02 0.  0.
         66    2    3    3    0    0  0.20241384428E+02  0.30694678055E+01 -0.11726351883E+04  0.11728155951E+04  0.19999987789E+01 0.  0.
        -13    1    3    3    0    0 -0.20241384428E+02 -0.30694678055E+01 -0.89104332086E+02  0.91426081818E+02  0.10566000000E+00 0.  1.
         13    1    4    4    0    0  0.82556983882E+01  0.70744462018E+00 -0.47536755656E+03  0.47543977750E+03  0.10566000000E+00 0. -1.
        -13    1    4    4    0    0  0.60441879768E+01  0.93179125089E+00 -0.31563481387E+03  0.31569407238E+03  0.10566000000E+00 0.  1.
        -14    1    4    4    0    0  0.59414980631E+01  0.14302319344E+01 -0.38163281783E+03  0.38168174518E+03  0.00000000000E+00 0.  1.
<mgrwt>
<rscale>  0 0.79500946E+02</rscale>
<asrwt>0</asrwt>
<pdfrwt beam="1">  1        2 0.19430523E+00 0.79500946E+02</pdfrwt>
<pdfrwt beam="2">  1       -1 0.19247459E-03 0.79500946E+02</pdfrwt>
<totfact> 0.35365149E+05</totfact>
</mgrwt>
</event>
<event>
 8    1  0.2389776E-024  0.8073943E+02  0.7818608E-02  0.1326966E+00
          2   -1    0    0  501    0  0.00000000000E+00  0.00000000000E+00  0.20110901444E+04  0.20110901444E+04  0.25500000000E-02 0. -1.
         -1   -1    0    0    0  501 -0.00000000000E+00 -0.00000000000E+00 -0.81035565562E+00  0.81037132859E+00  0.50400000000E-02 0.  1.
         24    2    1    2    0    0  0.00000000000E+00  0.17763568394E-14  0.20102797887E+04  0.20119005157E+04  0.80739433744E+02 0.  0.
         66    2    3    3    0    0  0.99723812556E+01  0.10908321756E+02  0.19411989072E+04  0.19412562008E+04  0.20000003107E+01 0.  0.
        -13    1    3    3    0    0 -0.99723812556E+01 -0.10908321756E+02  0.69080881549E+02  0.70644314923E+02  0.10566000000E+00 0.  1.
         13    1    4    4    0    0  0.17739669495E+01  0.12023586911E+01  0.32294247012E+03  0.32294959792E+03  0.10566000000E+00 0.  1.
        -13    1    4    4    0    0  0.44319883913E+01  0.45354370061E+01  0.82355592856E+03  0.82358034905E+03  0.10566000000E+00 0. -1.
        -14    1    4    4    0    0  0.37664259148E+01  0.51705260585E+01  0.79470050849E+03  0.79472625381E+03  0.00000000000E+00 0.  1.
<mgrwt>
<rscale>  0 0.80739434E+02</rscale>
<asrwt>0</asrwt>
<pdfrwt beam="1">  1        2 0.30939395E+00 0.80739434E+02</pdfrwt>
<pdfrwt beam="2">  1       -1 0.12467313E-03 0.80739434E+02</pdfrwt>
<totfact> 0.26963292E+05</totfact>
</mgrwt>
</event>
<event>
 8    1  0.2389776E-024  0.8057205E+02  0.7818608E-02  0.1327436E+00
          2   -1    0    0  501    0  0.00000000000E+00  0.00000000000E+00  0.75935670037E+01  0.75935674319E+01  0.25500000000E-02 0. -1.
         -1   -1    0    0    0  501 -0.00000000000E+00 -0.00000000000E+00 -0.21372878327E+03  0.21372878333E+03  0.50400000000E-02 0.  1.
         24    2    1    2    0    0  0.35527136788E-14  0.00000000000E+00 -0.20613521626E+03  0.22132235076E+03  0.80572051986E+02 0.  0.
         66    2    3    3    0    0  0.23948929116E+02 -0.23973746163E+02 -0.43411102965E+02  0.55107309551E+02  0.19999985989E+01 0.  0.
        -13    1    3    3    0    0 -0.23948929116E+02  0.23973746163E+02 -0.16272411330E+03  0.16621504121E+03  0.10566000000E+00 0.  1.
         13    1    4    4    0    0  0.11899718248E+02 -0.11602310731E+02 -0.20545329960E+02  0.26426098007E+02  0.10566000000E+00 0. -1.
        -13    1    4    4    0    0  0.26653763520E+01 -0.20989274499E+01 -0.47951761208E+01  0.58749132422E+01  0.10566000000E+00 0.  1.
        -14    1    4    4    0    0  0.93838345157E+01 -0.10272507982E+02 -0.18070596884E+02  0.22806298301E+02  0.00000000000E+00 0.  1.
<mgrwt>
<rscale>  0 0.80572052E+02</rscale>
<asrwt>0</asrwt>
<pdfrwt beam="1">  1        2 0.11682413E-02 0.80572052E+02</pdfrwt>
<pdfrwt beam="2">  1       -1 0.32881347E-01 0.80572052E+02</pdfrwt>
<totfact> 0.95823424E+04</totfact>
</mgrwt>
</event>
<event>
 8    1  0.2389776E-024  0.8003757E+02  0.7818608E-02  0.1328945E+00
          2   -1    0    0  501    0  0.00000000000E+00  0.00000000000E+00  0.17899335943E+04  0.17899335943E+04  0.25500000000E-02 0. -1.
         -1   -1    0    0    0  501 -0.00000000000E+00 -0.00000000000E+00 -0.89472061328E+00  0.89473480844E+00  0.50400000000E-02 0.  1.
         24    2    1    2    0    0  0.00000000000E+00  0.00000000000E+00  0.17890388737E+04  0.17908283291E+04  0.80037571062E+02 0.  0.
         66    2    3    3    0    0 -0.18296503225E+02  0.34003962885E+01  0.16871502463E+04  0.16872540646E+04  0.20000024454E+01 0.  0.
        -13    1    3    3    0    0  0.18296503225E+02 -0.34003962885E+01  0.10188862733E+03  0.10357426451E+03  0.10566000000E+00 0.  1.
         13    1    4    4    0    0 -0.43806358847E+01  0.71740994849E+00  0.42555043406E+03  0.42557359850E+03  0.10566000000E+00 0. -1.
        -13    1    4    4    0    0 -0.92598726785E+01  0.10842138066E+01  0.85625695920E+03  0.85630772045E+03  0.10566000000E+00 0.  1.
        -14    1    4    4    0    0 -0.46559946616E+01  0.15987725334E+01  0.40534285307E+03  0.40537274563E+03  0.00000000000E+00 0.  1.
<mgrwt>
<rscale>  0 0.80037571E+02</rscale>
<asrwt>0</asrwt>
<pdfrwt beam="1">  1        2 0.27537328E+00 0.80037571E+02</pdfrwt>
<pdfrwt beam="2">  1       -1 0.13765098E-03 0.80037571E+02</pdfrwt>
<totfact> 0.30298044E+05</totfact>
</mgrwt>
</event>
<event>
 8    1  0.2389776E-024  0.8019452E+02  0.7818608E-02  0.1328500E+00
         -1   -1    0    0    0  501 -0.00000000000E+00  0.00000000000E+00  0.55422525196E+02  0.55422525425E+02  0.50400000000E-02 0.  1.
          2   -1    0    0  501    0  0.00000000000E+00 -0.00000000000E+00 -0.29009688279E+02  0.29009688391E+02  0.25500000000E-02 0. -1.
         24    2    1    2    0    0  0.00000000000E+00  0.00000000000E+00  0.26412836917E+02  0.84432213816E+02  0.80194518365E+02 0.  0.
         66    2    3    3    0    0 -0.37218685193E+02  0.14180386282E+02  0.85687993816E+01  0.40788947185E+02  0.20000017465E+01 0.  0.
        -13    1    3    3    0    0  0.37218685193E+02 -0.14180386282E+02  0.17844037535E+02  0.43643266631E+02  0.10566000000E+00 0.  1.
         13    1    4    4    0    0 -0.14102894008E+02  0.56217038534E+01  0.40833288948E+01  0.15721956383E+02  0.10566000000E+00 0. -1.
        -13    1    4    4    0    0 -0.11392154062E+02  0.38142716579E+01  0.20748798281E+01  0.12192052033E+02  0.10566000000E+00 0.  1.
         14    1    4    4    0    0 -0.11723637124E+02  0.47444107704E+01  0.24105906588E+01  0.12874938769E+02  0.00000000000E+00 0. -1.
<mgrwt>
<rscale>  0 0.80194518E+02</rscale>
<asrwt>0</asrwt>
<pdfrwt beam="1">  1        2 0.44630290E-02 0.80194518E+02</pdfrwt>
<pdfrwt beam="2">  1       -1 0.85265423E-02 0.80194518E+02</pdfrwt>
<totfact> 0.13275596E+05</totfact>
</mgrwt>
</event>
<event>
 8    1  0.2389776E-024  0.7588859E+02  0.7818608E-02  0.1341141E+00
          2   -1    0    0  501    0  0.00000000000E+00  0.00000000000E+00  0.30337855804E+03  0.30337855805E+03  0.25500000000E-02 0. -1.
         -1   -1    0    0    0  501 -0.00000000000E+00 -0.00000000000E+00 -0.47457838548E+01  0.47457865310E+01  0.50400000000E-02 0.  1.
         24    2    1    2    0    0  0.00000000000E+00  0.00000000000E+00  0.29863277419E+03  0.30812434458E+03  0.75888588776E+02 0.  0.
         66    2    3    3    0    0  0.15712633942E+02  0.91400332018E+01  0.28453044341E+03  0.28511752017E+03  0.20000017351E+01 0.  0.
        -13    1    3    3    0    0 -0.15712633942E+02 -0.91400332018E+01  0.14102330776E+02  0.23006824416E+02  0.10566000000E+00 0.  1.
         13    1    4    4    0    0  0.23377874199E+01  0.13616855546E+01  0.36535610737E+02  0.36635794703E+02  0.10566000000E+00 0. -1.
        -13    1    4    4    0    0  0.92412086918E+00  0.27024918840E+00  0.20376931616E+02  0.20399939709E+02  0.10566000000E+00 0.  1.
        -14    1    4    4    0    0  0.12450725653E+02  0.75080984588E+01  0.22761790106E+03  0.22808178576E+03  0.00000000000E+00 0.  1.
<mgrwt>
<rscale>  0 0.75888589E+02</rscale>
<asrwt>0</asrwt>
<pdfrwt beam="1">  1        2 0.46673629E-01 0.75888589E+02</pdfrwt>
<pdfrwt beam="2">  1       -1 0.73012073E-03 0.75888589E+02</pdfrwt>
<totfact> 0.29384232E+05</totfact>
</mgrwt>
</event>
<event>
 8    1  0.2389776E-024  0.7841520E+02  0.7818608E-02  0.1333610E+00
          2   -1    0    0  501    0  0.00000000000E+00  0.00000000000E+00  0.11989275229E+03  0.11989275232E+03  0.25500000000E-02 0. -1.
         -1   -1    0    0    0  501 -0.00000000000E+00 -0.00000000000E+00 -0.12821758423E+02  0.12821759414E+02  0.50400000000E-02 0.  1.
         24    2    1    2    0    0 -0.35527136788E-14  0.00000000000E+00  0.10707099387E+03  0.13271451173E+03  0.78415201947E+02 0.  0.
         66    2    3    3    0    0  0.23322793966E+02 -0.20972461612E+02  0.93313622770E+02  0.98464354242E+02  0.19999993883E+01 0.  0.
        -13    1    3    3    0    0 -0.23322793966E+02  0.20972461612E+02  0.13757371096E+02  0.34250157488E+02  0.10566000000E+00 0.  1.
         13    1    4    4    0    0  0.99652795681E+01 -0.88409764367E+01  0.39927529288E+02  0.42091429297E+02  0.10566000000E+00 0. -1.
        -13    1    4    4    0    0  0.51325653431E+00 -0.83719719775E+00  0.24344978765E+01  0.26272181798E+01  0.10566000000E+00 0.  1.
        -14    1    4    4    0    0  0.12844257864E+02 -0.11294287977E+02  0.50951595605E+02  0.53745706765E+02  0.00000000000E+00 0.  1.
<mgrwt>
<rscale>  0 0.78415202E+02</rscale>
<asrwt>0</asrwt>
<pdfrwt beam="1">  1        2 0.18445038E-01 0.78415202E+02</pdfrwt>
<pdfrwt beam="2">  1       -1 0.19725784E-02 0.78415202E+02</pdfrwt>
<totfact> 0.19704257E+05</totfact>
</mgrwt>
</event>
<event>
 8    1  0.2389776E-024  0.7962057E+02  0.7818608E-02  0.1330132E+00
         -1   -1    0    0    0  501 -0.00000000000E+00  0.00000000000E+00  0.21975736287E+01  0.21975794082E+01  0.50400000000E-02 0.  1.
          2   -1    0    0  501    0  0.00000000000E+00 -0.00000000000E+00 -0.72118483769E+03  0.72118483769E+03  0.25500000000E-02 0. -1.
         24    2    1    2    0    0  0.00000000000E+00  0.00000000000E+00 -0.71898726406E+03  0.72338241710E+03  0.79620572034E+02 0.  0.
         66    2    3    3    0    0 -0.17927534884E+02  0.20444168283E+02 -0.62358586804E+03  0.62418162048E+03  0.20000004203E+01 0.  0.
        -13    1    3    3    0    0  0.17927534884E+02 -0.20444168283E+02 -0.95401396019E+02  0.99200796620E+02  0.10566000000E+00 0.  1.
         13    1    4    4    0    0 -0.68158305905E+01  0.78230478357E+01 -0.22801472609E+03  0.22825070011E+03  0.10566000000E+00 0. -1.
        -13    1    4    4    0    0 -0.59778540415E+01  0.64094262158E+01 -0.22144812212E+03  0.22162151845E+03  0.10566000000E+00 0.  1.
        -14    1    4    4    0    0 -0.51338502516E+01  0.62116942314E+01 -0.17412301983E+03  0.17430940192E+03  0.00000000000E+00 0.  1.
<mgrwt>
<rscale>  0 0.79620572E+02</rscale>
<asrwt>0</asrwt>
<pdfrwt beam="1">  1        2 0.11095132E+00 0.79620572E+02</pdfrwt>
<pdfrwt beam="2">  1       -1 0.33808927E-03 0.79620572E+02</pdfrwt>
<totfact> 0.34093640E+05</totfact>
</mgrwt>
</event>
<event>
 8    1  0.2389776E-024  0.7852437E+02  0.7818608E-02  0.1333292E+00
          2   -1    0    0  501    0  0.00000000000E+00  0.00000000000E+00  0.38542975018E+03  0.38542975019E+03  0.25500000000E-02 0. -1.
         -1   -1    0    0    0  501 -0.00000000000E+00 -0.00000000000E+00 -0.39994794511E+01  0.39994826267E+01  0.50400000000E-02 0.  1.
         24    2    1    2    0    0 -0.71054273576E-14  0.00000000000E+00  0.38143027073E+03  0.38942923282E+03  0.78524365280E+02 0.  0.
         66    2    3    3    0    0  0.37242019563E+02 -0.10079091467E+02  0.15543632436E+03  0.16016556132E+03  0.19999994723E+01 0.  0.
        -13    1    3    3    0    0 -0.37242019563E+02  0.10079091467E+02  0.22599394637E+03  0.22926367150E+03  0.10566000000E+00 0.  1.
         13    1    4    4    0    0  0.79736086067E+01 -0.28058463819E+01  0.33653491423E+02  0.34698989281E+02  0.10566000000E+00 0. -1.
        -13    1    4    4    0    0  0.15675962867E+02 -0.33535143469E+01  0.63944791894E+02  0.65923663769E+02  0.10566000000E+00 0.  1.
         14    1    4    4    0    0  0.13592448089E+02 -0.39197307387E+01  0.57838041038E+02  0.59542908269E+02  0.00000000000E+00 0. -1.
<mgrwt>
<rscale>  0 0.78524365E+02</rscale>
<asrwt>0</asrwt>
<pdfrwt beam="1">  1        2 0.59296894E-01 0.78524365E+02</pdfrwt>
<pdfrwt beam="2">  1       -1 0.61530468E-03 0.78524365E+02</pdfrwt>
<totfact> 0.29276883E+05</totfact>
</mgrwt>
</event>
<event>
 8    1  0.2389776E-024  0.7854917E+02  0.7818608E-02  0.1333220E+00
          2   -1    0    0  501    0  0.00000000000E+00  0.00000000000E+00  0.23284058169E+03  0.23284058170E+03  0.25500000000E-02 0. -1.
         -1   -1    0    0    0  501 -0.00000000000E+00 -0.00000000000E+00 -0.66246738889E+01  0.66246758061E+01  0.50400000000E-02 0.  1.
         24    2    1    2    0    0 -0.88817841970E-15  0.00000000000E+00  0.22621590780E+03  0.23946525751E+03  0.78549173211E+02 0.  0.
         66    2    3    3    0    0 -0.63629792474E+01 -0.32806530771E+02  0.17593583455E+03  0.17909264040E+03  0.20000004535E+01 0.  0.
        -13    1    3    3    0    0  0.63629792474E+01  0.32806530771E+02  0.50280073251E+02  0.60372617106E+02  0.10566000000E+00 0.  1.
         13    1    4    4    0    0 -0.54381853990E+01 -0.26545813834E+02  0.13928034580E+03  0.14189178969E+03  0.10566000000E+00 0. -1.
        -13    1    4    4    0    0 -0.65094405002E+00 -0.50806943468E+01  0.28709703487E+02  0.29163254646E+02  0.10566000000E+00 0.  1.
        -14    1    4    4    0    0 -0.27384979834E+00 -0.11800225896E+01  0.79457852655E+01  0.80375960653E+01  0.00000000000E+00 0.  1.
<mgrwt>
<rscale>  0 0.78549173E+02</rscale>
<asrwt>0</asrwt>
<pdfrwt beam="1">  1        2 0.35821634E-01 0.78549173E+02</pdfrwt>
<pdfrwt beam="2">  1       -1 0.10191806E-02 0.78549173E+02</pdfrwt>
<totfact> 0.24417438E+05</totfact>
</mgrwt>
</event>
<event>
 8    1  0.2389776E-024  0.8115393E+02  0.7818608E-02  0.1325808E+00
          2   -1    0    0  501    0  0.00000000000E+00  0.00000000000E+00  0.16627170054E+02  0.16627170250E+02  0.25500000000E-02 0. -1.
         -1   -1    0    0    0  501 -0.00000000000E+00 -0.00000000000E+00 -0.99024083107E+02  0.99024083235E+02  0.50400000000E-02 0.  1.
         24    2    1    2    0    0  0.00000000000E+00  0.44408920985E-15 -0.82396913053E+02  0.11565125349E+03  0.81153934914E+02 0.  0.
         66    2    3    3    0    0 -0.31773671467E+02 -0.39058418751E+01 -0.57487093921E+01  0.32586338583E+02  0.20000008224E+01 0.  0.
        -13    1    3    3    0    0  0.31773671467E+02  0.39058418751E+01 -0.76648203661E+02  0.83064914902E+02  0.10566000000E+00 0.  1.
         13    1    4    4    0    0 -0.55983196389E+01 -0.76829084105E+00 -0.37676722455E+00  0.56643244234E+01  0.10566000000E+00 0. -1.
        -13    1    4    4    0    0 -0.11340197906E+02 -0.18295093755E+01 -0.24291432409E+01  0.11741341236E+02  0.10566000000E+00 0.  1.
         14    1    4    4    0    0 -0.14835153922E+02 -0.13080416586E+01 -0.29427989267E+01  0.15180672923E+02  0.00000000000E+00 0. -1.
<mgrwt>
<rscale>  0 0.81153935E+02</rscale>
<asrwt>0</asrwt>
<pdfrwt beam="1">  1        2 0.25580262E-02 0.81153935E+02</pdfrwt>
<pdfrwt beam="2">  1       -1 0.15234474E-01 0.81153935E+02</pdfrwt>
<totfact> 0.11461565E+05</totfact>
</mgrwt>
</event>
<event>
 8    1  0.2389776E-024  0.8041566E+02  0.7818608E-02  0.1327876E+00
          2   -1    0    0  501    0  0.00000000000E+00  0.00000000000E+00  0.31145647300E+02  0.31145647405E+02  0.25500000000E-02 0. -1.
         -1   -1    0    0    0  501 -0.00000000000E+00 -0.00000000000E+00 -0.51906755724E+02  0.51906755969E+02  0.50400000000E-02 0.  1.
         24    2    1    2    0    0  0.35527136788E-14  0.00000000000E+00 -0.20761108424E+02  0.83052403374E+02  0.80415658196E+02 0.  0.
         66    2    3    3    0    0  0.30771322460E+02  0.76206214882E+01  0.15115117984E+02  0.35176909192E+02  0.19999977152E+01 0.  0.
        -13    1    3    3    0    0 -0.30771322460E+02 -0.76206214882E+01 -0.35876226407E+02  0.47875494181E+02  0.10566000000E+00 0.  1.
         13    1    4    4    0    0  0.17538480390E+02  0.42043760964E+01  0.86640797959E+01  0.20008810947E+02  0.10566000000E+00 0. -1.
        -13    1    4    4    0    0  0.44984447342E+01  0.17938766828E+01  0.22900045910E+01  0.53581044822E+01  0.10566000000E+00 0.  1.
         14    1    4    4    0    0  0.87343973357E+01  0.16223687090E+01  0.41610335967E+01  0.98099937635E+01  0.00000000000E+00 0. -1.
<mgrwt>
<rscale>  0 0.80415658E+02</rscale>
<asrwt>0</asrwt>
<pdfrwt beam="1">  1        2 0.47916381E-02 0.80415658E+02</pdfrwt>
<pdfrwt beam="2">  1       -1 0.79856548E-02 0.80415658E+02</pdfrwt>
<totfact> 0.13360087E+05</totfact>
</mgrwt>
</event>
<event>
 8    1  0.2389776E-024  0.8230528E+02  0.7818608E-02  0.1322634E+00
          2   -1    0    0  501    0  0.00000000000E+00  0.00000000000E+00  0.48889658097E+02  0.48889658164E+02  0.25500000000E-02 0. -1.
         -1   -1    0    0    0  501 -0.00000000000E+00 -0.00000000000E+00 -0.34640042588E+02  0.34640042955E+02  0.50400000000E-02 0.  1.
         24    2    1    2    0    0  0.00000000000E+00  0.22204460493E-15  0.14249615510E+02  0.83529701118E+02  0.82305281889E+02 0.  0.
         66    2    3    3    0    0  0.39412441714E+02 -0.17909706259E+01  0.18920223328E+02  0.43800947311E+02  0.19999992339E+01 0.  0.
        -13    1    3    3    0    0 -0.39412441714E+02  0.17909706259E+01 -0.46706078184E+01  0.39728753807E+02  0.10566000000E+00 0.  1.
         13    1    4    4    0    0  0.11126714173E+02  0.69068902778E-01  0.49489839188E+01  0.12178347370E+02  0.10566000000E+00 0. -1.
        -13    1    4    4    0    0  0.15818161747E+02 -0.14758470828E+01  0.74490164729E+01  0.17546833791E+02  0.10566000000E+00 0.  1.
         14    1    4    4    0    0  0.12467565795E+02 -0.38419244584E+00  0.65222229363E+01  0.14075766150E+02  0.00000000000E+00 0. -1.
<mgrwt>
<rscale>  0 0.82305282E+02</rscale>
<asrwt>0</asrwt>
<pdfrwt beam="1">  1        2 0.75214859E-02 0.82305282E+02</pdfrwt>
<pdfrwt beam="2">  1       -1 0.53292374E-02 0.82305282E+02</pdfrwt>
<totfact> 0.13753931E+05</totfact>
</mgrwt>
</event>
<event>
 8    1  0.2389776E-024  0.7893655E+02  0.7818608E-02  0.1332097E+00
         -1   -1    0    0    0  501 -0.00000000000E+00  0.00000000000E+00  0.17483514239E+03  0.17483514246E+03  0.50400000000E-02 0.  1.
          2   -1    0    0  501    0  0.00000000000E+00 -0.00000000000E+00 -0.89097910018E+01  0.89097913667E+01  0.25500000000E-02 0. -1.
         24    2    1    2    0    0  0.00000000000E+00 -0.71054273576E-14  0.16592535139E+03  0.18374493383E+03  0.78936547141E+02 0.  0.
         66    2    3    3    0    0 -0.17694855905E+02  0.32586185785E+02  0.51718755173E+02  0.63669435860E+02  0.19999991434E+01 0.  0.
        -13    1    3    3    0    0  0.17694855905E+02 -0.32586185785E+02  0.11420659621E+03  0.12007549797E+03  0.10566000000E+00 0.  1.
         13    1    4    4    0    0 -0.48191312543E+01  0.95855129153E+01  0.15314197338E+02  0.18698713540E+02  0.10566000000E+00 0. -1.
        -13    1    4    4    0    0 -0.58322257712E+01  0.11170842860E+02  0.18506933353E+02  0.22390183872E+02  0.10566000000E+00 0.  1.
        -14    1    4    4    0    0 -0.70434988793E+01  0.11829830009E+02  0.17897624482E+02  0.22580538448E+02  0.00000000000E+00 0.  1.
<mgrwt>
<rscale>  0 0.78936547E+02</rscale>
<asrwt>0</asrwt>
<pdfrwt beam="1">  1        2 0.13707370E-02 0.78936547E+02</pdfrwt>
<pdfrwt beam="2">  1       -1 0.26897716E-01 0.78936547E+02</pdfrwt>
<totfact> 0.10714305E+05</totfact>
</mgrwt>
</event>
<event>
 8    1  0.2389776E-024  0.8602030E+02  0.7818608E-02  0.1312786E+00
         -1   -1    0    0    0  501 -0.00000000000E+00  0.00000000000E+00  0.57036031024E+01  0.57036053292E+01  0.50400000000E-02 0.  1.
          2   -1    0    0  501    0  0.00000000000E+00 -0.00000000000E+00 -0.32433405943E+03  0.32433405944E+03  0.25500000000E-02 0. -1.
         24    2    1    2    0    0  0.00000000000E+00 -0.71054273576E-14 -0.31863045633E+03  0.33003766477E+03  0.86020302643E+02 0.  0.
         66    2    3    3    0    0  0.59403675515E+01  0.42409839285E+02 -0.17374951997E+03  0.17896026964E+03  0.19999963436E+01 0.  0.
        -13    1    3    3    0    0 -0.59403675515E+01 -0.42409839285E+02 -0.14488093636E+03  0.15107739513E+03  0.10566000000E+00 0.  1.
         13    1    4    4    0    0  0.19514627947E+01  0.14760018580E+02 -0.60213688004E+02  0.62027137146E+02  0.10566000000E+00 0. -1.
        -13    1    4    4    0    0  0.26854283564E+01  0.21526448814E+02 -0.90208957683E+02  0.92780745494E+02  0.10566000000E+00 0.  1.
        -14    1    4    4    0    0  0.13034764004E+01  0.61233718911E+01 -0.23326874282E+02  0.24152387000E+02  0.00000000000E+00 0.  1.
<mgrwt>
<rscale>  0 0.86020303E+02</rscale>
<asrwt>0</asrwt>
<pdfrwt beam="1">  1        2 0.49897533E-01 0.86020303E+02</pdfrwt>
<pdfrwt beam="2">  1       -1 0.87747783E-03 0.86020303E+02</pdfrwt>
<totfact> 0.21670041E+05</totfact>
</mgrwt>
</event>
<event>
 8    1  0.2389776E-024  0.8058961E+02  0.7818608E-02  0.1327386E+00
          2   -1    0    0  501    0  0.00000000000E+00  0.00000000000E+00  0.18489103649E+03  0.18489103650E+03  0.25500000000E-02 0. -1.
         -1   -1    0    0    0  501 -0.00000000000E+00 -0.00000000000E+00 -0.87817728286E+01  0.87817742749E+01  0.50400000000E-02 0.  1.
         24    2    1    2    0    0 -0.17763568394E-14  0.00000000000E+00  0.17610926366E+03  0.19367281078E+03  0.80589607822E+02 0.  0.
         66    2    3    3    0    0  0.11508132788E+02  0.34926724649E+02  0.12754995149E+03  0.13276032292E+03  0.20000003680E+01 0.  0.
        -13    1    3    3    0    0 -0.11508132788E+02 -0.34926724649E+02  0.48559312165E+02  0.60912487857E+02  0.10566000000E+00 0.  1.
         13    1    4    4    0    0  0.52894837627E+01  0.15337293643E+02  0.57142986409E+02  0.59401542695E+02  0.10566000000E+00 0. -1.
        -13    1    4    4    0    0  0.57354357580E+01  0.16398121164E+02  0.59333129955E+02  0.61824146377E+02  0.10566000000E+00 0.  1.
        -14    1    4    4    0    0  0.48321326735E+00  0.31913098424E+01  0.11073835130E+02  0.11534633850E+02  0.00000000000E+00 0.  1.
<mgrwt>
<rscale>  0 0.80589608E+02</rscale>
<asrwt>0</asrwt>
<pdfrwt beam="1">  1        2 0.28444774E-01 0.80589608E+02</pdfrwt>
<pdfrwt beam="2">  1       -1 0.13510421E-02 0.80589608E+02</pdfrwt>
<totfact> 0.21056867E+05</totfact>
</mgrwt>
</event>
<event>
 8    1  0.2389776E-024  0.8964912E+02  0.7818608E-02  0.1303704E+00
         -1   -1    0    0    0  501 -0.00000000000E+00  0.00000000000E+00  0.30721741969E+01  0.30721783311E+01  0.50400000000E-02 0.  1.
          2   -1    0    0  501    0  0.00000000000E+00 -0.00000000000E+00 -0.65401238644E+03  0.65401238644E+03  0.25500000000E-02 0. -1.
         24    2    1    2    0    0  0.17763568394E-14  0.00000000000E+00 -0.65094021224E+03  0.65708456478E+03  0.89649123542E+02 0.  0.
         66    2    3    3    0    0  0.13352444033E+02  0.65622858040E+01 -0.63537496094E+03  0.63555227347E+03  0.19999921143E+01 0.  0.
        -13    1    3    3    0    0 -0.13352444033E+02 -0.65622858040E+01 -0.15565251301E+02  0.21532291302E+02  0.10566000000E+00 0.  1.
         13    1    4    4    0    0  0.88753566436E+01  0.44899416603E+01 -0.45645967034E+03  0.45656803803E+03  0.10566000000E+00 0. -1.
        -13    1    4    4    0    0  0.31224538902E+01  0.16806108162E+01 -0.12282725514E+03  0.12287847631E+03  0.10566000000E+00 0.  1.
        -14    1    4    4    0    0  0.13546334997E+01  0.39173332743E+00 -0.56088035457E+02  0.56105759137E+02  0.00000000000E+00 0.  1.
<mgrwt>
<rscale>  0 0.89649124E+02</rscale>
<asrwt>0</asrwt>
<pdfrwt beam="1">  1        2 0.10061718E+00 0.89649124E+02</pdfrwt>
<pdfrwt beam="2">  1       -1 0.47264302E-03 0.89649124E+02</pdfrwt>
<totfact> 0.24432882E+05</totfact>
</mgrwt>
</event>
<event>
 8    1  0.2389776E-024  0.8904546E+02  0.7818608E-02  0.1305180E+00
          2   -1    0    0  501    0  0.00000000000E+00  0.00000000000E+00  0.85092631894E+03  0.85092631895E+03  0.25500000000E-02 0. -1.
         -1   -1    0    0    0  501 -0.00000000000E+00 -0.00000000000E+00 -0.23295449824E+01  0.23295504344E+01  0.50400000000E-02 0.  1.
         24    2    1    2    0    0  0.17763568394E-14  0.00000000000E+00  0.84859677396E+03  0.85325586938E+03  0.89045459498E+02 0.  0.
         66    2    3    3    0    0  0.15899973430E+02  0.10272200587E+02  0.81042096091E+03  0.81064447271E+03  0.19999994114E+01 0.  0.
        -13    1    3    3    0    0 -0.15899973430E+02 -0.10272200587E+02  0.38175813055E+02  0.42611396673E+02  0.10566000000E+00 0.  1.
         13    1    4    4    0    0  0.23761049223E+01  0.15492003633E+01  0.12326474822E+03  0.12329742582E+03  0.10566000000E+00 0. -1.
        -13    1    4    4    0    0  0.58869749819E+01  0.45349956261E+01  0.34449928833E+03  0.34457944437E+03  0.10566000000E+00 0.  1.
        -14    1    4    4    0    0  0.76368935255E+01  0.41880045974E+01  0.34265692436E+03  0.34276760252E+03  0.00000000000E+00 0.  1.
<mgrwt>
<rscale>  0 0.89045459E+02</rscale>
<asrwt>0</asrwt>
<pdfrwt beam="1">  1        2 0.13091170E+00 0.89045459E+02</pdfrwt>
<pdfrwt beam="2">  1       -1 0.35839206E-03 0.89045459E+02</pdfrwt>
<totfact> 0.26234235E+05</totfact>
</mgrwt>
</event>
<event>
 8    1  0.2389776E-024  0.8014900E+02  0.7818608E-02  0.1328629E+00
          2   -1    0    0  501    0  0.00000000000E+00  0.00000000000E+00  0.60519904513E+01  0.60519909886E+01  0.25500000000E-02 0. -1.
         -1   -1    0    0    0  501 -0.00000000000E+00 -0.00000000000E+00 -0.26536153021E+03  0.26536153026E+03  0.50400000000E-02 0.  1.
         24    2    1    2    0    0  0.00000000000E+00  0.00000000000E+00 -0.25930953976E+03  0.27141352125E+03  0.80148999405E+02 0.  0.
         66    2    3    3    0    0 -0.35786481420E+02 -0.52000668791E+01 -0.71449741606E+02  0.80104797258E+02  0.20000050579E+01 0.  0.
        -13    1    3    3    0    0  0.35786481420E+02  0.52000668791E+01 -0.18785979815E+03  0.19130872399E+03  0.10566000000E+00 0.  1.
         13    1    4    4    0    0 -0.27393117044E+01  0.10546245588E+00 -0.54232780784E+01  0.60776689688E+01  0.10566000000E+00 0. -1.
        -13    1    4    4    0    0 -0.23997513275E+02 -0.37972337943E+01 -0.48395655486E+02  0.54152103023E+02  0.10566000000E+00 0.  1.
         14    1    4    4    0    0 -0.90496564413E+01 -0.15082955407E+01 -0.17630808041E+02  0.19875025266E+02  0.00000000000E+00 0. -1.
<mgrwt>
<rscale>  0 0.80148999E+02</rscale>
<asrwt>0</asrwt>
<pdfrwt beam="1">  1        2 0.93107570E-03 0.80148999E+02</pdfrwt>
<pdfrwt beam="2">  1       -1 0.40824842E-01 0.80148999E+02</pdfrwt>
<totfact> 0.90205156E+04</totfact>
</mgrwt>
</event>
<event>
 8    1  0.2389776E-024  0.7888606E+02  0.7818608E-02  0.1332243E+00
         -1   -1    0    0    0  501 -0.00000000000E+00  0.00000000000E+00  0.13113218325E+03  0.13113218335E+03  0.50400000000E-02 0.  1.
          2   -1    0    0  501    0  0.00000000000E+00 -0.00000000000E+00 -0.11864002524E+02  0.11864002798E+02  0.25500000000E-02 0. -1.
         24    2    1    2    0    0  0.00000000000E+00  0.00000000000E+00  0.11926818072E+03  0.14299618614E+03  0.78886059087E+02 0.  0.
         66    2    3    3    0    0 -0.25212225339E+02  0.68862170614E+01  0.61849352881E+01  0.26931945938E+02  0.19999988848E+01 0.  0.
        -13    1    3    3    0    0  0.25212225339E+02 -0.68862170614E+01  0.11308324544E+03  0.11606424020E+03  0.10566000000E+00 0.  1.
         13    1    4    4    0    0 -0.93247440368E+01  0.27263091116E+01  0.18462217183E+01  0.98895556722E+01  0.10566000000E+00 0. -1.
        -13    1    4    4    0    0 -0.22833536517E+01  0.77503999404E+00  0.11092875627E+01  0.26563271303E+01  0.10566000000E+00 0.  1.
        -14    1    4    4    0    0 -0.13604127651E+02  0.33848679558E+01  0.32294260071E+01  0.14386063136E+02  0.00000000000E+00 0.  1.
<mgrwt>
<rscale>  0 0.78886059E+02</rscale>
<asrwt>0</asrwt>
<pdfrwt beam="1">  1        2 0.18252310E-02 0.78886059E+02</pdfrwt>
<pdfrwt beam="2">  1       -1 0.20174184E-01 0.78886059E+02</pdfrwt>
<totfact> 0.11551263E+05</totfact>
</mgrwt>
</event>
<event>
 8    1  0.2389776E-024  0.8112936E+02  0.7818608E-02  0.1325877E+00
          2   -1    0    0  501    0  0.00000000000E+00  0.00000000000E+00  0.38733477426E+02  0.38733477510E+02  0.25500000000E-02 0. -1.
         -1   -1    0    0    0  501 -0.00000000000E+00 -0.00000000000E+00 -0.42482456549E+02  0.42482456848E+02  0.50400000000E-02 0.  1.
         24    2    1    2    0    0  0.35527136788E-14  0.35527136788E-14 -0.37489791225E+01  0.81215934358E+02  0.81129360586E+02 0.  0.
         66    2    3    3    0    0 -0.28047990219E+02 -0.28638254721E+02  0.41846696939E+01  0.40352829528E+02  0.20000004175E+01 0.  0.
        -13    1    3    3    0    0  0.28047990219E+02  0.28638254721E+02 -0.79336488164E+01  0.40863104830E+02  0.10566000000E+00 0.  1.
         13    1    4    4    0    0 -0.30029553383E+01 -0.33228557022E+01  0.71257498890E-01  0.44805526945E+01  0.10566000000E+00 0. -1.
        -13    1    4    4    0    0 -0.58516094376E+01 -0.59706481632E+01  0.15270486646E+01  0.84990007741E+01  0.10566000000E+00 0.  1.
         14    1    4    4    0    0 -0.19193425443E+02 -0.19344750855E+02  0.25863635304E+01  0.27373276059E+02  0.00000000000E+00 0. -1.
<mgrwt>
<rscale>  0 0.81129361E+02</rscale>
<asrwt>0</asrwt>
<pdfrwt beam="1">  1        2 0.59589965E-02 0.81129361E+02</pdfrwt>
<pdfrwt beam="2">  1       -1 0.65357626E-02 0.81129361E+02</pdfrwt>
<totfact> 0.13621888E+05</totfact>
</mgrwt>
</event>
<event>
 8    1  0.2389776E-024  0.8142306E+02  0.7818608E-02  0.1325061E+00
         -1   -1    0    0    0  501 -0.00000000000E+00  0.00000000000E+00  0.36795456900E+02  0.36795457245E+02  0.50400000000E-02 0.  1.
          2   -1    0    0  501    0  0.00000000000E+00 -0.00000000000E+00 -0.45044382913E+02  0.45044382985E+02  0.25500000000E-02 0. -1.
         24    2    1    2    0    0  0.00000000000E+00  0.00000000000E+00 -0.82489260124E+01  0.81839840230E+02  0.81423059808E+02 0.  0.
         66    2    3    3    0    0 -0.20753844363E+02 -0.31477009393E+02 -0.19499002358E+02  0.42493943900E+02  0.19999997541E+01 0.  0.
        -13    1    3    3    0    0  0.20753844363E+02  0.31477009393E+02  0.11250076345E+02  0.39345896330E+02  0.10566000000E+00 0.  1.
         13    1    4    4    0    0 -0.14905499576E+02 -0.23270963006E+02 -0.13683617850E+02  0.30837707411E+02  0.10566000000E+00 0. -1.
        -13    1    4    4    0    0 -0.96904879750E+00 -0.14091838535E+01 -0.71029393386E+00  0.18548682468E+01  0.10566000000E+00 0.  1.
        -14    1    4    4    0    0 -0.48792959897E+01 -0.67968625342E+01 -0.51050905736E+01  0.98013682427E+01  0.00000000000E+00 0.  1.
<mgrwt>
<rscale>  0 0.81423060E+02</rscale>
<asrwt>0</asrwt>
<pdfrwt beam="1">  1        2 0.69299051E-02 0.81423060E+02</pdfrwt>
<pdfrwt beam="2">  1       -1 0.56608396E-02 0.81423060E+02</pdfrwt>
<totfact> 0.13919651E+05</totfact>
</mgrwt>
</event>
<event>
 8    1  0.2389776E-024  0.7967022E+02  0.7818608E-02  0.1329990E+00
         -1   -1    0    0    0  501 -0.00000000000E+00  0.00000000000E+00  0.10494963885E+02  0.10494965096E+02  0.50400000000E-02 0.  1.
          2   -1    0    0  501    0  0.00000000000E+00 -0.00000000000E+00 -0.15119974251E+03  0.15119974253E+03  0.25500000000E-02 0. -1.
         24    2    1    2    0    0  0.00000000000E+00  0.00000000000E+00 -0.14070477862E+03  0.16169470763E+03  0.79670218695E+02 0.  0.
         66    2    3    3    0    0 -0.32338267042E+02  0.51357241449E+01 -0.11635109375E+03  0.12088720453E+03  0.20000062945E+01 0.  0.
        -13    1    3    3    0    0  0.32338267042E+02 -0.51357241449E+01 -0.24353684874E+02  0.40807503094E+02  0.10566000000E+00 0.  1.
         13    1    4    4    0    0 -0.10157556233E+02  0.92186998186E+00 -0.36293433131E+02  0.37699472746E+02  0.10566000000E+00 0. -1.
        -13    1    4    4    0    0 -0.96675559747E+00  0.12110437674E+00 -0.28305753359E+01  0.29954304237E+01  0.10566000000E+00 0.  1.
         14    1    4    4    0    0 -0.21213955212E+02  0.40927497863E+01 -0.77227085283E+02  0.80192301363E+02  0.00000000000E+00 0. -1.
<mgrwt>
<rscale>  0 0.79670219E+02</rscale>
<asrwt>0</asrwt>
<pdfrwt beam="1">  1        2 0.23261497E-01 0.79670219E+02</pdfrwt>
<pdfrwt beam="2">  1       -1 0.16146100E-02 0.79670219E+02</pdfrwt>
<totfact> 0.20302789E+05</totfact>
</mgrwt>
</event>
<event>
 8    1  0.2389776E-024  0.8014855E+02  0.7818608E-02  0.1328630E+00
         -1   -1    0    0    0  501 -0.00000000000E+00  0.00000000000E+00  0.16487753688E+01  0.16487830719E+01  0.50400000000E-02 0.  1.
          2   -1    0    0  501    0  0.00000000000E+00 -0.00000000000E+00 -0.97402214238E+03  0.97402214238E+03  0.25500000000E-02 0. -1.
         24    2    1    2    0    0  0.00000000000E+00  0.00000000000E+00 -0.97237336701E+03  0.97567092546E+03  0.80148548994E+02 0.  0.
         66    2    3    3    0    0 -0.21369513209E+02  0.16470587023E+02 -0.84678611001E+03  0.84721818466E+03  0.19999969092E+01 0.  0.
        -13    1    3    3    0    0  0.21369513209E+02 -0.16470587023E+02 -0.12558725701E+03  0.12845274080E+03  0.10566000000E+00 0.  1.
         13    1    4    4    0    0 -0.25278921806E+01  0.20004379624E+01 -0.10331472190E+03  0.10336505655E+03  0.10566000000E+00 0. -1.
        -13    1    4    4    0    0 -0.18635018494E+02  0.14504748931E+02 -0.73803411608E+03  0.73841182230E+03  0.10566000000E+00 0.  1.
        -14    1    4    4    0    0 -0.20660253451E+00 -0.34599869857E-01 -0.54372720359E+01  0.54413058130E+01  0.00000000000E+00 0.  1.
<mgrwt>
<rscale>  0 0.80148549E+02</rscale>
<asrwt>0</asrwt>
<pdfrwt beam="1">  1        2 0.14984910E+00 0.80148549E+02</pdfrwt>
<pdfrwt beam="2">  1       -1 0.25365912E-03 0.80148549E+02</pdfrwt>
<totfact> 0.35014809E+05</totfact>
</mgrwt>
</event>
<event>
 8    1  0.2389776E-024  0.7809841E+02  0.7818608E-02  0.1334536E+00
          2   -1    0    0  501    0  0.00000000000E+00  0.00000000000E+00  0.54889484714E+03  0.54889484715E+03  0.25500000000E-02 0. -1.
         -1   -1    0    0    0  501 -0.00000000000E+00 -0.00000000000E+00 -0.27780167262E+01  0.27780212981E+01  0.50400000000E-02 0.  1.
         24    2    1    2    0    0 -0.17763568394E-14  0.35527136788E-14  0.54611683042E+03  0.55167286845E+03  0.78098407897E+02 0.  0.
         66    2    3    3    0    0 -0.92874007809E+01  0.24024266387E+02  0.48031820667E+03  0.48101247473E+03  0.20000006498E+01 0.  0.
        -13    1    3    3    0    0  0.92874007809E+01 -0.24024266387E+02  0.65798623751E+02  0.70660393717E+02  0.10566000000E+00 0.  1.
         13    1    4    4    0    0 -0.55833115503E+01  0.13256561871E+02  0.28271266847E+03  0.28307838822E+03  0.10566000000E+00 0. -1.
        -13    1    4    4    0    0 -0.54770298575E+00  0.21670634266E+01  0.39525372880E+02  0.39588665143E+02  0.10566000000E+00 0.  1.
         14    1    4    4    0    0 -0.31563862449E+01  0.86006410887E+01  0.15808016532E+03  0.15834542137E+03  0.00000000000E+00 0. -1.
<mgrwt>
<rscale>  0 0.78098408E+02</rscale>
<asrwt>0</asrwt>
<pdfrwt beam="1">  1        2 0.84445409E-01 0.78098408E+02</pdfrwt>
<pdfrwt beam="2">  1       -1 0.42738730E-03 0.78098408E+02</pdfrwt>
<totfact> 0.33367961E+05</totfact>
</mgrwt>
</event>
<event>
 8    1  0.2389776E-024  0.7912999E+02  0.7818608E-02  0.1331539E+00
          2   -1    0    0  501    0  0.00000000000E+00  0.00000000000E+00  0.19176241059E+04  0.19176241059E+04  0.25500000000E-02 0. -1.
         -1   -1    0    0    0  501 -0.00000000000E+00 -0.00000000000E+00 -0.81630894475E+00  0.81632450341E+00  0.50400000000E-02 0.  1.
         24    2    1    2    0    0  0.00000000000E+00  0.00000000000E+00  0.19168077969E+04  0.19184404304E+04  0.79129985116E+02 0.  0.
         66    2    3    3    0    0 -0.83438403869E+01  0.10244763055E+02  0.18625150910E+04  0.18625630295E+04  0.20000000523E+01 0.  0.
        -13    1    3    3    0    0  0.83438403869E+01 -0.10244763055E+02  0.54292705984E+02  0.55877400884E+02  0.10566000000E+00 0.  1.
         13    1    4    4    0    0 -0.98083675819E+00  0.17439088721E+01  0.34026807850E+03  0.34027397736E+03  0.10566000000E+00 0. -1.
        -13    1    4    4    0    0 -0.14798440415E+01  0.11194510028E+01  0.22212238035E+03  0.22213015582E+03  0.10566000000E+00 0.  1.
         14    1    4    4    0    0 -0.58831595873E+01  0.73814031806E+01  0.13001246321E+04  0.13001588963E+04  0.00000000000E+00 0. -1.
<mgrwt>
<rscale>  0 0.79129985E+02</rscale>
<asrwt>0</asrwt>
<pdfrwt beam="1">  1        2 0.29501888E+00 0.79129985E+02</pdfrwt>
<pdfrwt beam="2">  1       -1 0.12558728E-03 0.79129985E+02</pdfrwt>
<totfact> 0.29636410E+05</totfact>
</mgrwt>
</event>
<event>
 8    1  0.2389776E-024  0.8225428E+02  0.7818608E-02  0.1322773E+00
         -1   -1    0    0    0  501 -0.00000000000E+00  0.00000000000E+00  0.54835114504E+01  0.54835137665E+01  0.50400000000E-02 0.  1.
          2   -1    0    0  501    0  0.00000000000E+00 -0.00000000000E+00 -0.30845951477E+03  0.30845951478E+03  0.25500000000E-02 0. -1.
         24    2    1    2    0    0  0.00000000000E+00  0.35527136788E-14 -0.30297600332E+03  0.31394302855E+03  0.82254280046E+02 0.  0.
         66    2    3    3    0    0  0.34835877438E+02 -0.12962918805E+02 -0.21854567850E+03  0.22169300668E+03  0.20000001246E+01 0.  0.
        -13    1    3    3    0    0 -0.34835877438E+02  0.12962918805E+02 -0.84430324828E+02  0.92250021872E+02  0.10566000000E+00 0.  1.
         13    1    4    4    0    0  0.25303544013E+01 -0.73677516978E+00 -0.16739886682E+02  0.16946400834E+02  0.10566000000E+00 0. -1.
        -13    1    4    4    0    0  0.32232836752E+01 -0.82385602902E+00 -0.17949246429E+02  0.18255270685E+02  0.10566000000E+00 0.  1.
        -14    1    4    4    0    0  0.29082239361E+02 -0.11402287606E+02 -0.18385654538E+03  0.18649133516E+03  0.00000000000E+00 0.  1.
<mgrwt>
<rscale>  0 0.82254280E+02</rscale>
<asrwt>0</asrwt>
<pdfrwt beam="1">  1        2 0.47455296E-01 0.82254280E+02</pdfrwt>
<pdfrwt beam="2">  1       -1 0.84361757E-03 0.82254280E+02</pdfrwt>
<totfact> 0.23941067E+05</totfact>
</mgrwt>
</event>
<event>
 8    1  0.2389776E-024  0.7914878E+02  0.7818608E-02  0.1331485E+00
          2   -1    0    0  501    0  0.00000000000E+00  0.00000000000E+00  0.12483143367E+02  0.12483143628E+02  0.25500000000E-02 0. -1.
         -1   -1    0    0    0  501 -0.00000000000E+00 -0.00000000000E+00 -0.12545976627E+03  0.12545976637E+03  0.50400000000E-02 0.  1.
         24    2    1    2    0    0  0.17763568394E-14  0.71054273576E-14 -0.11297662290E+03  0.13794291000E+03  0.79148778237E+02 0.  0.
         66    2    3    3    0    0 -0.14547487975E+02 -0.35137538219E+02 -0.37604223671E+02  0.53519656517E+02  0.19999993380E+01 0.  0.
        -13    1    3    3    0    0  0.14547487975E+02  0.35137538219E+02 -0.75372399232E+02  0.84423253482E+02  0.10566000000E+00 0.  1.
         13    1    4    4    0    0 -0.11782496969E+02 -0.29623410837E+02 -0.31160220217E+02  0.44579638765E+02  0.10566000000E+00 0. -1.
        -13    1    4    4    0    0 -0.46255937769E+00 -0.12249396210E+01 -0.11240418664E+01  0.17288934051E+01  0.10566000000E+00 0. -1.
         14    1    4    4    0    0 -0.23024316283E+01 -0.42891877611E+01 -0.53199615881E+01  0.72111243473E+01  0.00000000000E+00 0. -1.
<mgrwt>
<rscale>  0 0.79148778E+02</rscale>
<asrwt>0</asrwt>
<pdfrwt beam="1">  1        2 0.19204837E-02 0.79148778E+02</pdfrwt>
<pdfrwt beam="2">  1       -1 0.19301502E-01 0.79148778E+02</pdfrwt>
<totfact> 0.11574856E+05</totfact>
</mgrwt>
</event>
<event>
 8    1  0.2389776E-024  0.8135066E+02  0.7818608E-02  0.1325262E+00
         -1   -1    0    0    0  501 -0.00000000000E+00  0.00000000000E+00  0.14811845763E+01  0.14811931511E+01  0.50400000000E-02 0.  1.
          2   -1    0    0  501    0  0.00000000000E+00 -0.00000000000E+00 -0.11169962788E+04  0.11169962788E+04  0.25500000000E-02 0. -1.
         24    2    1    2    0    0 -0.17763568394E-14 -0.17763568394E-14 -0.11155150942E+04  0.11184774719E+04  0.81350659663E+02 0.  0.
         66    2    3    3    0    0 -0.12744306887E+02 -0.14637348861E+02 -0.10491811868E+04  0.10493625837E+04  0.20000002813E+01 0.  0.
        -13    1    3    3    0    0  0.12744306887E+02  0.14637348861E+02 -0.66333907404E+02  0.69114888231E+02  0.10566000000E+00 0.  1.
         13    1    4    4    0    0 -0.70327315573E+01 -0.82524445698E+01 -0.61059932650E+03  0.61069559589E+03  0.10566000000E+00 0. -1.
        -13    1    4    4    0    0 -0.38302850708E+01 -0.35495590950E+01 -0.25246258507E+03  0.25251661030E+03  0.10566000000E+00 0.  1.
        -14    1    4    4    0    0 -0.18812902586E+01 -0.28353451963E+01 -0.18611927522E+03  0.18615037750E+03  0.00000000000E+00 0.  1.
<mgrwt>
<rscale>  0 0.81350660E+02</rscale>
<asrwt>0</asrwt>
<pdfrwt beam="1">  1        2 0.17184491E+00 0.81350660E+02</pdfrwt>
<pdfrwt beam="2">  1       -1 0.22787610E-03 0.81350660E+02</pdfrwt>
<totfact> 0.33731479E+05</totfact>
</mgrwt>
</event>
<event>
 8    1  0.2389776E-024  0.7908487E+02  0.7818608E-02  0.1331669E+00
         -1   -1    0    0    0  501 -0.00000000000E+00  0.00000000000E+00  0.65212614641E+02  0.65212614835E+02  0.50400000000E-02 0.  1.
          2   -1    0    0  501    0  0.00000000000E+00 -0.00000000000E+00 -0.23977019667E+02  0.23977019803E+02  0.25500000000E-02 0. -1.
         24    2    1    2    0    0  0.35527136788E-14  0.00000000000E+00  0.41235594973E+02  0.89189634638E+02  0.79084869818E+02 0.  0.
         66    2    3    3    0    0 -0.20812086263E+02 -0.13653259264E+02 -0.13983449201E+02  0.28619770624E+02  0.19999989599E+01 0.  0.
        -13    1    3    3    0    0  0.20812086263E+02  0.13653259264E+02  0.55219044175E+02  0.60569864015E+02  0.10566000000E+00 0.  1.
         13    1    4    4    0    0 -0.10302313229E+02 -0.59708050985E+01 -0.58741031878E+01  0.13277967603E+02  0.10566000000E+00 0.  1.
        -13    1    4    4    0    0 -0.36890478504E+01 -0.26631008612E+01 -0.30119727636E+01  0.54575016449E+01  0.10566000000E+00 0. -1.
        -14    1    4    4    0    0 -0.68207251843E+01 -0.50193533040E+01 -0.50973732501E+01  0.98843013754E+01  0.00000000000E+00 0.  1.
<mgrwt>
<rscale>  0 0.79084870E+02</rscale>
<asrwt>0</asrwt>
<pdfrwt beam="1">  1        2 0.36887724E-02 0.79084870E+02</pdfrwt>
<pdfrwt beam="2">  1       -1 0.10032710E-01 0.79084870E+02</pdfrwt>
<totfact> 0.13300612E+05</totfact>
</mgrwt>
</event>
<event>
 8    1  0.2389776E-024  0.7958186E+02  0.7818608E-02  0.1330242E+00
         -1   -1    0    0    0  501 -0.00000000000E+00  0.00000000000E+00  0.22032482406E+02  0.22032482982E+02  0.50400000000E-02 0.  1.
          2   -1    0    0  501    0  0.00000000000E+00 -0.00000000000E+00 -0.71862895588E+02  0.71862895633E+02  0.25500000000E-02 0. -1.
         24    2    1    2    0    0  0.00000000000E+00  0.00000000000E+00 -0.49830413182E+02  0.93895378616E+02  0.79581857527E+02 0.  0.
         66    2    3    3    0    0 -0.21596067613E+02 -0.21451782696E+02 -0.55121091609E+02  0.62999237119E+02  0.20000050468E+01 0.  0.
        -13    1    3    3    0    0  0.21596067613E+02  0.21451782696E+02  0.52906784269E+01  0.30896141497E+02  0.10566000000E+00 0.  1.
         13    1    4    4    0    0 -0.16165203568E+01 -0.17510371689E+01 -0.38566404323E+01  0.45347666633E+01  0.10566000000E+00 0. -1.
        -13    1    4    4    0    0 -0.32546532974E+01 -0.37962300694E+01 -0.10134227668E+02  0.11301232911E+02  0.10566000000E+00 0.  1.
         14    1    4    4    0    0 -0.16724893958E+02 -0.15904515458E+02 -0.41130223508E+02  0.47163237545E+02  0.00000000000E+00 0. -1.
<mgrwt>
<rscale>  0 0.79581858E+02</rscale>
<asrwt>0</asrwt>
<pdfrwt beam="1">  1        2 0.11055830E-01 0.79581858E+02</pdfrwt>
<pdfrwt beam="2">  1       -1 0.33896128E-02 0.79581858E+02</pdfrwt>
<totfact> 0.16482814E+05</totfact>
</mgrwt>
</event>
<event>
 8    1  0.2389776E-024  0.8186447E+02  0.7818608E-02  0.1323842E+00
          2   -1    0    0  501    0  0.00000000000E+00  0.00000000000E+00  0.18037648186E+03  0.18037648188E+03  0.25500000000E-02 0. -1.
         -1   -1    0    0    0  501 -0.00000000000E+00 -0.00000000000E+00 -0.92886151697E+01  0.92886165371E+01  0.50400000000E-02 0.  1.
         24    2    1    2    0    0  0.00000000000E+00  0.00000000000E+00  0.17108786669E+03  0.18966509842E+03  0.81864469878E+02 0.  0.
         66    2    3    3    0    0  0.42890410796E+01  0.24597230250E+02  0.16066917155E+03  0.16260996985E+03  0.19999997348E+01 0.  0.
        -13    1    3    3    0    0 -0.42890410796E+01 -0.24597230250E+02  0.10418695146E+02  0.27055128570E+02  0.10566000000E+00 0.  1.
         13    1    4    4    0    0  0.14046333528E+01  0.12529255381E+02  0.79831380797E+02  0.80820886900E+02  0.10566000000E+00 0. -1.
        -13    1    4    4    0    0  0.23402602416E+01  0.10890792583E+02  0.72038509540E+02  0.72894747423E+02  0.10566000000E+00 0.  1.
        -14    1    4    4    0    0  0.54414748527E+00  0.11771822862E+01  0.87992812123E+01  0.88943355274E+01  0.00000000000E+00 0.  1.
<mgrwt>
<rscale>  0 0.81864470E+02</rscale>
<asrwt>0</asrwt>
<pdfrwt beam="1">  1        2 0.27750227E-01 0.81864470E+02</pdfrwt>
<pdfrwt beam="2">  1       -1 0.14290179E-02 0.81864470E+02</pdfrwt>
<totfact> 0.20030034E+05</totfact>
</mgrwt>
</event>
<event>
 8    1  0.2389776E-024  0.7932559E+02  0.7818608E-02  0.1330976E+00
          2   -1    0    0  501    0  0.00000000000E+00  0.00000000000E+00  0.14339319283E+03  0.14339319285E+03  0.25500000000E-02 0. -1.
         -1   -1    0    0    0  501 -0.00000000000E+00 -0.00000000000E+00 -0.10970794676E+02  0.10970795834E+02  0.50400000000E-02 0.  1.
         24    2    1    2    0    0  0.44408920985E-15 -0.71054273576E-14  0.13242239815E+03  0.15436398868E+03  0.79325591522E+02 0.  0.
         66    2    3    3    0    0  0.36137783665E+01  0.34131307833E+02  0.10483643970E+03  0.11032989012E+03  0.19999992448E+01 0.  0.
        -13    1    3    3    0    0 -0.36137783665E+01 -0.34131307833E+02  0.27585958453E+02  0.44034098563E+02  0.10566000000E+00 0.  1.
         13    1    4    4    0    0  0.26605011864E+01  0.18512653277E+02  0.58006994245E+02  0.60947675454E+02  0.10566000000E+00 0. -1.
        -13    1    4    4    0    0  0.70752809859E+00  0.69669250795E+01  0.21950954400E+02  0.23041141556E+02  0.10566000000E+00 0.  1.
        -14    1    4    4    0    0  0.24574908152E+00  0.86517294767E+01  0.24878491052E+02  0.26341073110E+02  0.00000000000E+00 0.  1.
<mgrwt>
<rscale>  0 0.79325592E+02</rscale>
<asrwt>0</asrwt>
<pdfrwt beam="1">  1        2 0.22060490E-01 0.79325592E+02</pdfrwt>
<pdfrwt beam="2">  1       -1 0.16878148E-02 0.79325592E+02</pdfrwt>
<totfact> 0.20192059E+05</totfact>
</mgrwt>
</event>
<event>
 8    1  0.2389776E-024  0.8324766E+02  0.7818608E-02  0.1320080E+00
         -1   -1    0    0    0  501 -0.00000000000E+00  0.00000000000E+00  0.83779998110E+02  0.83779998262E+02  0.50400000000E-02 0.  1.
          2   -1    0    0  501    0  0.00000000000E+00 -0.00000000000E+00 -0.20679677788E+02  0.20679677945E+02  0.25500000000E-02 0. -1.
         24    2    1    2    0    0  0.44408920985E-15  0.71054273576E-14  0.63100320323E+02  0.10445967621E+03  0.83247663802E+02 0.  0.
         66    2    3    3    0    0  0.34370278542E+01 -0.36422697627E+02  0.67208676250E+01  0.37250451294E+02  0.19999992637E+01 0.  0.
        -13    1    3    3    0    0 -0.34370278542E+01  0.36422697627E+02  0.56379452698E+02  0.67209224913E+02  0.10566000000E+00 0.  1.
         13    1    4    4    0    0 -0.84676480098E-02 -0.26836118362E+00  0.80252385751E-01  0.29948941042E+00  0.10566000000E+00 0. -1.
        -13    1    4    4    0    0  0.24862943040E+00 -0.95022854545E+01  0.16920151108E+01  0.96555333682E+01  0.10566000000E+00 0. -1.
         14    1    4    4    0    0  0.31968660718E+01 -0.26652050989E+02  0.49486001284E+01  0.27295428515E+02  0.00000000000E+00 0. -1.
<mgrwt>
<rscale>  0 0.83247664E+02</rscale>
<asrwt>0</asrwt>
<pdfrwt beam="1">  1        2 0.31814889E-02 0.83247664E+02</pdfrwt>
<pdfrwt beam="2">  1       -1 0.12889230E-01 0.83247664E+02</pdfrwt>
<totfact> 0.11147419E+05</totfact>
</mgrwt>
</event>
<event>
 8    1  0.2389776E-024  0.8101319E+02  0.7818608E-02  0.1326200E+00
         -1   -1    0    0    0  501 -0.00000000000E+00  0.00000000000E+00  0.14770254525E+02  0.14770255385E+02  0.50400000000E-02 0.  1.
          2   -1    0    0  501    0  0.00000000000E+00 -0.00000000000E+00 -0.11108706274E+03  0.11108706277E+03  0.25500000000E-02 0. -1.
         24    2    1    2    0    0  0.00000000000E+00  0.00000000000E+00 -0.96316808213E+02  0.12585731815E+03  0.81013190211E+02 0.  0.
         66    2    3    3    0    0  0.30790542451E+02  0.19680983539E+02 -0.21128365782E+02  0.42258803472E+02  0.20000032080E+01 0.  0.
        -13    1    3    3    0    0 -0.30790542451E+02 -0.19680983539E+02 -0.75188442431E+02  0.83598514680E+02  0.10566000000E+00 0.  1.
         13    1    4    4    0    0  0.59692076854E+01  0.31125040510E+01 -0.39400274974E+01  0.78009039588E+01  0.10566000000E+00 0. -1.
        -13    1    4    4    0    0  0.65432453017E+01  0.48749725892E+01 -0.43917367054E+01  0.92670347010E+01  0.10566000000E+00 0.  1.
         14    1    4    4    0    0  0.18278089464E+02  0.11693506899E+02 -0.12796601579E+02  0.25190864812E+02  0.00000000000E+00 0. -1.
<mgrwt>
<rscale>  0 0.81013190E+02</rscale>
<asrwt>0</asrwt>
<pdfrwt beam="1">  1        2 0.17090317E-01 0.81013190E+02</pdfrwt>
<pdfrwt beam="2">  1       -1 0.22723470E-02 0.81013190E+02</pdfrwt>
<totfact> 0.17661452E+05</totfact>
</mgrwt>
</event>
<event>
 8    1  0.2389776E-024  0.8514418E+02  0.7818608E-02  0.1315056E+00
          2   -1    0    0  501    0  0.00000000000E+00  0.00000000000E+00  0.87713344033E+03  0.87713344033E+03  0.25500000000E-02 0. -1.
         -1   -1    0    0    0  501 -0.00000000000E+00 -0.00000000000E+00 -0.20662537851E+01  0.20662599319E+01  0.50400000000E-02 0.  1.
         24    2    1    2    0    0 -0.35527136788E-14  0.35527136788E-14  0.87506718654E+03  0.87919970026E+03  0.85144183474E+02 0.  0.
         66    2    3    3    0    0 -0.27426405115E+02  0.21853545159E+02  0.68658464679E+03  0.68748255422E+03  0.20000019225E+01 0.  0.
        -13    1    3    3    0    0  0.27426405115E+02 -0.21853545159E+02  0.18848253975E+03  0.19171714604E+03  0.10566000000E+00 0.  1.
         13    1    4    4    0    0 -0.17820063620E+02  0.14542376485E+02  0.46710248846E+03  0.46766845230E+03  0.10566000000E+00 0. -1.
        -13    1    4    4    0    0 -0.33064916627E+01  0.25261273950E+01  0.73670662892E+02  0.73788155837E+02  0.10566000000E+00 0.  1.
         14    1    4    4    0    0 -0.62998498318E+01  0.47850412790E+01  0.14581149544E+03  0.14602594609E+03  0.00000000000E+00 0. -1.
<mgrwt>
<rscale>  0 0.85144183E+02</rscale>
<asrwt>0</asrwt>
<pdfrwt beam="1">  1        2 0.13494354E+00 0.85144183E+02</pdfrwt>
<pdfrwt beam="2">  1       -1 0.31788583E-03 0.85144183E+02</pdfrwt>
<totfact> 0.29620227E+05</totfact>
</mgrwt>
</event>
<event>
 8    1  0.2389776E-024  0.8040621E+02  0.7818608E-02  0.1327903E+00
          2   -1    0    0  501    0  0.00000000000E+00  0.00000000000E+00  0.92155291168E+01  0.92155294696E+01  0.25500000000E-02 0. -1.
         -1   -1    0    0    0  501 -0.00000000000E+00 -0.00000000000E+00 -0.17538759554E+03  0.17538759561E+03  0.50400000000E-02 0.  1.
         24    2    1    2    0    0  0.35527136788E-14  0.00000000000E+00 -0.16617206642E+03  0.18460312508E+03  0.80406207040E+02 0.  0.
         66    2    3    3    0    0 -0.24311896166E+02 -0.31903822170E+02 -0.77820748148E+02  0.87572775349E+02  0.19999939490E+01 0.  0.
        -13    1    3    3    0    0  0.24311896166E+02  0.31903822170E+02 -0.88351318273E+02  0.97030349731E+02  0.10566000000E+00 0.  1.
         13    1    4    4    0    0 -0.12832935591E+02 -0.16036096942E+02 -0.41058297735E+02  0.45908992778E+02  0.10566000000E+00 0. -1.
        -13    1    4    4    0    0 -0.10034276834E+01 -0.17328751218E+01 -0.34287288310E+01  0.39720358427E+01  0.10566000000E+00 0.  1.
         14    1    4    4    0    0 -0.10475532891E+02 -0.14134850107E+02 -0.33333721582E+02  0.37691746728E+02  0.00000000000E+00 0. -1.
<mgrwt>
<rscale>  0 0.80406207E+02</rscale>
<asrwt>0</asrwt>
<pdfrwt beam="1">  1        2 0.14177739E-02 0.80406207E+02</pdfrwt>
<pdfrwt beam="2">  1       -1 0.26982705E-01 0.80406207E+02</pdfrwt>
<totfact> 0.10215392E+05</totfact>
</mgrwt>
</event>
<event>
 8    1  0.2389776E-024  0.8414217E+02  0.7818608E-02  0.1317691E+00
         -1   -1    0    0    0  501 -0.00000000000E+00  0.00000000000E+00  0.12856195533E+02  0.12856196521E+02  0.50400000000E-02 0.  1.
          2   -1    0    0  501    0  0.00000000000E+00 -0.00000000000E+00 -0.13767495158E+03  0.13767495161E+03  0.25500000000E-02 0. -1.
         24    2    1    2    0    0  0.17763568394E-14  0.00000000000E+00 -0.12481875605E+03  0.15053114813E+03  0.84142169539E+02 0.  0.
         66    2    3    3    0    0 -0.15652024257E+02  0.35004465258E+02 -0.93310669067E+02  0.10090183058E+03  0.20000001200E+01 0.  0.
        -13    1    3    3    0    0  0.15652024257E+02 -0.35004465258E+02 -0.31508086983E+02  0.49629317552E+02  0.10566000000E+00 0.  1.
         13    1    4    4    0    0 -0.11784922747E+02  0.25122084121E+02 -0.67378093279E+02  0.72868526351E+02  0.10566000000E+00 0. -1.
        -13    1    4    4    0    0 -0.59109447009E+00  0.17417140612E+01 -0.37494701964E+01  0.41776370513E+01  0.10566000000E+00 0.  1.
         14    1    4    4    0    0 -0.32760070402E+01  0.81406670754E+01 -0.22183105592E+02  0.23855667173E+02  0.00000000000E+00 0. -1.
<mgrwt>
<rscale>  0 0.84142170E+02</rscale>
<asrwt>0</asrwt>
<pdfrwt beam="1">  1        2 0.21180761E-01 0.84142170E+02</pdfrwt>
<pdfrwt beam="2">  1       -1 0.19778764E-02 0.84142170E+02</pdfrwt>
<totfact> 0.17037077E+05</totfact>
</mgrwt>
</event>
<event>
 8    1  0.2389776E-024  0.7873050E+02  0.7818608E-02  0.1332693E+00
          2   -1    0    0  501    0  0.00000000000E+00  0.00000000000E+00  0.73093734599E+03  0.73093734599E+03  0.25500000000E-02 0. -1.
         -1   -1    0    0    0  501 -0.00000000000E+00 -0.00000000000E+00 -0.21200457724E+01  0.21200517632E+01  0.50400000000E-02 0.  1.
         24    2    1    2    0    0 -0.35527136788E-14  0.35527136788E-14  0.72881730021E+03  0.73305739775E+03  0.78730497971E+02 0.  0.
         66    2    3    3    0    0  0.26882801514E+02 -0.17604213288E+02  0.57594775150E+03  0.57684695178E+03  0.19999949084E+01 0.  0.
        -13    1    3    3    0    0 -0.26882801514E+02  0.17604213288E+02  0.15286954871E+03  0.15621044597E+03  0.10566000000E+00 0.  1.
         13    1    4    4    0    0  0.37573794472E+01 -0.29769022010E+01  0.78547379416E+02  0.78693594556E+02  0.10566000000E+00 0.  1.
        -13    1    4    4    0    0  0.90793499474E+01 -0.56771732201E+01  0.20291387196E+03  0.20319624871E+03  0.10566000000E+00 0.  1.
         14    1    4    4    0    0  0.14046072119E+02 -0.89501378671E+01  0.29448650013E+03  0.29495710852E+03  0.00000000000E+00 0. -1.
<mgrwt>
<rscale>  0 0.78730498E+02</rscale>
<asrwt>0</asrwt>
<pdfrwt beam="1">  1        2 0.11245189E+00 0.78730498E+02</pdfrwt>
<pdfrwt beam="2">  1       -1 0.32616138E-03 0.78730498E+02</pdfrwt>
<totfact> 0.35204784E+05</totfact>
</mgrwt>
</event>
<event>
 8    1  0.2389776E-024  0.7901623E+02  0.7818608E-02  0.1331867E+00
         -1   -1    0    0    0  501 -0.00000000000E+00  0.00000000000E+00  0.32684001247E+02  0.32684001636E+02  0.50400000000E-02 0.  1.
          2   -1    0    0  501    0  0.00000000000E+00 -0.00000000000E+00 -0.47757041317E+02  0.47757041385E+02  0.25500000000E-02 0. -1.
         24    2    1    2    0    0  0.00000000000E+00  0.00000000000E+00 -0.15073040070E+02  0.80441043021E+02  0.79016231658E+02 0.  0.
         66    2    3    3    0    0 -0.19599484796E+02  0.25518137754E+02 -0.30835611355E+02  0.44611097776E+02  0.19999896084E+01 0.  0.
        -13    1    3    3    0    0  0.19599484796E+02 -0.25518137754E+02  0.15762571285E+02  0.35829945245E+02  0.10566000000E+00 0.  1.
         13    1    4    4    0    0 -0.11180976840E+02  0.15957632516E+02 -0.18253961940E+02  0.26699785938E+02  0.10566000000E+00 0. -1.
        -13    1    4    4    0    0 -0.13753876427E+01  0.16866234124E+01 -0.23449143532E+01  0.32009650205E+01  0.10566000000E+00 0. -1.
         14    1    4    4    0    0 -0.70431203139E+01  0.78738818256E+01 -0.10236735062E+02  0.14710346817E+02  0.00000000000E+00 0. -1.
<mgrwt>
<rscale>  0 0.79016232E+02</rscale>
<asrwt>0</asrwt>
<pdfrwt beam="1">  1        2 0.73472371E-02 0.79016232E+02</pdfrwt>
<pdfrwt beam="2">  1       -1 0.50283080E-02 0.79016232E+02</pdfrwt>
<totfact> 0.15305979E+05</totfact>
</mgrwt>
</event>
<event>
 8    1  0.2389776E-024  0.7331392E+02  0.7818608E-02  0.1349173E+00
          2   -1    0    0  501    0  0.00000000000E+00  0.00000000000E+00  0.11183489989E+03  0.11183489992E+03  0.25500000000E-02 0. -1.
         -1   -1    0    0    0  501 -0.00000000000E+00 -0.00000000000E+00 -0.12015323689E+02  0.12015324746E+02  0.50400000000E-02 0.  1.
         24    2    1    2    0    0  0.00000000000E+00 -0.17763568394E-14  0.99819576197E+02  0.12385022466E+03  0.73313916526E+02 0.  0.
         66    2    3    3    0    0  0.25464296369E+02  0.10821393042E+02  0.90497218379E+02  0.94653470454E+02  0.19999994103E+01 0.  0.
        -13    1    3    3    0    0 -0.25464296369E+02 -0.10821393042E+02  0.93223578183E+01  0.29196754207E+02  0.10566000000E+00 0.  1.
         13    1    4    4    0    0  0.13040409928E+02  0.53508833210E+01  0.46620282242E+02  0.48704682770E+02  0.10566000000E+00 0. -1.
        -13    1    4    4    0    0  0.11226536873E+02  0.51014583038E+01  0.38451335978E+02  0.40380396352E+02  0.10566000000E+00 0.  1.
        -14    1    4    4    0    0  0.11973495681E+01  0.36905141693E+00  0.54256001587E+01  0.55683913313E+01  0.00000000000E+00 0.  1.
<mgrwt>
<rscale>  0 0.73313917E+02</rscale>
<asrwt>0</asrwt>
<pdfrwt beam="1">  1        2 0.17205369E-01 0.73313917E+02</pdfrwt>
<pdfrwt beam="2">  1       -1 0.18485114E-02 0.73313917E+02</pdfrwt>
<totfact> 0.23076284E+05</totfact>
</mgrwt>
</event>
<event>
 8    1  0.2389776E-024  0.7776930E+02  0.7818608E-02  0.1335504E+00
          2   -1    0    0  501    0  0.00000000000E+00  0.00000000000E+00  0.17879493915E+02  0.17879494097E+02  0.25500000000E-02 0. -1.
         -1   -1    0    0    0  501 -0.00000000000E+00 -0.00000000000E+00 -0.84567038175E+02  0.84567038325E+02  0.50400000000E-02 0.  1.
         24    2    1    2    0    0  0.00000000000E+00  0.00000000000E+00 -0.66687544260E+02  0.10244653242E+03  0.77769296293E+02 0.  0.
         66    2    3    3    0    0  0.38118084883E+02  0.11599466177E+01 -0.23536357253E+02  0.44858599872E+02  0.19999996165E+01 0.  0.
        -13    1    3    3    0    0 -0.38118084883E+02 -0.11599466177E+01 -0.43151187006E+02  0.57587932550E+02  0.10566000000E+00 0.  1.
         13    1    4    4    0    0  0.15718375955E+02 -0.30231804030E-01 -0.10463348090E+02  0.18882824839E+02  0.10566000000E+00 0. -1.
        -13    1    4    4    0    0  0.36813031681E+01  0.48520170099E+00 -0.21657169409E+01  0.42998729760E+01  0.10566000000E+00 0.  1.
         14    1    4    4    0    0  0.18718405759E+02  0.70497672072E+00 -0.10907292223E+02  0.21675902057E+02  0.00000000000E+00 0. -1.
<mgrwt>
<rscale>  0 0.77769296E+02</rscale>
<asrwt>0</asrwt>
<pdfrwt beam="1">  1        2 0.27506914E-02 0.77769296E+02</pdfrwt>
<pdfrwt beam="2">  1       -1 0.13010313E-01 0.77769296E+02</pdfrwt>
<totfact> 0.13166141E+05</totfact>
</mgrwt>
</event>
<event>
 8    1  0.2389776E-024  0.7918434E+02  0.7818608E-02  0.1331382E+00
         -1   -1    0    0    0  501 -0.00000000000E+00  0.00000000000E+00  0.22504421958E+02  0.22504422522E+02  0.50400000000E-02 0.  1.
          2   -1    0    0  501    0  0.00000000000E+00 -0.00000000000E+00 -0.69654753372E+02  0.69654753418E+02  0.25500000000E-02 0. -1.
         24    2    1    2    0    0  0.17763568394E-14  0.00000000000E+00 -0.47150331414E+02  0.92159175940E+02  0.79184341619E+02 0.  0.
         66    2    3    3    0    0  0.13440292251E+02 -0.17067959020E+02 -0.62078064335E+02  0.65800020887E+02  0.19999990836E+01 0.  0.
        -13    1    3    3    0    0 -0.13440292251E+02  0.17067959020E+02  0.14927732921E+02  0.26359155053E+02  0.10566000000E+00 0.  1.
         13    1    4    4    0    0  0.99593450172E+00 -0.16321377362E+01 -0.51488090892E+01  0.54933740264E+01  0.10566000000E+00 0. -1.
        -13    1    4    4    0    0  0.27877403383E+01 -0.44195089404E+01 -0.13733928111E+02  0.14694743988E+02  0.10566000000E+00 0.  1.
         14    1    4    4    0    0  0.96566174110E+01 -0.11016312344E+02 -0.43195327134E+02  0.45611902873E+02  0.00000000000E+00 0. -1.
<mgrwt>
<rscale>  0 0.79184342E+02</rscale>
<asrwt>0</asrwt>
<pdfrwt beam="1">  1        2 0.10716116E-01 0.79184342E+02</pdfrwt>
<pdfrwt beam="2">  1       -1 0.34622188E-02 0.79184342E+02</pdfrwt>
<totfact> 0.16580436E+05</totfact>
</mgrwt>
</event>
<event>
 8    1  0.2389776E-024  0.7770412E+02  0.7818608E-02  0.1335696E+00
          2   -1    0    0  501    0  0.00000000000E+00  0.00000000000E+00  0.76088917078E+02  0.76088917121E+02  0.25500000000E-02 0. -1.
         -1   -1    0    0    0  501 -0.00000000000E+00 -0.00000000000E+00 -0.19838401253E+02  0.19838401894E+02  0.50400000000E-02 0.  1.
         24    2    1    2    0    0  0.10658141036E-13 -0.71054273576E-14  0.56250515824E+02  0.95927319014E+02  0.77704118313E+02 0.  0.
         66    2    3    3    0    0 -0.29815191114E+02  0.23958889034E+02  0.36379448957E+02  0.52824599293E+02  0.19999997919E+01 0.  0.
        -13    1    3    3    0    0  0.29815191114E+02 -0.23958889034E+02  0.19871066868E+02  0.43102719721E+02  0.10566000000E+00 0.  1.
         13    1    4    4    0    0 -0.27819651881E+01  0.15972580776E+01  0.28209163198E+01  0.42730898181E+01  0.10566000000E+00 0. -1.
        -13    1    4    4    0    0 -0.98544181843E+01  0.80959392440E+01  0.12496051640E+02  0.17855426644E+02  0.10566000000E+00 0.  1.
         14    1    4    4    0    0 -0.17178807741E+02  0.14265691712E+02  0.21062480997E+02  0.30696082831E+02  0.00000000000E+00 0. -1.
<mgrwt>
<rscale>  0 0.77704118E+02</rscale>
<asrwt>0</asrwt>
<pdfrwt beam="1">  1        2 0.11705987E-01 0.77704118E+02</pdfrwt>
<pdfrwt beam="2">  1       -1 0.30520618E-02 0.77704118E+02</pdfrwt>
<totfact> 0.17829733E+05</totfact>
</mgrwt>
</event>
<event>
 8    1  0.2389776E-024  0.8083404E+02  0.7818608E-02  0.1326701E+00
         -1   -1    0    0    0  501 -0.00000000000E+00  0.00000000000E+00  0.17488510098E+02  0.17488510824E+02  0.50400000000E-02 0.  1.
          2   -1    0    0  501    0  0.00000000000E+00 -0.00000000000E+00 -0.93406204126E+02  0.93406204161E+02  0.25500000000E-02 0. -1.
         24    2    1    2    0    0  0.00000000000E+00  0.00000000000E+00 -0.75917694028E+02  0.11089471498E+03  0.80834037045E+02 0.  0.
         66    2    3    3    0    0  0.33186983986E+01 -0.23083719093E+02 -0.83226215122E+02  0.86455044553E+02  0.19999997378E+01 0.  0.
        -13    1    3    3    0    0 -0.33186983986E+01  0.23083719093E+02  0.73085210936E+01  0.24439670432E+02  0.10566000000E+00 0.  1.
         13    1    4    4    0    0  0.17539811728E+01 -0.10994890998E+02 -0.38846725228E+02  0.40410930489E+02  0.10566000000E+00 0. -1.
        -13    1    4    4    0    0  0.90701946558E+00 -0.41068504143E+01 -0.17366491322E+02  0.17868830110E+02  0.10566000000E+00 0.  1.
         14    1    4    4    0    0  0.65769776027E+00 -0.79819776802E+01 -0.27012998571E+02  0.28175283953E+02  0.00000000000E+00 0. -1.
<mgrwt>
<rscale>  0 0.80834037E+02</rscale>
<asrwt>0</asrwt>
<pdfrwt beam="1">  1        2 0.14370185E-01 0.80834037E+02</pdfrwt>
<pdfrwt beam="2">  1       -1 0.26905401E-02 0.80834037E+02</pdfrwt>
<totfact> 0.16917078E+05</totfact>
</mgrwt>
</event>
<event>
 8    1  0.2389776E-024  0.7928956E+02  0.7818608E-02  0.1331080E+00
         -1   -1    0    0    0  501 -0.00000000000E+00  0.00000000000E+00  0.42049656758E+01  0.42049686962E+01  0.50400000000E-02 0.  1.
          2   -1    0    0  501    0  0.00000000000E+00 -0.00000000000E+00 -0.37377425512E+03  0.37377425513E+03  0.25500000000E-02 0. -1.
         24    2    1    2    0    0  0.00000000000E+00 -0.35527136788E-14 -0.36956928944E+03  0.37797922382E+03  0.79289557591E+02 0.  0.
         66    2    3    3    0    0 -0.21885348219E+02  0.26187126823E+02 -0.28083379390E+03  0.28290697019E+03  0.19999768149E+01 0.  0.
        -13    1    3    3    0    0  0.21885348219E+02 -0.26187126823E+02 -0.88735495542E+02  0.95072253634E+02  0.10566000000E+00 0.  1.
         13    1    4    4    0    0 -0.10730049414E+02  0.13014343980E+02 -0.13517254054E+03  0.13622090145E+03  0.10566000000E+00 0. -1.
        -13    1    4    4    0    0 -0.24654855370E+01  0.32299411253E+01 -0.38648787034E+02  0.38861948508E+02  0.10566000000E+00 0.  1.
        -14    1    4    4    0    0 -0.86898132682E+01  0.99428417176E+01 -0.10701246632E+03  0.10782412024E+03  0.00000000000E+00 0.  1.
<mgrwt>
<rscale>  0 0.79289558E+02</rscale>
<asrwt>0</asrwt>
<pdfrwt beam="1">  1        2 0.57503705E-01 0.79289558E+02</pdfrwt>
<pdfrwt beam="2">  1       -1 0.64691833E-03 0.79289558E+02</pdfrwt>
<totfact> 0.28236827E+05</totfact>
</mgrwt>
</event>
<event>
 8    1  0.2389776E-024  0.8054378E+02  0.7818608E-02  0.1327515E+00
          2   -1    0    0  501    0  0.00000000000E+00  0.00000000000E+00  0.66326289039E+03  0.66326289039E+03  0.25500000000E-02 0. -1.
         -1   -1    0    0    0  501 -0.00000000000E+00 -0.00000000000E+00 -0.24452196347E+01  0.24452248288E+01  0.50400000000E-02 0.  1.
         24    2    1    2    0    0 -0.17763568394E-14  0.35527136788E-14  0.66081767075E+03  0.66570811522E+03  0.80543781214E+02 0.  0.
         66    2    3    3    0    0 -0.13759896064E+02  0.19692713545E+02  0.59749927530E+03  0.59798538585E+03  0.20000005995E+01 0.  0.
        -13    1    3    3    0    0  0.13759896064E+02 -0.19692713545E+02  0.63318395457E+02  0.67722729373E+02  0.10566000000E+00 0.  1.
         13    1    4    4    0    0 -0.36544533029E+01  0.62906515255E+01  0.19404900110E+03  0.19418535814E+03  0.10566000000E+00 0. -1.
        -13    1    4    4    0    0 -0.43825535678E+00  0.62955915553E+00  0.21774674990E+02  0.21788438389E+02  0.10566000000E+00 0. -1.
         14    1    4    4    0    0 -0.96671874048E+01  0.12772502864E+02  0.38167559921E+03  0.38201158932E+03  0.00000000000E+00 0. -1.
<mgrwt>
<rscale>  0 0.80543781E+02</rscale>
<asrwt>0</asrwt>
<pdfrwt beam="1">  1        2 0.10204064E+00 0.80543781E+02</pdfrwt>
<pdfrwt beam="2">  1       -1 0.37618731E-03 0.80543781E+02</pdfrwt>
<totfact> 0.32447589E+05</totfact>
</mgrwt>
</event>
<event>
 8    1  0.2389776E-024  0.7783867E+02  0.7818608E-02  0.1335299E+00
          2   -1    0    0  501    0  0.00000000000E+00  0.00000000000E+00  0.49979402199E+03  0.49979402200E+03  0.25500000000E-02 0. -1.
         -1   -1    0    0    0  501 -0.00000000000E+00 -0.00000000000E+00 -0.30306754435E+01  0.30306796343E+01  0.50400000000E-02 0.  1.
         24    2    1    2    0    0  0.88817841970E-15 -0.17763568394E-14  0.49676334655E+03  0.50282470163E+03  0.77838667114E+02 0.  0.
         66    2    3    3    0    0  0.77074256566E+01 -0.15377512477E+02  0.47388476973E+03  0.47420106207E+03  0.19999978321E+01 0.  0.
        -13    1    3    3    0    0 -0.77074256566E+01  0.15377512477E+02  0.22878576818E+02  0.28623639557E+02  0.10566000000E+00 0.  1.
         13    1    4    4    0    0  0.46732927003E+01 -0.88245819598E+01  0.27108564139E+03  0.27126951366E+03  0.10566000000E+00 0. -1.
        -13    1    4    4    0    0  0.18831237895E+01 -0.30015923331E+01  0.86790590942E+02  0.86862958457E+02  0.10566000000E+00 0.  1.
        -14    1    4    4    0    0  0.11510091667E+01 -0.35513381838E+01  0.11600853740E+03  0.11606858995E+03  0.00000000000E+00 0.  1.
<mgrwt>
<rscale>  0 0.77838667E+02</rscale>
<asrwt>0</asrwt>
<pdfrwt beam="1">  1        2 0.76891387E-01 0.77838667E+02</pdfrwt>
<pdfrwt beam="2">  1       -1 0.46625809E-03 0.77838667E+02</pdfrwt>
<totfact> 0.32696972E+05</totfact>
</mgrwt>
</event>
<event>
 8    1  0.2389776E-024  0.7959621E+02  0.7818608E-02  0.1330201E+00
          2   -1    0    0  501    0  0.00000000000E+00  0.00000000000E+00  0.34854262367E+01  0.34854271695E+01  0.25500000000E-02 0. -1.
         -1   -1    0    0    0  501 -0.00000000000E+00 -0.00000000000E+00 -0.45443192567E+03  0.45443192570E+03  0.50400000000E-02 0.  1.
         24    2    1    2    0    0  0.00000000000E+00  0.88817841970E-15 -0.45094649943E+03  0.45791735286E+03  0.79596210374E+02 0.  0.
         66    2    3    3    0    0 -0.39008904685E+02 -0.48078871180E+01 -0.26064424979E+03  0.26359862549E+03  0.19999980977E+01 0.  0.
        -13    1    3    3    0    0  0.39008904685E+02  0.48078871180E+01 -0.19030224964E+03  0.19431872737E+03  0.10566000000E+00 0.  1.
         13    1    4    4    0    0 -0.60150775317E+01 -0.37451023874E+00 -0.37365158622E+02  0.37848218697E+02  0.10566000000E+00 0.  1.
        -13    1    4    4    0    0 -0.20831101794E+02 -0.30269421939E+01 -0.14472983407E+03  0.14625263490E+03  0.10566000000E+00 0. -1.
         14    1    4    4    0    0 -0.12162725359E+02 -0.14064346853E+01 -0.78549257097E+02  0.79497771901E+02  0.00000000000E+00 0. -1.
<mgrwt>
<rscale>  0 0.79596210E+02</rscale>
<asrwt>0</asrwt>
<pdfrwt beam="1">  1        2 0.53621985E-03 0.79596210E+02</pdfrwt>
<pdfrwt beam="2">  1       -1 0.69912557E-01 0.79596210E+02</pdfrwt>
<totfact> 0.71650183E+04</totfact>
</mgrwt>
</event>
<event>
 8    1  0.2389776E-024  0.7976022E+02  0.7818608E-02  0.1329733E+00
          2   -1    0    0  501    0  0.00000000000E+00  0.00000000000E+00  0.19812494053E+03  0.19812494055E+03  0.25500000000E-02 0. -1.
         -1   -1    0    0    0  501 -0.00000000000E+00 -0.00000000000E+00 -0.80273737883E+01  0.80273753705E+01  0.50400000000E-02 0.  1.
         24    2    1    2    0    0  0.00000000000E+00  0.00000000000E+00  0.19009756674E+03  0.20615231592E+03  0.79760218636E+02 0.  0.
         66    2    3    3    0    0 -0.10723217359E+01 -0.25539192112E+02  0.17414199673E+03  0.17601941718E+03  0.19999983315E+01 0.  0.
        -13    1    3    3    0    0  0.10723217359E+01  0.25539192112E+02  0.15955570015E+02  0.30132898736E+02  0.10566000000E+00 0.  1.
         13    1    4    4    0    0 -0.31450231296E+00 -0.80018296892E+01  0.51635666479E+02  0.52253051651E+02  0.10566000000E+00 0.  1.
        -13    1    4    4    0    0 -0.15140818593E+00 -0.15004181417E+02  0.10546798293E+03  0.10653006604E+03  0.10566000000E+00 0. -1.
        -14    1    4    4    0    0 -0.60641123699E+00 -0.25331810068E+01  0.17038347320E+02  0.17236299487E+02  0.00000000000E+00 0.  1.
<mgrwt>
<rscale>  0 0.79760219E+02</rscale>
<asrwt>0</asrwt>
<pdfrwt beam="1">  1        2 0.30480761E-01 0.79760219E+02</pdfrwt>
<pdfrwt beam="2">  1       -1 0.12349807E-02 0.79760219E+02</pdfrwt>
<totfact> 0.22161428E+05</totfact>
</mgrwt>
</event>
<event>
 8    1  0.2389776E-024  0.7495044E+02  0.7818608E-02  0.1344025E+00
         -1   -1    0    0    0  501 -0.00000000000E+00  0.00000000000E+00  0.35102107550E+02  0.35102107912E+02  0.50400000000E-02 0.  1.
          2   -1    0    0  501    0  0.00000000000E+00 -0.00000000000E+00 -0.40008769085E+02  0.40008769166E+02  0.25500000000E-02 0. -1.
         24    2    1    2    0    0  0.17763568394E-14  0.35527136788E-14 -0.49066615342E+01  0.75110877078E+02  0.74950440479E+02 0.  0.
         66    2    3    3    0    0  0.14344370027E+02  0.23893705796E+02 -0.27522956705E+02  0.39219679000E+02  0.19999867358E+01 0.  0.
        -13    1    3    3    0    0 -0.14344370027E+02 -0.23893705796E+02  0.22616295171E+02  0.35891198078E+02  0.10566000000E+00 0.  1.
         13    1    4    4    0    0  0.32292114829E+01  0.52189046544E+01 -0.64395483772E+01  0.88962756213E+01  0.10566000000E+00 0.  1.
        -13    1    4    4    0    0  0.50298990340E+01  0.82624725527E+01 -0.10514361493E+02  0.14287452489E+02  0.10566000000E+00 0. -1.
         14    1    4    4    0    0  0.60852595102E+01  0.10412328589E+02 -0.10569046835E+02  0.16035950890E+02  0.00000000000E+00 0. -1.
<mgrwt>
<rscale>  0 0.74950440E+02</rscale>
<asrwt>0</asrwt>
<pdfrwt beam="1">  1        2 0.61551952E-02 0.74950440E+02</pdfrwt>
<pdfrwt beam="2">  1       -1 0.54003243E-02 0.74950440E+02</pdfrwt>
<totfact> 0.17055470E+05</totfact>
</mgrwt>
</event>
<event>
 8    1  0.2389776E-024  0.7648132E+02  0.7818608E-02  0.1339344E+00
         -1   -1    0    0    0  501 -0.00000000000E+00  0.00000000000E+00  0.14867804762E+02  0.14867805616E+02  0.50400000000E-02 0.  1.
          2   -1    0    0  501    0  0.00000000000E+00 -0.00000000000E+00 -0.98356682464E+02  0.98356682497E+02  0.25500000000E-02 0. -1.
         24    2    1    2    0    0  0.00000000000E+00  0.00000000000E+00 -0.83488877702E+02  0.11322448811E+03  0.76481318037E+02 0.  0.
         66    2    3    3    0    0  0.13166445039E+02 -0.35162439753E+02 -0.31243104240E+02  0.48886439860E+02  0.19999988381E+01 0.  0.
        -13    1    3    3    0    0 -0.13166445039E+02  0.35162439753E+02 -0.52245773462E+02  0.64338048253E+02  0.10566000000E+00 0.  1.
         13    1    4    4    0    0  0.73414788079E+01 -0.21059122854E+02 -0.18022193723E+02  0.28673935850E+02  0.10566000000E+00 0. -1.
        -13    1    4    4    0    0  0.16268963284E+01 -0.51079754887E+01 -0.47069644004E+01  0.71347658097E+01  0.10566000000E+00 0.  1.
         14    1    4    4    0    0  0.41980699027E+01 -0.89953414101E+01 -0.85139461157E+01  0.13077738201E+02  0.00000000000E+00 0. -1.
<mgrwt>
<rscale>  0 0.76481318E+02</rscale>
<asrwt>0</asrwt>
<pdfrwt beam="1">  1        2 0.15131797E-01 0.76481318E+02</pdfrwt>
<pdfrwt beam="2">  1       -1 0.22873547E-02 0.76481318E+02</pdfrwt>
<totfact> 0.19898177E+05</totfact>
</mgrwt>
</event>
<event>
 8    1  0.2389776E-024  0.7936477E+02  0.7818608E-02  0.1330864E+00
          2   -1    0    0  501    0  0.00000000000E+00  0.00000000000E+00  0.13721370481E+03  0.13721370483E+03  0.25500000000E-02 0. -1.
         -1   -1    0    0    0  501 -0.00000000000E+00 -0.00000000000E+00 -0.11476196988E+02  0.11476198094E+02  0.50400000000E-02 0.  1.
         24    2    1    2    0    0  0.00000000000E+00  0.00000000000E+00  0.12573750782E+03  0.14868990292E+03  0.79364767745E+02 0.  0.
         66    2    3    3    0    0 -0.20731797599E+02  0.25099563903E+02  0.10533791020E+03  0.11027180450E+03  0.20000003180E+01 0.  0.
        -13    1    3    3    0    0  0.20731797599E+02 -0.25099563903E+02  0.20399597615E+02  0.38418098427E+02  0.10566000000E+00 0.  1.
         13    1    4    4    0    0 -0.97038310449E+00  0.95471532144E+00  0.43962292307E+01  0.46033813875E+01  0.10566000000E+00 0.  1.
        -13    1    4    4    0    0 -0.10694756998E+02  0.12336638742E+02  0.50273638534E+02  0.52858493908E+02  0.10566000000E+00 0.  1.
         14    1    4    4    0    0 -0.90666574965E+01  0.11808209840E+02  0.50668042437E+02  0.52809929201E+02  0.00000000000E+00 0. -1.
<mgrwt>
<rscale>  0 0.79364768E+02</rscale>
<asrwt>0</asrwt>
<pdfrwt beam="1">  1        2 0.21109802E-01 0.79364768E+02</pdfrwt>
<pdfrwt beam="2">  1       -1 0.17655688E-02 0.79364768E+02</pdfrwt>
<totfact> 0.19887502E+05</totfact>
</mgrwt>
</event>
<event>
 8    1  0.2389776E-024  0.8094988E+02  0.7818608E-02  0.1326377E+00
          2   -1    0    0  501    0  0.00000000000E+00  0.00000000000E+00  0.51714566074E+02  0.51714566137E+02  0.25500000000E-02 0. -1.
         -1   -1    0    0    0  501 -0.00000000000E+00 -0.00000000000E+00 -0.31678129560E+02  0.31678129961E+02  0.50400000000E-02 0.  1.
         24    2    1    2    0    0  0.35527136788E-14 -0.22204460493E-15  0.20036436515E+02  0.83392696098E+02  0.80949879396E+02 0.  0.
         66    2    3    3    0    0  0.19678154973E+02 -0.11619831667E+01  0.46412109804E+02  0.50464481851E+02  0.20000010010E+01 0.  0.
        -13    1    3    3    0    0 -0.19678154973E+02  0.11619831667E+01 -0.26375673289E+02  0.32928214247E+02  0.10566000000E+00 0.  1.
         13    1    4    4    0    0  0.81791006743E+01 -0.86894900287E+00  0.19123818028E+02  0.20817885105E+02  0.10566000000E+00 0. -1.
        -13    1    4    4    0    0  0.83102892300E+01 -0.76598988189E+00  0.18933060011E+02  0.20691050554E+02  0.10566000000E+00 0.  1.
        -14    1    4    4    0    0  0.31887650689E+01  0.47295571810E+00  0.83552317640E+01  0.89555461925E+01  0.00000000000E+00 0.  1.
<mgrwt>
<rscale>  0 0.80949879E+02</rscale>
<asrwt>0</asrwt>
<pdfrwt beam="1">  1        2 0.79560871E-02 0.80949879E+02</pdfrwt>
<pdfrwt beam="2">  1       -1 0.48735585E-02 0.80949879E+02</pdfrwt>
<totfact> 0.14574899E+05</totfact>
</mgrwt>
</event>
<event>
 8    1  0.2389776E-024  0.8229950E+02  0.7818608E-02  0.1322650E+00
          2   -1    0    0  501    0  0.00000000000E+00  0.00000000000E+00  0.59634011580E+02  0.59634011635E+02  0.25500000000E-02 0. -1.
         -1   -1    0    0    0  501 -0.00000000000E+00 -0.00000000000E+00 -0.28394901443E+02  0.28394901890E+02  0.50400000000E-02 0.  1.
         24    2    1    2    0    0  0.00000000000E+00  0.88817841970E-15  0.31239110137E+02  0.88028913525E+02  0.82299499478E+02 0.  0.
         66    2    3    3    0    0 -0.85208059181E+01  0.60021079041E+01  0.58181048458E+02  0.59141050376E+02  0.20000017873E+01 0.  0.
        -13    1    3    3    0    0  0.85208059181E+01 -0.60021079041E+01 -0.26941938321E+02  0.28887863149E+02  0.10566000000E+00 0.  1.
         13    1    4    4    0    0 -0.38226932100E+01  0.27088888916E+01  0.24987176641E+02  0.25422848443E+02  0.10566000000E+00 0. -1.
        -13    1    4    4    0    0 -0.15437592345E+01  0.67950767185E+00  0.67192969716E+01  0.69285668849E+01  0.10566000000E+00 0.  1.
         14    1    4    4    0    0 -0.31543534736E+01  0.26137113407E+01  0.26474574845E+02  0.26789635049E+02  0.00000000000E+00 0. -1.
<mgrwt>
<rscale>  0 0.82299499E+02</rscale>
<asrwt>0</asrwt>
<pdfrwt beam="1">  1        2 0.91744633E-02 0.82299499E+02</pdfrwt>
<pdfrwt beam="2">  1       -1 0.43684464E-02 0.82299499E+02</pdfrwt>
<totfact> 0.14388329E+05</totfact>
</mgrwt>
</event>
<event>
 8    1  0.2389776E-024  0.7844698E+02  0.7818608E-02  0.1333517E+00
         -1   -1    0    0    0  501 -0.00000000000E+00  0.00000000000E+00  0.11558231281E+01  0.11558341166E+01  0.50400000000E-02 0.  1.
          2   -1    0    0  501    0  0.00000000000E+00 -0.00000000000E+00 -0.13310642911E+04  0.13310642911E+04  0.25500000000E-02 0. -1.
         24    2    1    2    0    0  0.88817841970E-15  0.00000000000E+00 -0.13299084680E+04  0.13322201252E+04  0.78446981175E+02 0.  0.
         66    2    3    3    0    0 -0.79621757851E+01 -0.12778264747E+02 -0.12799982501E+04  0.12800883565E+04  0.20000034535E+01 0.  0.
        -13    1    3    3    0    0  0.79621757851E+01  0.12778264747E+02 -0.49910217939E+02  0.52131768739E+02  0.10566000000E+00 0.  1.
         13    1    4    4    0    0 -0.42792609167E+01 -0.78145443831E+01 -0.70319476746E+03  0.70325121494E+03  0.10566000000E+00 0. -1.
        -13    1    4    4    0    0 -0.25870282572E+01 -0.39798083833E+01 -0.42534273728E+03  0.42536923597E+03  0.10566000000E+00 0.  1.
        -14    1    4    4    0    0 -0.10958866111E+01 -0.98391198028E+00 -0.15146074532E+03  0.15146790559E+03  0.00000000000E+00 0.  1.
<mgrwt>
<rscale>  0 0.78446981E+02</rscale>
<asrwt>0</asrwt>
<pdfrwt beam="1">  1        2 0.20477790E+00 0.78446981E+02</pdfrwt>
<pdfrwt beam="2">  1       -1 0.17782085E-03 0.78446981E+02</pdfrwt>
<totfact> 0.36245515E+05</totfact>
</mgrwt>
</event>
<event>
 8    1  0.2389776E-024  0.7888232E+02  0.7818608E-02  0.1332254E+00
         -1   -1    0    0    0  501 -0.00000000000E+00  0.00000000000E+00  0.95189373050E+00  0.95190707307E+00  0.50400000000E-02 0.  1.
          2   -1    0    0  501    0  0.00000000000E+00 -0.00000000000E+00 -0.16342097887E+04  0.16342097887E+04  0.25500000000E-02 0. -1.
         24    2    1    2    0    0  0.88817841970E-15  0.00000000000E+00 -0.16332578949E+04  0.16351616958E+04  0.78882316457E+02 0.  0.
         66    2    3    3    0    0  0.64262504637E+01  0.18241901028E+02 -0.15290814971E+04  0.15292051165E+04  0.20000005158E+01 0.  0.
        -13    1    3    3    0    0 -0.64262504637E+01 -0.18241901028E+02 -0.10417639789E+03  0.10595657927E+03  0.10566000000E+00 0.  1.
         13    1    4    4    0    0  0.52646385587E+00  0.18570171137E+01 -0.13003119958E+03  0.13004556781E+03  0.10566000000E+00 0. -1.
        -13    1    4    4    0    0  0.12973857990E+00  0.31982505248E+00 -0.49222366545E+02  0.49223689952E+02  0.10566000000E+00 0.  1.
         14    1    4    4    0    0  0.57700480280E+01  0.16065058862E+02 -0.13498279309E+04  0.13499358587E+04  0.00000000000E+00 0. -1.
<mgrwt>
<rscale>  0 0.78882316E+02</rscale>
<asrwt>0</asrwt>
<pdfrwt beam="1">  1        2 0.25141465E+00 0.78882316E+02</pdfrwt>
<pdfrwt beam="2">  1       -1 0.14644752E-03 0.78882316E+02</pdfrwt>
<totfact> 0.33208852E+05</totfact>
</mgrwt>
</event>
<event>
 8    1  0.2389776E-024  0.8018955E+02  0.7818608E-02  0.1328514E+00
         -1   -1    0    0    0  501 -0.00000000000E+00  0.00000000000E+00  0.16845731677E+02  0.16845732431E+02  0.50400000000E-02 0.  1.
          2   -1    0    0  501    0  0.00000000000E+00 -0.00000000000E+00 -0.95430159900E+02  0.95430159934E+02  0.25500000000E-02 0. -1.
         24    2    1    2    0    0  0.35527136788E-14 -0.35527136788E-14 -0.78584428223E+02  0.11227589236E+03  0.80189548242E+02 0.  0.
         66    2    3    3    0    0 -0.20194508670E+02  0.31282080946E+02 -0.60046058130E+02  0.70681793043E+02  0.20000005075E+01 0.  0.
        -13    1    3    3    0    0  0.20194508670E+02 -0.31282080946E+02 -0.18538370093E+02  0.41594099322E+02  0.10566000000E+00 0.  1.
         13    1    4    4    0    0 -0.54378751086E+00  0.63282150146E+00 -0.14084543345E+01  0.16404498035E+01  0.10566000000E+00 0. -1.
        -13    1    4    4    0    0 -0.17653326896E+01  0.19850542322E+01 -0.44346197266E+01  0.51704792781E+01  0.10566000000E+00 0. -1.
         14    1    4    4    0    0 -0.17885388470E+02  0.28664205212E+02 -0.54202984069E+02  0.63870863961E+02  0.00000000000E+00 0. -1.
<mgrwt>
<rscale>  0 0.80189548E+02</rscale>
<asrwt>0</asrwt>
<pdfrwt beam="1">  1        2 0.14681563E-01 0.80189548E+02</pdfrwt>
<pdfrwt beam="2">  1       -1 0.25916512E-02 0.80189548E+02</pdfrwt>
<totfact> 0.17386567E+05</totfact>
</mgrwt>
</event>
<event>
 8    1  0.2389776E-024  0.8335404E+02  0.7818608E-02  0.1319794E+00
         -1   -1    0    0    0  501 -0.00000000000E+00  0.00000000000E+00  0.14485309527E+02  0.14485310403E+02  0.50400000000E-02 0.  1.
          2   -1    0    0  501    0  0.00000000000E+00 -0.00000000000E+00 -0.11991279147E+03  0.11991279150E+03  0.25500000000E-02 0. -1.
         24    2    1    2    0    0 -0.71054273576E-14 -0.88817841970E-15 -0.10542748195E+03  0.13439810190E+03  0.83354039169E+02 0.  0.
         66    2    3    3    0    0 -0.29967262481E+02 -0.54838817866E+01 -0.69440173134E+01  0.31310208578E+02  0.20000011721E+01 0.  0.
        -13    1    3    3    0    0  0.29967262481E+02  0.54838817866E+01 -0.98483464635E+02  0.10308789333E+03  0.10566000000E+00 0.  1.
         13    1    4    4    0    0 -0.14034837676E+02 -0.25520880221E+01 -0.27624689296E+01  0.14530389551E+02  0.10566000000E+00 0. -1.
        -13    1    4    4    0    0 -0.14731425540E+01 -0.55616250095E+00 -0.16883583591E+00  0.15871784043E+01  0.10566000000E+00 0.  1.
        -14    1    4    4    0    0 -0.14459282251E+02 -0.23756312635E+01 -0.40127125479E+01  0.15192640623E+02  0.00000000000E+00 0.  1.
<mgrwt>
<rscale>  0 0.83354039E+02</rscale>
<asrwt>0</asrwt>
<pdfrwt beam="1">  1        2 0.18448121E-01 0.83354039E+02</pdfrwt>
<pdfrwt beam="2">  1       -1 0.22285093E-02 0.83354039E+02</pdfrwt>
<totfact> 0.16739956E+05</totfact>
</mgrwt>
</event>
<event>
 8    1  0.2389776E-024  0.8089067E+02  0.7818608E-02  0.1326543E+00
         -1   -1    0    0    0  501 -0.00000000000E+00  0.00000000000E+00  0.12883990723E+01  0.12884089301E+01  0.50400000000E-02 0.  1.
          2   -1    0    0  501    0  0.00000000000E+00 -0.00000000000E+00 -0.12696521598E+04  0.12696521598E+04  0.25500000000E-02 0. -1.
         24    2    1    2    0    0  0.00000000000E+00 -0.88817841970E-15 -0.12683637607E+04  0.12709405687E+04  0.80890665242E+02 0.  0.
         66    2    3    3    0    0  0.19946483122E+02 -0.67552763290E+01 -0.11766435492E+04  0.11768336916E+04  0.19999962269E+01 0.  0.
        -13    1    3    3    0    0 -0.19946483122E+02  0.67552763290E+01 -0.91720211517E+02  0.94106877070E+02  0.10566000000E+00 0.  1.
         13    1    4    4    0    0  0.53033784527E+01 -0.17655354466E+01 -0.27438511784E+03  0.27444206491E+03  0.10566000000E+00 0. -1.
        -13    1    4    4    0    0  0.13820332499E+02 -0.45638589965E+01 -0.85873107855E+03  0.85885441539E+03  0.10566000000E+00 0.  1.
        -14    1    4    4    0    0  0.82277216978E+00 -0.42588188590E+00 -0.43527352800E+02  0.43537211339E+02  0.00000000000E+00 0.  1.
<mgrwt>
<rscale>  0 0.80890665E+02</rscale>
<asrwt>0</asrwt>
<pdfrwt beam="1">  1        2 0.19533010E+00 0.80890665E+02</pdfrwt>
<pdfrwt beam="2">  1       -1 0.19821702E-03 0.80890665E+02</pdfrwt>
<totfact> 0.33779269E+05</totfact>
</mgrwt>
</event>
<event>
 8    1  0.2389776E-024  0.7865433E+02  0.7818608E-02  0.1332914E+00
          2   -1    0    0  501    0  0.00000000000E+00  0.00000000000E+00  0.21935268898E+03  0.21935268900E+03  0.25500000000E-02 0. -1.
         -1   -1    0    0    0  501 -0.00000000000E+00 -0.00000000000E+00 -0.70508628292E+01  0.70508646305E+01  0.50400000000E-02 0.  1.
         24    2    1    2    0    0  0.00000000000E+00  0.35527136788E-14  0.21230182615E+03  0.22640355363E+03  0.78654330505E+02 0.  0.
         66    2    3    3    0    0  0.24166904188E+02 -0.23744354170E+02  0.16355695710E+03  0.16704104832E+03  0.19999989993E+01 0.  0.
        -13    1    3    3    0    0 -0.24166904188E+02  0.23744354170E+02  0.48744869051E+02  0.59362505303E+02  0.10566000000E+00 0.  1.
         13    1    4    4    0    0  0.34850284056E+01 -0.33833531202E+01  0.24535922343E+02  0.25012299985E+02  0.10566000000E+00 0. -1.
        -13    1    4    4    0    0  0.13076934745E+02 -0.11976424134E+02  0.87513890468E+02  0.89292402512E+02  0.10566000000E+00 0.  1.
         14    1    4    4    0    0  0.76049410367E+01 -0.83845769156E+01  0.51507144291E+02  0.52736345827E+02  0.00000000000E+00 0. -1.
<mgrwt>
<rscale>  0 0.78654331E+02</rscale>
<asrwt>0</asrwt>
<pdfrwt beam="1">  1        2 0.33746568E-01 0.78654331E+02</pdfrwt>
<pdfrwt beam="2">  1       -1 0.10847483E-02 0.78654331E+02</pdfrwt>
<totfact> 0.23823931E+05</totfact>
</mgrwt>
</event>
<event>
 8    1  0.2389776E-024  0.7959939E+02  0.7818608E-02  0.1330192E+00
          2   -1    0    0  501    0  0.00000000000E+00  0.00000000000E+00  0.55334183208E+03  0.55334183208E+03  0.25500000000E-02 0. -1.
         -1   -1    0    0    0  501 -0.00000000000E+00 -0.00000000000E+00 -0.28626324599E+01  0.28626368967E+01  0.50400000000E-02 0.  1.
         24    2    1    2    0    0  0.44408920985E-15 -0.71054273576E-14  0.55047919962E+03  0.55620446898E+03  0.79599385059E+02 0.  0.
         66    2    3    3    0    0 -0.26134225820E+01 -0.35761322345E+02  0.39569379888E+03  0.39732012866E+03  0.20000032175E+01 0.  0.
        -13    1    3    3    0    0  0.26134225820E+01  0.35761322345E+02  0.15478540074E+03  0.15888434032E+03  0.10566000000E+00 0.  1.
         13    1    4    4    0    0 -0.23900583138E+01 -0.32088750572E+02  0.35866035076E+03  0.36010090067E+03  0.10566000000E+00 0. -1.
        -13    1    4    4    0    0 -0.13791655864E+00 -0.19535402816E+01  0.17281981957E+02  0.17392912493E+02  0.10566000000E+00 0.  1.
        -14    1    4    4    0    0 -0.85447709523E-01 -0.17190314913E+01  0.19751466165E+02  0.19826315498E+02  0.00000000000E+00 0.  1.
<mgrwt>
<rscale>  0 0.79599385E+02</rscale>
<asrwt>0</asrwt>
<pdfrwt beam="1">  1        2 0.85129484E-01 0.79599385E+02</pdfrwt>
<pdfrwt beam="2">  1       -1 0.44040549E-03 0.79599385E+02</pdfrwt>
<totfact> 0.31833353E+05</totfact>
</mgrwt>
</event>
<event>
 8    1  0.2389776E-024  0.8110720E+02  0.7818608E-02  0.1325938E+00
          2   -1    0    0  501    0  0.00000000000E+00  0.00000000000E+00  0.95526316273E+01  0.95526319677E+01  0.25500000000E-02 0. -1.
         -1   -1    0    0    0  501 -0.00000000000E+00 -0.00000000000E+00 -0.17216140939E+03  0.17216140946E+03  0.50400000000E-02 0.  1.
         24    2    1    2    0    0  0.00000000000E+00  0.00000000000E+00 -0.16260877776E+03  0.18171404143E+03  0.81107202195E+02 0.  0.
         66    2    3    3    0    0 -0.52593821147E+01  0.34361818943E+02 -0.34669381113E+02  0.49136154586E+02  0.19999998608E+01 0.  0.
        -13    1    3    3    0    0  0.52593821147E+01 -0.34361818943E+02 -0.12793939665E+03  0.13257788685E+03  0.10566000000E+00 0.  1.
         13    1    4    4    0    0 -0.39426429833E+01  0.23541619097E+02 -0.24767336277E+02  0.34397447197E+02  0.10566000000E+00 0. -1.
        -13    1    4    4    0    0 -0.11660330572E+01  0.10403285148E+02 -0.95808879241E+01  0.14191284382E+02  0.10566000000E+00 0.  1.
         14    1    4    4    0    0 -0.15070607416E+00  0.41691469845E+00 -0.32115691236E+00  0.54742300731E+00  0.00000000000E+00 0. -1.
<mgrwt>
<rscale>  0 0.81107202E+02</rscale>
<asrwt>0</asrwt>
<pdfrwt beam="1">  1        2 0.14696358E-02 0.81107202E+02</pdfrwt>
<pdfrwt beam="2">  1       -1 0.26486368E-01 0.81107202E+02</pdfrwt>
<totfact> 0.10044370E+05</totfact>
</mgrwt>
</event>
<event>
 8    1  0.2389776E-024  0.7876621E+02  0.7818608E-02  0.1332590E+00
         -1   -1    0    0    0  501 -0.00000000000E+00  0.00000000000E+00  0.27344652062E+01  0.27344698509E+01  0.50400000000E-02 0.  1.
          2   -1    0    0  501    0  0.00000000000E+00 -0.00000000000E+00 -0.56721426523E+03  0.56721426523E+03  0.25500000000E-02 0. -1.
         24    2    1    2    0    0  0.00000000000E+00  0.00000000000E+00 -0.56447980002E+03  0.56994873508E+03  0.78766210979E+02 0.  0.
         66    2    3    3    0    0 -0.36514451064E+01  0.23351448592E+02 -0.51014144955E+03  0.51069259027E+03  0.20000002750E+01 0.  0.
        -13    1    3    3    0    0  0.36514451064E+01 -0.23351448592E+02 -0.54338350470E+02  0.59256144817E+02  0.10566000000E+00 0.  1.
         13    1    4    4    0    0 -0.31274188786E+01  0.15318258145E+02 -0.33972196149E+03  0.34008153738E+03  0.10566000000E+00 0.  1.
        -13    1    4    4    0    0 -0.42850708843E+00  0.62174747378E+01 -0.13785669575E+03  0.13799753744E+03  0.10566000000E+00 0. -1.
        -14    1    4    4    0    0 -0.95519139373E-01  0.18157157095E+01 -0.32562792306E+02  0.32613515454E+02  0.00000000000E+00 0.  1.
<mgrwt>
<rscale>  0 0.78766211E+02</rscale>
<asrwt>0</asrwt>
<pdfrwt beam="1">  1        2 0.87263640E-01 0.78766211E+02</pdfrwt>
<pdfrwt beam="2">  1       -1 0.42068777E-03 0.78766211E+02</pdfrwt>
<totfact> 0.32957030E+05</totfact>
</mgrwt>
</event>
<event>
 8    1  0.2389776E-024  0.7920458E+02  0.7818608E-02  0.1331324E+00
          2   -1    0    0  501    0  0.00000000000E+00  0.00000000000E+00  0.11832722638E+02  0.11832722912E+02  0.25500000000E-02 0. -1.
         -1   -1    0    0    0  501 -0.00000000000E+00 -0.00000000000E+00 -0.13254273699E+03  0.13254273709E+03  0.50400000000E-02 0.  1.
         24    2    1    2    0    0  0.00000000000E+00  0.35527136788E-14 -0.12071001435E+03  0.14437546000E+03  0.79204582474E+02 0.  0.
         66    2    3    3    0    0  0.30794624256E+02 -0.20257527268E+02 -0.34125822568E+02  0.50271742085E+02  0.19999980562E+01 0.  0.
        -13    1    3    3    0    0 -0.30794624256E+02  0.20257527268E+02 -0.86584191786E+02  0.94103717915E+02  0.10566000000E+00 0.  1.
         13    1    4    4    0    0  0.39506340062E+00 -0.41911591144E+00 -0.59098883430E+00  0.83196458795E+00  0.10566000000E+00 0. -1.
        -13    1    4    4    0    0  0.34489396641E+01 -0.20007589032E+01 -0.31837612349E+01  0.51035008212E+01  0.10566000000E+00 0.  1.
         14    1    4    4    0    0  0.26950621192E+02 -0.17837652454E+02 -0.30351072499E+02  0.44336276676E+02  0.00000000000E+00 0. -1.
<mgrwt>
<rscale>  0 0.79204582E+02</rscale>
<asrwt>0</asrwt>
<pdfrwt beam="1">  1        2 0.18204190E-02 0.79204582E+02</pdfrwt>
<pdfrwt beam="2">  1       -1 0.20391189E-01 0.79204582E+02</pdfrwt>
<totfact> 0.11405581E+05</totfact>
</mgrwt>
</event>
<event>
 8    1  0.2389776E-024  0.7809498E+02  0.7818608E-02  0.1334546E+00
         -1   -1    0    0    0  501 -0.00000000000E+00  0.00000000000E+00  0.57863060981E+02  0.57863061200E+02  0.50400000000E-02 0.  1.
          2   -1    0    0  501    0  0.00000000000E+00 -0.00000000000E+00 -0.26350252967E+02  0.26350253091E+02  0.25500000000E-02 0. -1.
         24    2    1    2    0    0  0.71054273576E-14  0.00000000000E+00  0.31512808013E+02  0.84213314291E+02  0.78094975734E+02 0.  0.
         66    2    3    3    0    0 -0.38530363255E+02 -0.61030609066E+01  0.14763713403E+02  0.41758873070E+02  0.20000004076E+01 0.  0.
        -13    1    3    3    0    0  0.38530363255E+02  0.61030609066E+01  0.16749094611E+02  0.42454441221E+02  0.10566000000E+00 0.  1.
         13    1    4    4    0    0 -0.17622583297E+02 -0.27558156247E+01  0.69589747203E+01  0.19146499811E+02  0.10566000000E+00 0. -1.
        -13    1    4    4    0    0 -0.40462477056E+01 -0.11997184406E+01  0.17135872203E+01  0.45562034666E+01  0.10566000000E+00 0.  1.
        -14    1    4    4    0    0 -0.16861532252E+02 -0.21475268413E+01  0.60911514620E+01  0.18056169792E+02  0.00000000000E+00 0.  1.
<mgrwt>
<rscale>  0 0.78094976E+02</rscale>
<asrwt>0</asrwt>
<pdfrwt beam="1">  1        2 0.40538851E-02 0.78094976E+02</pdfrwt>
<pdfrwt beam="2">  1       -1 0.89020093E-02 0.78094976E+02</pdfrwt>
<totfact> 0.14037085E+05</totfact>
</mgrwt>
</event>
<event>
 8    1  0.2389776E-024  0.7883317E+02  0.7818608E-02  0.1332396E+00
          2   -1    0    0  501    0  0.00000000000E+00  0.00000000000E+00  0.16292197885E+03  0.16292197887E+03  0.25500000000E-02 0. -1.
         -1   -1    0    0    0  501 -0.00000000000E+00 -0.00000000000E+00 -0.95362648799E+01  0.95362662117E+01  0.50400000000E-02 0.  1.
         24    2    1    2    0    0  0.00000000000E+00  0.00000000000E+00  0.15338571397E+03  0.17245824508E+03  0.78833172246E+02 0.  0.
         66    2    3    3    0    0 -0.36303912164E+02 -0.10392592552E+02  0.10126725139E+03  0.10809734605E+03  0.20000001145E+01 0.  0.
        -13    1    3    3    0    0  0.36303912164E+02  0.10392592552E+02  0.52118462575E+02  0.64360899027E+02  0.10566000000E+00 0.  1.
         13    1    4    4    0    0 -0.16891456432E+02 -0.44097641087E+01  0.48746856279E+02  0.51778706830E+02  0.10566000000E+00 0. -1.
        -13    1    4    4    0    0 -0.16586102572E+02 -0.50640205899E+01  0.45640927917E+02  0.48824671717E+02  0.10566000000E+00 0.  1.
         14    1    4    4    0    0 -0.28263531603E+01 -0.91880785366E+00  0.68794671946E+01  0.74939675033E+01  0.00000000000E+00 0. -1.
<mgrwt>
<rscale>  0 0.78833172E+02</rscale>
<asrwt>0</asrwt>
<pdfrwt beam="1">  1        2 0.25064918E-01 0.78833172E+02</pdfrwt>
<pdfrwt beam="2">  1       -1 0.14671179E-02 0.78833172E+02</pdfrwt>
<totfact> 0.21393058E+05</totfact>
</mgrwt>
</event>
<event>
 8    1  0.2389776E-024  0.7997931E+02  0.7818608E-02  0.1329110E+00
         -1   -1    0    0    0  501 -0.00000000000E+00  0.00000000000E+00  0.98973994580E+02  0.98973994709E+02  0.50400000000E-02 0.  1.
          2   -1    0    0  501    0  0.00000000000E+00 -0.00000000000E+00 -0.16157501139E+02  0.16157501340E+02  0.25500000000E-02 0. -1.
         24    2    1    2    0    0 -0.17763568394E-14  0.00000000000E+00  0.82816493442E+02  0.11513149605E+03  0.79979308552E+02 0.  0.
         66    2    3    3    0    0  0.10766537484E+02 -0.17047497855E+02 -0.82372032238E+01  0.21872060317E+02  0.19999982637E+01 0.  0.
        -13    1    3    3    0    0 -0.10766537484E+02  0.17047497855E+02  0.91053696665E+02  0.93259435732E+02  0.10566000000E+00 0.  1.
         13    1    4    4    0    0  0.58580772057E+01 -0.90468470180E+01 -0.35477055440E+01  0.11347241435E+02  0.10566000000E+00 0. -1.
        -13    1    4    4    0    0  0.46289078805E+01 -0.75345730748E+01 -0.41869510499E+01  0.97845951739E+01  0.10566000000E+00 0.  1.
        -14    1    4    4    0    0  0.27955239803E+00 -0.46607776192E+00 -0.50254662987E+00  0.74022370848E+00  0.00000000000E+00 0.  1.
<mgrwt>
<rscale>  0 0.79979309E+02</rscale>
<asrwt>0</asrwt>
<pdfrwt beam="1">  1        2 0.24857694E-02 0.79979309E+02</pdfrwt>
<pdfrwt beam="2">  1       -1 0.15226768E-01 0.79979309E+02</pdfrwt>
<totfact> 0.11886839E+05</totfact>
</mgrwt>
</event>
<event>
 8    1  0.2389776E-024  0.7288518E+02  0.7818608E-02  0.1350548E+00
          2   -1    0    0  501    0  0.00000000000E+00  0.00000000000E+00  0.44253771791E+03  0.44253771792E+03  0.25500000000E-02 0. -1.
         -1   -1    0    0    0  501 -0.00000000000E+00 -0.00000000000E+00 -0.30010129082E+01  0.30010171404E+01  0.50400000000E-02 0.  1.
         24    2    1    2    0    0 -0.71054273576E-14  0.00000000000E+00  0.43953670500E+03  0.44553873506E+03  0.72885179515E+02 0.  0.
         66    2    3    3    0    0 -0.33631800796E+02 -0.13952077926E+02  0.22327598352E+03  0.22623422228E+03  0.20000030354E+01 0.  0.
        -13    1    3    3    0    0  0.33631800796E+02  0.13952077926E+02  0.21626072148E+03  0.21930451277E+03  0.10566000000E+00 0.  1.
         13    1    4    4    0    0 -0.35636409889E+01 -0.12196172906E+01  0.21676010626E+02  0.22001081885E+02  0.10566000000E+00 0. -1.
        -13    1    4    4    0    0 -0.89466270714E+01 -0.45353567684E+01  0.60735288968E+02  0.61558087097E+02  0.10566000000E+00 0.  1.
         14    1    4    4    0    0 -0.21121532736E+02 -0.81971038673E+01  0.14086468393E+03  0.14267505330E+03  0.00000000000E+00 0. -1.
<mgrwt>
<rscale>  0 0.72885180E+02</rscale>
<asrwt>0</asrwt>
<pdfrwt beam="1">  1        2 0.68082686E-01 0.72885180E+02</pdfrwt>
<pdfrwt beam="2">  1       -1 0.46169489E-03 0.72885180E+02</pdfrwt>
<totfact> 0.37256550E+05</totfact>
</mgrwt>
</event>
<event>
 8    1  0.2389776E-024  0.8105902E+02  0.7818608E-02  0.1326073E+00
         -1   -1    0    0    0  501 -0.00000000000E+00  0.00000000000E+00  0.31048457487E+01  0.31048498394E+01  0.50400000000E-02 0.  1.
          2   -1    0    0  501    0  0.00000000000E+00 -0.00000000000E+00 -0.52905694135E+03  0.52905694136E+03  0.25500000000E-02 0. -1.
         24    2    1    2    0    0  0.00000000000E+00  0.00000000000E+00 -0.52595209560E+03  0.53216179120E+03  0.81059022577E+02 0.  0.
         66    2    3    3    0    0 -0.35721159411E+02  0.10805029202E+02 -0.36649954932E+03  0.36840014866E+03  0.19999991529E+01 0.  0.
        -13    1    3    3    0    0  0.35721159411E+02 -0.10805029202E+02 -0.15945254628E+03  0.16376164254E+03  0.10566000000E+00 0.  1.
         13    1    4    4    0    0 -0.10789565841E+02  0.35789289228E+01 -0.11830365199E+03  0.11884859571E+03  0.10566000000E+00 0. -1.
        -13    1    4    4    0    0 -0.88278243362E+01  0.21254474497E+01 -0.84841379617E+02  0.85325956594E+02  0.10566000000E+00 0.  1.
        -14    1    4    4    0    0 -0.16103769234E+02  0.51006528295E+01 -0.16335451771E+03  0.16422559636E+03  0.00000000000E+00 0.  1.
<mgrwt>
<rscale>  0 0.81059023E+02</rscale>
<asrwt>0</asrwt>
<pdfrwt beam="1">  1        2 0.81393304E-01 0.81059023E+02</pdfrwt>
<pdfrwt beam="2">  1       -1 0.47766931E-03 0.81059023E+02</pdfrwt>
<totfact> 0.29950538E+05</totfact>
</mgrwt>
</event>
<event>
 8    1  0.2389776E-024  0.8034278E+02  0.7818608E-02  0.1328081E+00
         -1   -1    0    0    0  501 -0.00000000000E+00  0.00000000000E+00  0.26781010704E+01  0.26781058129E+01  0.50400000000E-02 0.  1.
          2   -1    0    0  501    0  0.00000000000E+00 -0.00000000000E+00 -0.60256848546E+03  0.60256848547E+03  0.25500000000E-02 0. -1.
         24    2    1    2    0    0  0.00000000000E+00 -0.71054273576E-14 -0.59989038439E+03  0.60524659128E+03  0.80342784187E+02 0.  0.
         66    2    3    3    0    0 -0.80163313270E+01 -0.32113624415E+02 -0.47128569974E+03  0.47245079872E+03  0.19999997630E+01 0.  0.
        -13    1    3    3    0    0  0.80163313270E+01  0.32113624415E+02 -0.12860468465E+03  0.13279579255E+03  0.10566000000E+00 0.  1.
         13    1    4    4    0    0 -0.45583541894E+01 -0.16799025747E+02 -0.24470617774E+03  0.24532450030E+03  0.10566000000E+00 0. -1.
        -13    1    4    4    0    0 -0.23207223027E+01 -0.86185901505E+01 -0.13581436861E+03  0.13610738310E+03  0.10566000000E+00 0.  1.
         14    1    4    4    0    0 -0.11372548349E+01 -0.66960085177E+01 -0.90765153382E+02  0.91018915325E+02  0.00000000000E+00 0. -1.
<mgrwt>
<rscale>  0 0.80342784E+02</rscale>
<asrwt>0</asrwt>
<pdfrwt beam="1">  1        2 0.92702736E-01 0.80342784E+02</pdfrwt>
<pdfrwt beam="2">  1       -1 0.41201640E-03 0.80342784E+02</pdfrwt>
<totfact> 0.31845342E+05</totfact>
</mgrwt>
</event>
<event>
 8    1  0.2389776E-024  0.8085626E+02  0.7818608E-02  0.1326639E+00
         -1   -1    0    0    0  501 -0.00000000000E+00  0.00000000000E+00  0.72749918952E+01  0.72749936410E+01  0.50400000000E-02 0.  1.
          2   -1    0    0  501    0  0.00000000000E+00 -0.00000000000E+00 -0.22466467275E+03  0.22466467277E+03  0.25500000000E-02 0. -1.
         24    2    1    2    0    0  0.00000000000E+00 -0.14210854715E-13 -0.21738968086E+03  0.23193966641E+03  0.80856264508E+02 0.  0.
         66    2    3    3    0    0 -0.16103261779E+01  0.38734852404E+02 -0.14139793679E+03  0.14663000534E+03  0.19999990642E+01 0.  0.
        -13    1    3    3    0    0  0.16103261779E+01 -0.38734852404E+02 -0.75991744070E+02  0.85309661070E+02  0.10566000000E+00 0.  1.
         13    1    4    4    0    0 -0.79637668889E+00  0.12839001029E+02 -0.45754084115E+02  0.47528113159E+02  0.10566000000E+00 0. -1.
        -13    1    4    4    0    0 -0.36686622506E+00  0.21642718616E+01 -0.91644992492E+01  0.94243235323E+01  0.10566000000E+00 0.  1.
        -14    1    4    4    0    0 -0.44708326395E+00  0.23731579514E+02 -0.86479353425E+02  0.89677568648E+02  0.00000000000E+00 0.  1.
<mgrwt>
<rscale>  0 0.80856265E+02</rscale>
<asrwt>0</asrwt>
<pdfrwt beam="1">  1        2 0.34563791E-01 0.80856265E+02</pdfrwt>
<pdfrwt beam="2">  1       -1 0.11192298E-02 0.80856265E+02</pdfrwt>
<totfact> 0.22341361E+05</totfact>
</mgrwt>
</event>
<event>
 8    1  0.2389776E-024  0.8970636E+02  0.7818608E-02  0.1303564E+00
         -1   -1    0    0    0  501 -0.00000000000E+00  0.00000000000E+00  0.21792589139E+02  0.21792589722E+02  0.50400000000E-02 0.  1.
          2   -1    0    0  501    0  0.00000000000E+00 -0.00000000000E+00 -0.92316131546E+02  0.92316131581E+02  0.25500000000E-02 0. -1.
         24    2    1    2    0    0  0.00000000000E+00  0.00000000000E+00 -0.70523542407E+02  0.11410872130E+03  0.89706355649E+02 0.  0.
         66    2    3    3    0    0 -0.44203842081E+02  0.50182765059E+01 -0.28238190003E+02  0.52730997773E+02  0.19999994324E+01 0.  0.
        -13    1    3    3    0    0  0.44203842081E+02 -0.50182765059E+01 -0.42285352403E+02  0.61377723530E+02  0.10566000000E+00 0.  1.
         13    1    4    4    0    0 -0.28085267080E+02  0.36965577642E+01 -0.17720584527E+02  0.33413725417E+02  0.10566000000E+00 0. -1.
        -13    1    4    4    0    0 -0.14381992938E+02  0.11832238065E+01 -0.90045733356E+01  0.17009857273E+02  0.10566000000E+00 0.  1.
        -14    1    4    4    0    0 -0.17365820630E+01  0.13849493524E+00 -0.15130321411E+01  0.23074150838E+01  0.00000000000E+00 0.  1.
<mgrwt>
<rscale>  0 0.89706356E+02</rscale>
<asrwt>0</asrwt>
<pdfrwt beam="1">  1        2 0.14202482E-01 0.89706356E+02</pdfrwt>
<pdfrwt beam="2">  1       -1 0.33527061E-02 0.89706356E+02</pdfrwt>
<totfact> 0.12722447E+05</totfact>
</mgrwt>
</event>
<event>
 8    1  0.2389776E-024  0.7987876E+02  0.7818608E-02  0.1329396E+00
         -1   -1    0    0    0  501 -0.00000000000E+00  0.00000000000E+00  0.10225042353E+01  0.10225166565E+01  0.50400000000E-02 0.  1.
          2   -1    0    0  501    0  0.00000000000E+00 -0.00000000000E+00 -0.15600367450E+04  0.15600367450E+04  0.25500000000E-02 0. -1.
         24    2    1    2    0    0  0.17763568394E-14 -0.17763568394E-14 -0.15590142408E+04  0.15610592617E+04  0.79878755019E+02 0.  0.
         66    2    3    3    0    0 -0.15886686876E+02  0.12844635933E+02 -0.14501114688E+04  0.14502567509E+04  0.19999996678E+01 0.  0.
        -13    1    3    3    0    0  0.15886686876E+02 -0.12844635933E+02 -0.10890277199E+03  0.11080251082E+03  0.10566000000E+00 0.  1.
         13    1    4    4    0    0 -0.56515099088E+01  0.50608405486E+01 -0.53670256221E+03  0.53675618591E+03  0.10566000000E+00 0. -1.
        -13    1    4    4    0    0 -0.12905581038E+01  0.44258482971E+00 -0.98778719674E+02  0.98788197908E+02  0.10566000000E+00 0.  1.
        -14    1    4    4    0    0 -0.89446188635E+01  0.73412105549E+01 -0.81463018692E+03  0.81471236705E+03  0.00000000000E+00 0.  1.
<mgrwt>
<rscale>  0 0.79878755E+02</rscale>
<asrwt>0</asrwt>
<pdfrwt beam="1">  1        2 0.24000375E+00 0.79878755E+02</pdfrwt>
<pdfrwt beam="2">  1       -1 0.15731055E-03 0.79878755E+02</pdfrwt>
<totfact> 0.32856096E+05</totfact>
</mgrwt>
</event>
<event>
 8    1  0.2389776E-024  0.7854400E+02  0.7818608E-02  0.1333235E+00
         -1   -1    0    0    0  501 -0.00000000000E+00  0.00000000000E+00  0.22370564803E+03  0.22370564808E+03  0.50400000000E-02 0.  1.
          2   -1    0    0  501    0  0.00000000000E+00 -0.00000000000E+00 -0.68942827447E+01  0.68942832163E+01  0.25500000000E-02 0. -1.
         24    2    1    2    0    0  0.00000000000E+00  0.00000000000E+00  0.21681136528E+03  0.23059993130E+03  0.78544001681E+02 0.  0.
         66    2    3    3    0    0  0.28363690404E+02 -0.17587171651E+02  0.47844841233E+02  0.58368967320E+02  0.19999933485E+01 0.  0.
        -13    1    3    3    0    0 -0.28363690404E+02  0.17587171651E+02  0.16896652405E+03  0.17223096398E+03  0.10566000000E+00 0.  1.
         13    1    4    4    0    0  0.10387113286E+02 -0.66435271546E+01  0.17245373542E+02  0.21200062455E+02  0.10566000000E+00 0. -1.
        -13    1    4    4    0    0  0.55015599046E+01 -0.41684565900E+01  0.98975018228E+01  0.12067099821E+02  0.10566000000E+00 0.  1.
         14    1    4    4    0    0  0.12475017214E+02 -0.67751879066E+01  0.20701965868E+02  0.25101805044E+02  0.00000000000E+00 0. -1.
<mgrwt>
<rscale>  0 0.78544002E+02</rscale>
<asrwt>0</asrwt>
<pdfrwt beam="1">  1        2 0.10606590E-02 0.78544002E+02</pdfrwt>
<pdfrwt beam="2">  1       -1 0.34416250E-01 0.78544002E+02</pdfrwt>
<totfact> 0.10077316E+05</totfact>
</mgrwt>
</event>
<event>
 8    1  0.2389776E-024  0.7787450E+02  0.7818608E-02  0.1335194E+00
          2   -1    0    0  501    0  0.00000000000E+00  0.00000000000E+00  0.92828205612E+02  0.92828205647E+02  0.25500000000E-02 0. -1.
         -1   -1    0    0    0  501 -0.00000000000E+00 -0.00000000000E+00 -0.16332421575E+02  0.16332422352E+02  0.50400000000E-02 0.  1.
         24    2    1    2    0    0  0.00000000000E+00  0.00000000000E+00  0.76495784037E+02  0.10916062800E+03  0.77874499868E+02 0.  0.
         66    2    3    3    0    0  0.13029536140E+02 -0.21023733405E+02  0.80380161458E+02  0.84123341200E+02  0.20000000566E+01 0.  0.
        -13    1    3    3    0    0 -0.13029536140E+02  0.21023733405E+02 -0.38843774212E+01  0.25037286800E+02  0.10566000000E+00 0.  1.
         13    1    4    4    0    0  0.10113850404E+02 -0.16445634827E+02  0.61490222924E+02  0.64450039210E+02  0.10566000000E+00 0. -1.
        -13    1    4    4    0    0  0.26462737183E+01 -0.38395840763E+01  0.16951757176E+02  0.17581763446E+02  0.10566000000E+00 0.  1.
         14    1    4    4    0    0  0.26941201797E+00 -0.73851450128E+00  0.19381813580E+01  0.20915385439E+01  0.00000000000E+00 0. -1.
<mgrwt>
<rscale>  0 0.77874500E+02</rscale>
<asrwt>0</asrwt>
<pdfrwt beam="1">  1        2 0.14281262E-01 0.77874500E+02</pdfrwt>
<pdfrwt beam="2">  1       -1 0.25126803E-02 0.77874500E+02</pdfrwt>
<totfact> 0.18664907E+05</totfact>
</mgrwt>
</event>
<event>
 8    1  0.2389776E-024  0.7632866E+02  0.7818608E-02  0.1339805E+00
          2   -1    0    0  501    0  0.00000000000E+00  0.00000000000E+00  0.36706738209E+03  0.36706738210E+03  0.25500000000E-02 0. -1.
         -1   -1    0    0    0  501 -0.00000000000E+00 -0.00000000000E+00 -0.39679789711E+01  0.39679821720E+01  0.50400000000E-02 0.  1.
         24    2    1    2    0    0  0.00000000000E+00  0.88817841970E-15  0.36309940312E+03  0.37103536427E+03  0.76328664303E+02 0.  0.
         66    2    3    3    0    0 -0.17685051486E+02  0.74733524421E+01  0.34185921228E+03  0.34240375737E+03  0.19999995298E+01 0.  0.
        -13    1    3    3    0    0  0.17685051486E+02 -0.74733524421E+01  0.21240190841E+02  0.28631606902E+02  0.10566000000E+00 0.  1.
         13    1    4    4    0    0 -0.11360691129E+02  0.42072028924E+01  0.22346101871E+03  0.22378919524E+03  0.10566000000E+00 0. -1.
        -13    1    4    4    0    0 -0.38004786689E+01  0.17451571144E+01  0.63943505540E+02  0.64080201906E+02  0.10566000000E+00 0.  1.
         14    1    4    4    0    0 -0.25238816887E+01  0.15209924352E+01  0.54454688030E+02  0.54534360225E+02  0.00000000000E+00 0. -1.
<mgrwt>
<rscale>  0 0.76328664E+02</rscale>
<asrwt>0</asrwt>
<pdfrwt beam="1">  1        2 0.56471894E-01 0.76328664E+02</pdfrwt>
<pdfrwt beam="2">  1       -1 0.61045867E-03 0.76328664E+02</pdfrwt>
<totfact> 0.30983630E+05</totfact>
</mgrwt>
</event>
<event>
 8    1  0.2389776E-024  0.7975866E+02  0.7818608E-02  0.1329738E+00
          2   -1    0    0  501    0  0.00000000000E+00  0.00000000000E+00  0.10662026444E+02  0.10662026749E+02  0.25500000000E-02 0. -1.
         -1   -1    0    0    0  501 -0.00000000000E+00 -0.00000000000E+00 -0.14916124025E+03  0.14916124033E+03  0.50400000000E-02 0.  1.
         24    2    1    2    0    0  0.00000000000E+00  0.00000000000E+00 -0.13849921380E+03  0.15982326708E+03  0.79758663960E+02 0.  0.
         66    2    3    3    0    0 -0.42525538319E+01 -0.36744838870E+02 -0.99020712173E+02  0.10572307621E+03  0.20000014687E+01 0.  0.
        -13    1    3    3    0    0  0.42525538319E+01  0.36744838870E+02 -0.39478501629E+02  0.54100190874E+02  0.10566000000E+00 0.  1.
         13    1    4    4    0    0 -0.28855425439E+01 -0.31066115323E+02 -0.83204290987E+02  0.88861662598E+02  0.10566000000E+00 0. -1.
        -13    1    4    4    0    0 -0.54109921678E+00 -0.23805464122E+01 -0.66539775482E+01  0.70884674529E+01  0.10566000000E+00 0.  1.
         14    1    4    4    0    0 -0.82591207122E+00 -0.32981771344E+01 -0.91624436378E+01  0.97729461564E+01  0.00000000000E+00 0. -1.
<mgrwt>
<rscale>  0 0.79758664E+02</rscale>
<asrwt>0</asrwt>
<pdfrwt beam="1">  1        2 0.16403119E-02 0.79758664E+02</pdfrwt>
<pdfrwt beam="2">  1       -1 0.22947882E-01 0.79758664E+02</pdfrwt>
<totfact> 0.10885458E+05</totfact>
</mgrwt>
</event>
<event>
 8    1  0.2389776E-024  0.7969266E+02  0.7818608E-02  0.1329926E+00
         -1   -1    0    0    0  501 -0.00000000000E+00  0.00000000000E+00  0.15642992815E+01  0.15643074006E+01  0.50400000000E-02 0.  1.
          2   -1    0    0  501    0  0.00000000000E+00 -0.00000000000E+00 -0.10149757280E+04  0.10149757280E+04  0.25500000000E-02 0. -1.
         24    2    1    2    0    0  0.00000000000E+00  0.00000000000E+00 -0.10134114287E+04  0.10165400354E+04  0.79692657891E+02 0.  0.
         66    2    3    3    0    0  0.28876531079E+01 -0.17073493336E+02 -0.96443514584E+03  0.96459265661E+03  0.19999841054E+01 0.  0.
        -13    1    3    3    0    0 -0.28876531079E+01  0.17073493336E+02 -0.48976282895E+02  0.51947378812E+02  0.10566000000E+00 0.  1.
         13    1    4    4    0    0  0.72738490714E+00 -0.58521247161E+01 -0.29806227648E+03  0.29812062706E+03  0.10566000000E+00 0. -1.
        -13    1    4    4    0    0  0.23193410599E+00 -0.25120423218E+00 -0.20270057325E+02  0.20273215951E+02  0.10566000000E+00 0. -1.
         14    1    4    4    0    0  0.19283340948E+01 -0.10970164388E+02 -0.64610281204E+03  0.64619881360E+03  0.00000000000E+00 0. -1.
<mgrwt>
<rscale>  0 0.79692658E+02</rscale>
<asrwt>0</asrwt>
<pdfrwt beam="1">  1        2 0.15614959E+00 0.79692658E+02</pdfrwt>
<pdfrwt beam="2">  1       -1 0.24066286E-03 0.79692658E+02</pdfrwt>
<totfact> 0.35604285E+05</totfact>
</mgrwt>
</event>
<event>
 8    1  0.2389776E-024  0.8040566E+02  0.7818608E-02  0.1327904E+00
          2   -1    0    0  501    0  0.00000000000E+00  0.00000000000E+00  0.45717851233E+02  0.45717851305E+02  0.25500000000E-02 0. -1.
         -1   -1    0    0    0  501 -0.00000000000E+00 -0.00000000000E+00 -0.35353096018E+02  0.35353096377E+02  0.50400000000E-02 0.  1.
         24    2    1    2    0    0  0.00000000000E+00  0.00000000000E+00  0.10364755215E+02  0.81070947682E+02  0.80405661538E+02 0.  0.
         66    2    3    3    0    0 -0.13738874583E+02 -0.37724841832E+02  0.36424647141E+01  0.40363200020E+02  0.20000001546E+01 0.  0.
        -13    1    3    3    0    0  0.13738874583E+02  0.37724841832E+02  0.67222905011E+01  0.40707747662E+02  0.10566000000E+00 0.  1.
         13    1    4    4    0    0 -0.66860678882E+01 -0.19305889440E+02  0.13212328986E+01  0.20473829424E+02  0.10566000000E+00 0. -1.
        -13    1    4    4    0    0 -0.57764045169E+01 -0.16099115331E+02  0.20871696430E+01  0.17231245014E+02  0.10566000000E+00 0.  1.
        -14    1    4    4    0    0 -0.12764021778E+01 -0.23198370613E+01  0.23406217253E+00  0.26581255823E+01  0.00000000000E+00 0.  1.
<mgrwt>
<rscale>  0 0.80405662E+02</rscale>
<asrwt>0</asrwt>
<pdfrwt beam="1">  1        2 0.70335155E-02 0.80405662E+02</pdfrwt>
<pdfrwt beam="2">  1       -1 0.54389379E-02 0.80405662E+02</pdfrwt>
<totfact> 0.14455802E+05</totfact>
</mgrwt>
</event>
<event>
 8    1  0.2389776E-024  0.8098563E+02  0.7818608E-02  0.1326277E+00
          2   -1    0    0  501    0  0.00000000000E+00  0.00000000000E+00  0.11113682781E+04  0.11113682781E+04  0.25500000000E-02 0. -1.
         -1   -1    0    0    0  501 -0.00000000000E+00 -0.00000000000E+00 -0.14753554280E+01  0.14753640366E+01  0.50400000000E-02 0.  1.
         24    2    1    2    0    0 -0.35527136788E-14  0.00000000000E+00  0.11098929227E+04  0.11128436422E+04  0.80985628684E+02 0.  0.
         66    2    3    3    0    0  0.20952990623E+02 -0.20129224482E+02  0.94235070156E+03  0.94280064607E+03  0.19999999795E+01 0.  0.
        -13    1    3    3    0    0 -0.20952990623E+02  0.20129224482E+02  0.16754222115E+03  0.17004299611E+03  0.10566000000E+00 0.  1.
         13    1    4    4    0    0  0.16121946171E+02 -0.15595304362E+02  0.72819994049E+03  0.72854532814E+03  0.10566000000E+00 0. -1.
        -13    1    4    4    0    0  0.49890062612E+00 -0.90806784096E+00  0.31477763860E+02  0.31494988025E+02  0.10566000000E+00 0.  1.
         14    1    4    4    0    0  0.43321438259E+01 -0.36258522791E+01  0.18267299721E+03  0.18276032990E+03  0.00000000000E+00 0. -1.
<mgrwt>
<rscale>  0 0.80985629E+02</rscale>
<asrwt>0</asrwt>
<pdfrwt beam="1">  1        2 0.17098017E+00 0.80985629E+02</pdfrwt>
<pdfrwt beam="2">  1       -1 0.22697785E-03 0.80985629E+02</pdfrwt>
<totfact> 0.34135540E+05</totfact>
</mgrwt>
</event>
<event>
 8    1  0.2389776E-024  0.7976164E+02  0.7818608E-02  0.1329729E+00
         -1   -1    0    0    0  501 -0.00000000000E+00  0.00000000000E+00  0.22441153823E+01  0.22441210419E+01  0.50400000000E-02 0.  1.
          2   -1    0    0  501    0  0.00000000000E+00 -0.00000000000E+00 -0.70873267994E+03  0.70873267995E+03  0.25500000000E-02 0. -1.
         24    2    1    2    0    0 -0.35527136788E-14  0.00000000000E+00 -0.70648856456E+03  0.71097680099E+03  0.79761642976E+02 0.  0.
         66    2    3    3    0    0 -0.21883720224E+02  0.27129508587E+02 -0.52575013759E+03  0.52690807036E+03  0.19999973656E+01 0.  0.
        -13    1    3    3    0    0  0.21883720224E+02 -0.27129508587E+02 -0.18073842697E+03  0.18406873063E+03  0.10566000000E+00 0.  1.
         13    1    4    4    0    0 -0.13718479528E+02  0.17954175237E+02 -0.34302211785E+03  0.34376552123E+03  0.10566000000E+00 0. -1.
        -13    1    4    4    0    0 -0.58828742613E+01  0.67515242453E+01 -0.13871632051E+03  0.13900510793E+03  0.10566000000E+00 0.  1.
        -14    1    4    4    0    0 -0.22823664352E+01  0.24238091048E+01 -0.44011699223E+02  0.44137441199E+02  0.00000000000E+00 0.  1.
<mgrwt>
<rscale>  0 0.79761643E+02</rscale>
<asrwt>0</asrwt>
<pdfrwt beam="1">  1        2 0.10903562E+00 0.79761643E+02</pdfrwt>
<pdfrwt beam="2">  1       -1 0.34524952E-03 0.79761643E+02</pdfrwt>
<totfact> 0.33806930E+05</totfact>
</mgrwt>
</event>
<event>
 8    1  0.2389776E-024  0.8009657E+02  0.7818608E-02  0.1328778E+00
          2   -1    0    0  501    0  0.00000000000E+00  0.00000000000E+00  0.27904110709E+03  0.27904110710E+03  0.25500000000E-02 0. -1.
         -1   -1    0    0    0  501 -0.00000000000E+00 -0.00000000000E+00 -0.57477720896E+01  0.57477742993E+01  0.50400000000E-02 0.  1.
         24    2    1    2    0    0  0.71054273576E-14 -0.44408920985E-15  0.27329333500E+03  0.28478888140E+03  0.80096566805E+02 0.  0.
         66    2    3    3    0    0 -0.31393261692E+02  0.29422171422E+01  0.22437958214E+03  0.22659300608E+03  0.20000004808E+01 0.  0.
        -13    1    3    3    0    0  0.31393261692E+02 -0.29422171422E+01  0.48913752859E+02  0.58195875319E+02  0.10566000000E+00 0.  1.
         13    1    4    4    0    0 -0.18124502528E+02  0.16055483535E+01  0.12333253443E+03  0.12466756030E+03  0.10566000000E+00 0. -1.
        -13    1    4    4    0    0 -0.12704270719E+02  0.11447896218E+01  0.96430783129E+02  0.97270839087E+02  0.10566000000E+00 0.  1.
         14    1    4    4    0    0 -0.56448844485E+00  0.19187916696E+00  0.46162645844E+01  0.46546067001E+01  0.00000000000E+00 0. -1.
<mgrwt>
<rscale>  0 0.80096567E+02</rscale>
<asrwt>0</asrwt>
<pdfrwt beam="1">  1        2 0.42929390E-01 0.80096567E+02</pdfrwt>
<pdfrwt beam="2">  1       -1 0.88427304E-03 0.80096567E+02</pdfrwt>
<totfact> 0.24755789E+05</totfact>
</mgrwt>
</event>
<event>
 8    1  0.2389776E-024  0.7371773E+02  0.7818608E-02  0.1347888E+00
         -1   -1    0    0    0  501 -0.00000000000E+00  0.00000000000E+00  0.30737304381E+01  0.30737345702E+01  0.50400000000E-02 0.  1.
          2   -1    0    0  501    0  0.00000000000E+00 -0.00000000000E+00 -0.44199551907E+03  0.44199551908E+03  0.25500000000E-02 0. -1.
         24    2    1    2    0    0 -0.71054273576E-14 -0.35527136788E-14 -0.43892178864E+03  0.44506925365E+03  0.73717731969E+02 0.  0.
         66    2    3    3    0    0 -0.31904673384E+02 -0.15889594209E+02 -0.27567104381E+03  0.27797286159E+03  0.20000001481E+01 0.  0.
        -13    1    3    3    0    0  0.31904673384E+02  0.15889594209E+02 -0.16325074483E+03  0.16709639206E+03  0.10566000000E+00 0.  1.
         13    1    4    4    0    0 -0.52214607169E+01 -0.28518541366E+01 -0.41858244677E+02  0.42279079171E+02  0.10566000000E+00 0. -1.
        -13    1    4    4    0    0 -0.54570629149E+00 -0.24107986013E+00 -0.39856331521E+01  0.40314204090E+01  0.10566000000E+00 0.  1.
         14    1    4    4    0    0 -0.26137506375E+02 -0.12796660212E+02 -0.22982716598E+03  0.23166236201E+03  0.00000000000E+00 0. -1.
<mgrwt>
<rscale>  0 0.73717732E+02</rscale>
<asrwt>0</asrwt>
<pdfrwt beam="1">  1        2 0.67999260E-01 0.73717732E+02</pdfrwt>
<pdfrwt beam="2">  1       -1 0.47288228E-03 0.73717732E+02</pdfrwt>
<totfact> 0.36163955E+05</totfact>
</mgrwt>
</event>
<event>
 8    1  0.2389776E-024  0.7923528E+02  0.7818608E-02  0.1331236E+00
          2   -1    0    0  501    0  0.00000000000E+00  0.00000000000E+00  0.51557650256E+03  0.51557650257E+03  0.25500000000E-02 0. -1.
         -1   -1    0    0    0  501 -0.00000000000E+00 -0.00000000000E+00 -0.30442740104E+01  0.30442781825E+01  0.50400000000E-02 0.  1.
         24    2    1    2    0    0  0.35527136788E-14  0.00000000000E+00  0.51253222855E+03  0.51862078075E+03  0.79235275746E+02 0.  0.
         66    2    3    3    0    0  0.19629590015E+02  0.15211102521E+02  0.45826009460E+03  0.45893682871E+03  0.19999988179E+01 0.  0.
        -13    1    3    3    0    0 -0.19629590015E+02 -0.15211102521E+02  0.54272133951E+02  0.59683952045E+02  0.10566000000E+00 0.  1.
         13    1    4    4    0    0  0.35258010134E+01  0.31347043875E+01  0.76850296056E+02  0.76995044076E+02  0.10566000000E+00 0. -1.
        -13    1    4    4    0    0  0.70291893911E+01  0.46895164557E+01  0.15930145448E+03  0.15952543883E+03  0.10566000000E+00 0.  1.
         14    1    4    4    0    0  0.90745996108E+01  0.73868816773E+01  0.22210834406E+03  0.22241634580E+03  0.00000000000E+00 0. -1.
<mgrwt>
<rscale>  0 0.79235276E+02</rscale>
<asrwt>0</asrwt>
<pdfrwt beam="1">  1        2 0.79319323E-01 0.79235276E+02</pdfrwt>
<pdfrwt beam="2">  1       -1 0.46835099E-03 0.79235276E+02</pdfrwt>
<totfact> 0.31526578E+05</totfact>
</mgrwt>
</event>
<event>
 8    1  0.2389776E-024  0.7903173E+02  0.7818608E-02  0.1331822E+00
         -1   -1    0    0    0  501 -0.00000000000E+00  0.00000000000E+00  0.19267411925E+01  0.19267477843E+01  0.50400000000E-02 0.  1.
          2   -1    0    0  501    0  0.00000000000E+00 -0.00000000000E+00 -0.81043623035E+03  0.81043623035E+03  0.25500000000E-02 0. -1.
         24    2    1    2    0    0  0.00000000000E+00 -0.35527136788E-14 -0.80850948916E+03  0.81236297814E+03  0.79031729020E+02 0.  0.
         66    2    3    3    0    0  0.12223237855E+02 -0.15967283160E+02 -0.75386663124E+03  0.75413742738E+03  0.20000023668E+01 0.  0.
        -13    1    3    3    0    0 -0.12223237855E+02  0.15967283160E+02 -0.54642857918E+02  0.58225550754E+02  0.10566000000E+00 0.  1.
         13    1    4    4    0    0  0.60525249435E+00 -0.57271306227E+00 -0.23901275155E+02  0.23916029121E+02  0.10566000000E+00 0. -1.
        -13    1    4    4    0    0  0.86474861678E+00 -0.14473577781E+01 -0.77463197752E+02  0.77481615914E+02  0.10566000000E+00 0.  1.
         14    1    4    4    0    0  0.10753236744E+02 -0.13947212320E+02 -0.65250215833E+03  0.65273978235E+03  0.00000000000E+00 0. -1.
<mgrwt>
<rscale>  0 0.79031729E+02</rscale>
<asrwt>0</asrwt>
<pdfrwt beam="1">  1        2 0.12468222E+00 0.79031729E+02</pdfrwt>
<pdfrwt beam="2">  1       -1 0.29642288E-03 0.79031729E+02</pdfrwt>
<totfact> 0.35547250E+05</totfact>
</mgrwt>
</event>
<event>
 8    1  0.2389776E-024  0.7805402E+02  0.7818608E-02  0.1334666E+00
         -1   -1    0    0    0  501 -0.00000000000E+00  0.00000000000E+00  0.64566891624E+01  0.64566911295E+01  0.50400000000E-02 0.  1.
          2   -1    0    0  501    0  0.00000000000E+00 -0.00000000000E+00 -0.23589602796E+03  0.23589602797E+03  0.25500000000E-02 0. -1.
         24    2    1    2    0    0  0.35527136788E-14  0.00000000000E+00 -0.22943933880E+03  0.24235271910E+03  0.78054021478E+02 0.  0.
         66    2    3    3    0    0 -0.24003772956E+02 -0.28082168669E+02 -0.75975218061E+02  0.84504574259E+02  0.19999995004E+01 0.  0.
        -13    1    3    3    0    0  0.24003772956E+02  0.28082168669E+02 -0.15346412074E+03  0.15784814485E+03  0.10566000000E+00 0.  1.
         13    1    4    4    0    0 -0.11732918753E+02 -0.13406157799E+02 -0.36210712767E+02  0.40356081729E+02  0.10566000000E+00 0. -1.
        -13    1    4    4    0    0 -0.11225739810E+01 -0.20030727477E+01 -0.45255298013E+01  0.50758306506E+01  0.10566000000E+00 0.  1.
        -14    1    4    4    0    0 -0.11148280222E+02 -0.12672938122E+02 -0.35238975493E+02  0.39072661880E+02  0.00000000000E+00 0.  1.
<mgrwt>
<rscale>  0 0.78054021E+02</rscale>
<asrwt>0</asrwt>
<pdfrwt beam="1">  1        2 0.36291690E-01 0.78054021E+02</pdfrwt>
<pdfrwt beam="2">  1       -1 0.99333713E-03 0.78054021E+02</pdfrwt>
<totfact> 0.24941427E+05</totfact>
</mgrwt>
</event>
<event>
 8    1  0.2389776E-024  0.8305851E+02  0.7818608E-02  0.1320589E+00
         -1   -1    0    0    0  501 -0.00000000000E+00  0.00000000000E+00  0.24208655303E+01  0.24208707767E+01  0.50400000000E-02 0.  1.
          2   -1    0    0  501    0  0.00000000000E+00 -0.00000000000E+00 -0.71242177042E+03  0.71242177043E+03  0.25500000000E-02 0. -1.
         24    2    1    2    0    0  0.00000000000E+00  0.00000000000E+00 -0.71000090489E+03  0.71484264120E+03  0.83058513925E+02 0.  0.
         66    2    3    3    0    0  0.99471078171E+01  0.17387218621E+02 -0.66806260230E+03  0.66836584362E+03  0.20000001594E+01 0.  0.
        -13    1    3    3    0    0 -0.99471078171E+01 -0.17387218621E+02 -0.41938302591E+02  0.46476797582E+02  0.10566000000E+00 0.  1.
         13    1    4    4    0    0  0.14520985297E+01  0.20214679727E+01 -0.84113741257E+02  0.84150624211E+02  0.10566000000E+00 0. -1.
        -13    1    4    4    0    0  0.55093442634E+01  0.11196944237E+02 -0.39736278303E+03  0.39755869622E+03  0.10566000000E+00 0.  1.
        -14    1    4    4    0    0  0.29856650240E+01  0.41688064106E+01 -0.18658607801E+03  0.18665652319E+03  0.00000000000E+00 0.  1.
<mgrwt>
<rscale>  0 0.83058514E+02</rscale>
<asrwt>0</asrwt>
<pdfrwt beam="1">  1        2 0.10960318E+00 0.83058514E+02</pdfrwt>
<pdfrwt beam="2">  1       -1 0.37244182E-03 0.83058514E+02</pdfrwt>
<totfact> 0.30458558E+05</totfact>
</mgrwt>
</event>
<event>
 8    1  0.2389776E-024  0.8050123E+02  0.7818608E-02  0.1327635E+00
         -1   -1    0    0    0  501 -0.00000000000E+00  0.00000000000E+00  0.28810340221E+02  0.28810340662E+02  0.50400000000E-02 0.  1.
          2   -1    0    0  501    0  0.00000000000E+00 -0.00000000000E+00 -0.56233703487E+02  0.56233703545E+02  0.25500000000E-02 0. -1.
         24    2    1    2    0    0 -0.71054273576E-14  0.00000000000E+00 -0.27423363266E+02  0.85044044206E+02  0.80501233544E+02 0.  0.
         66    2    3    3    0    0 -0.37423848177E+02 -0.10398556498E+01 -0.29263725866E+02  0.47560396962E+02  0.19999988701E+01 0.  0.
        -13    1    3    3    0    0  0.37423848177E+02  0.10398556498E+01  0.18403625998E+01  0.37483647244E+02  0.10566000000E+00 0.  1.
         13    1    4    4    0    0 -0.11271444945E+02 -0.84425150254E+00 -0.81744066101E+01  0.13949563406E+02  0.10566000000E+00 0. -1.
        -13    1    4    4    0    0 -0.13375401679E+02  0.36934148143E+00 -0.10909366549E+02  0.17264507689E+02  0.10566000000E+00 0.  1.
         14    1    4    4    0    0 -0.12777001553E+02 -0.56494562866E+00 -0.10179952707E+02  0.16346325868E+02  0.00000000000E+00 0. -1.
<mgrwt>
<rscale>  0 0.80501234E+02</rscale>
<asrwt>0</asrwt>
<pdfrwt beam="1">  1        2 0.86513390E-02 0.80501234E+02</pdfrwt>
<pdfrwt beam="2">  1       -1 0.44323601E-02 0.80501234E+02</pdfrwt>
<totfact> 0.15078206E+05</totfact>
</mgrwt>
</event>
<event>
 8    1  0.2389776E-024  0.9004557E+02  0.7818608E-02  0.1302741E+00
          2   -1    0    0  501    0  0.00000000000E+00  0.00000000000E+00  0.19290703839E+04  0.19290703839E+04  0.25500000000E-02 0. -1.
         -1   -1    0    0    0  501 -0.00000000000E+00 -0.00000000000E+00 -0.10507857381E+01  0.10507978249E+01  0.50400000000E-02 0.  1.
         24    2    1    2    0    0  0.00000000000E+00  0.88817841970E-15  0.19280195981E+04  0.19301211817E+04  0.90045573202E+02 0.  0.
         66    2    3    3    0    0  0.21647477092E+02  0.71533748261E+01  0.17961104791E+04  0.17962562838E+04  0.19999979460E+01 0.  0.
        -13    1    3    3    0    0 -0.21647477092E+02 -0.71533748261E+01  0.13190911902E+03  0.13386489787E+03  0.10566000000E+00 0.  1.
         13    1    4    4    0    0  0.32367705119E+01  0.49947796151E+00  0.28909531556E+03  0.28911388553E+03  0.10566000000E+00 0. -1.
        -13    1    4    4    0    0  0.14263088723E+01  0.58450303129E+00  0.11326438298E+03  0.11327492051E+03  0.10566000000E+00 0.  1.
         14    1    4    4    0    0  0.16984397708E+02  0.60693938333E+01  0.13937507806E+04  0.13938674778E+04  0.00000000000E+00 0. -1.
<mgrwt>
<rscale>  0 0.90045573E+02</rscale>
<asrwt>0</asrwt>
<pdfrwt beam="1">  1        2 0.29677629E+00 0.90045573E+02</pdfrwt>
<pdfrwt beam="2">  1       -1 0.16166233E-03 0.90045573E+02</pdfrwt>
<totfact> 0.21016072E+05</totfact>
</mgrwt>
</event>
<event>
 8    1  0.2389776E-024  0.7958685E+02  0.7818608E-02  0.1330228E+00
         -1   -1    0    0    0  501 -0.00000000000E+00  0.00000000000E+00  0.22388006896E+01  0.22388063627E+01  0.50400000000E-02 0.  1.
          2   -1    0    0  501    0  0.00000000000E+00 -0.00000000000E+00 -0.70730481138E+03  0.70730481138E+03  0.25500000000E-02 0. -1.
         24    2    1    2    0    0 -0.35527136788E-14  0.00000000000E+00 -0.70506601069E+03  0.70954361775E+03  0.79586845992E+02 0.  0.
         66    2    3    3    0    0 -0.24569176681E+02 -0.20821665710E+02 -0.56075680692E+03  0.56168441559E+03  0.20000008664E+01 0.  0.
        -13    1    3    3    0    0  0.24569176681E+02  0.20821665710E+02 -0.14430920376E+03  0.14785920215E+03  0.10566000000E+00 0.  1.
         13    1    4    4    0    0 -0.18721048762E+02 -0.15595366102E+02 -0.41784043787E+03  0.41855027869E+03  0.10566000000E+00 0. -1.
        -13    1    4    4    0    0 -0.10559515884E+01 -0.57061461855E+00 -0.19853616892E+02  0.19890145865E+02  0.10566000000E+00 0.  1.
        -14    1    4    4    0    0 -0.47921763306E+01 -0.46556849898E+01 -0.12306275216E+03  0.12324399104E+03  0.00000000000E+00 0.  1.
<mgrwt>
<rscale>  0 0.79586846E+02</rscale>
<asrwt>0</asrwt>
<pdfrwt beam="1">  1        2 0.10881595E+00 0.79586846E+02</pdfrwt>
<pdfrwt beam="2">  1       -1 0.34443187E-03 0.79586846E+02</pdfrwt>
<totfact> 0.33984801E+05</totfact>
</mgrwt>
</event>
<event>
 8    1  0.2389776E-024  0.7976310E+02  0.7818608E-02  0.1329725E+00
         -1   -1    0    0    0  501 -0.00000000000E+00  0.00000000000E+00  0.22904030602E+01  0.22904086054E+01  0.50400000000E-02 0.  1.
          2   -1    0    0  501    0  0.00000000000E+00 -0.00000000000E+00 -0.69443507084E+03  0.69443507084E+03  0.25500000000E-02 0. -1.
         24    2    1    2    0    0  0.35527136788E-14  0.00000000000E+00 -0.69214466778E+03  0.69672547945E+03  0.79763102866E+02 0.  0.
         66    2    3    3    0    0 -0.29066993696E+02  0.22874795433E+02 -0.47596316954E+03  0.47740243521E+03  0.19999997966E+01 0.  0.
        -13    1    3    3    0    0  0.29066993696E+02 -0.22874795433E+02 -0.21618149824E+03  0.21932304423E+03  0.10566000000E+00 0.  1.
         13    1    4    4    0    0 -0.91020028980E+01  0.68932019936E+01 -0.14949796366E+03  0.14993336851E+03  0.10566000000E+00 0. -1.
        -13    1    4    4    0    0 -0.10225454563E+02  0.88019896303E+01 -0.16429098898E+03  0.16484409351E+03  0.10566000000E+00 0.  1.
        -14    1    4    4    0    0 -0.97395362343E+01  0.71796038087E+01 -0.16217421691E+03  0.16262497319E+03  0.00000000000E+00 0.  1.
<mgrwt>
<rscale>  0 0.79763103E+02</rscale>
<asrwt>0</asrwt>
<pdfrwt beam="1">  1        2 0.10683600E+00 0.79763103E+02</pdfrwt>
<pdfrwt beam="2">  1       -1 0.35237068E-03 0.79763103E+02</pdfrwt>
<totfact> 0.33648637E+05</totfact>
</mgrwt>
</event>
<event>
 8    1  0.2389776E-024  0.8041719E+02  0.7818608E-02  0.1327872E+00
         -1   -1    0    0    0  501 -0.00000000000E+00  0.00000000000E+00  0.75690820080E+01  0.75690836860E+01  0.50400000000E-02 0.  1.
          2   -1    0    0  501    0  0.00000000000E+00 -0.00000000000E+00 -0.21359668022E+03  0.21359668024E+03  0.25500000000E-02 0. -1.
         24    2    1    2    0    0  0.00000000000E+00  0.00000000000E+00 -0.20602759821E+03  0.22116576392E+03  0.80417186633E+02 0.  0.
         66    2    3    3    0    0  0.36121047244E+02 -0.16260962860E+02 -0.12164435433E+03  0.12794724656E+03  0.19999986324E+01 0.  0.
        -13    1    3    3    0    0 -0.36121047244E+02  0.16260962860E+02 -0.84383243879E+02  0.93218517360E+02  0.10566000000E+00 0.  1.
         13    1    4    4    0    0  0.10525794215E+02 -0.44536504277E+01 -0.33522555532E+02  0.35417513174E+02  0.10566000000E+00 0. -1.
        -13    1    4    4    0    0  0.68033172802E+01 -0.25297102324E+01 -0.22163137086E+02  0.23321671668E+02  0.10566000000E+00 0.  1.
         14    1    4    4    0    0  0.18791935749E+02 -0.92776021997E+01 -0.65958661717E+02  0.69208061721E+02  0.00000000000E+00 0. -1.
<mgrwt>
<rscale>  0 0.80417187E+02</rscale>
<asrwt>0</asrwt>
<pdfrwt beam="1">  1        2 0.32861023E-01 0.80417187E+02</pdfrwt>
<pdfrwt beam="2">  1       -1 0.11644744E-02 0.80417187E+02</pdfrwt>
<totfact> 0.22263852E+05</totfact>
</mgrwt>
</event>
<event>
 8    1  0.2389776E-024  0.7682352E+02  0.7818608E-02  0.1338315E+00
          2   -1    0    0  501    0  0.00000000000E+00  0.00000000000E+00  0.10102782400E+04  0.10102782400E+04  0.25500000000E-02 0. -1.
         -1   -1    0    0    0  501 -0.00000000000E+00 -0.00000000000E+00 -0.14604482568E+01  0.14604569533E+01  0.50400000000E-02 0.  1.
         24    2    1    2    0    0  0.00000000000E+00  0.00000000000E+00  0.10088177918E+04  0.10117386970E+04  0.76823524923E+02 0.  0.
         66    2    3    3    0    0 -0.21355109408E+02 -0.31733009313E+01  0.92273789533E+03  0.92299259694E+03  0.20000006179E+01 0.  0.
        -13    1    3    3    0    0  0.21355109408E+02  0.31733009313E+01  0.86079896436E+02  0.88746100033E+02  0.10566000000E+00 0.  1.
         13    1    4    4    0    0 -0.81547734572E+01 -0.94863390336E+00  0.31736758162E+03  0.31747376783E+03  0.10566000000E+00 0. -1.
        -13    1    4    4    0    0 -0.77492470204E+01 -0.16077753568E+01  0.34631762439E+03  0.34640805980E+03  0.10566000000E+00 0.  1.
         14    1    4    4    0    0 -0.54510889306E+01 -0.61689167105E+00  0.25905268932E+03  0.25911076931E+03  0.00000000000E+00 0. -1.
<mgrwt>
<rscale>  0 0.76823525E+02</rscale>
<asrwt>0</asrwt>
<pdfrwt beam="1">  1        2 0.15542735E+00 0.76823525E+02</pdfrwt>
<pdfrwt beam="2">  1       -1 0.22468512E-03 0.76823525E+02</pdfrwt>
<totfact> 0.39145583E+05</totfact>
</mgrwt>
</event>
<event>
 8    1  0.2389776E-024  0.7774342E+02  0.7818608E-02  0.1335580E+00
         -1   -1    0    0    0  501 -0.00000000000E+00  0.00000000000E+00  0.15122780638E+03  0.15122780646E+03  0.50400000000E-02 0.  1.
          2   -1    0    0  501    0  0.00000000000E+00 -0.00000000000E+00 -0.99916124621E+01  0.99916127875E+01  0.25500000000E-02 0. -1.
         24    2    1    2    0    0  0.00000000000E+00  0.00000000000E+00  0.14123619392E+03  0.16121941925E+03  0.77743415614E+02 0.  0.
         66    2    3    3    0    0 -0.54609840363E+01 -0.29629341546E+02  0.19814375713E+02  0.36115505134E+02  0.19999997920E+01 0.  0.
        -13    1    3    3    0    0  0.54609840363E+01  0.29629341546E+02  0.12142181820E+03  0.12510391412E+03  0.10566000000E+00 0.  1.
         13    1    4    4    0    0 -0.21747986389E+01 -0.15309206760E+02  0.10446726761E+02  0.18661372532E+02  0.10566000000E+00 0. -1.
        -13    1    4    4    0    0 -0.10163840334E+01 -0.43209866322E+01  0.33806104582E+01  0.55806498801E+01  0.10566000000E+00 0. -1.
         14    1    4    4    0    0 -0.22698013640E+01 -0.99991481535E+01  0.59870384934E+01  0.11873482722E+02  0.00000000000E+00 0. -1.
<mgrwt>
<rscale>  0 0.77743416E+02</rscale>
<asrwt>0</asrwt>
<pdfrwt beam="1">  1        2 0.15371712E-02 0.77743416E+02</pdfrwt>
<pdfrwt beam="2">  1       -1 0.23265817E-01 0.77743416E+02</pdfrwt>
<totfact> 0.11572058E+05</totfact>
</mgrwt>
</event>
<event>
 8    1  0.2389776E-024  0.7915700E+02  0.7818608E-02  0.1331461E+00
          2   -1    0    0  501    0  0.00000000000E+00  0.00000000000E+00  0.94324633089E+02  0.94324633123E+02  0.25500000000E-02 0. -1.
         -1   -1    0    0    0  501 -0.00000000000E+00 -0.00000000000E+00 -0.16607087678E+02  0.16607088442E+02  0.50400000000E-02 0.  1.
         24    2    1    2    0    0  0.00000000000E+00  0.17763568394E-14  0.77717545411E+02  0.11093172157E+03  0.79156995804E+02 0.  0.
         66    2    3    3    0    0  0.35208914627E+02 -0.15716466601E+02  0.26524218153E+02  0.46842386170E+02  0.20000004488E+01 0.  0.
        -13    1    3    3    0    0 -0.35208914627E+02  0.15716466601E+02  0.51193327259E+02  0.64089335396E+02  0.10566000000E+00 0.  1.
         13    1    4    4    0    0  0.15600424570E+02 -0.70670026103E+01  0.11656539460E+02  0.20717187282E+02  0.10566000000E+00 0. -1.
        -13    1    4    4    0    0  0.18785529604E+02 -0.79477859630E+01  0.14207185662E+02  0.24857970808E+02  0.10566000000E+00 0.  1.
        -14    1    4    4    0    0  0.82296045278E+00 -0.70167802776E+00  0.66049303101E+00  0.12672280795E+01  0.00000000000E+00 0.  1.
<mgrwt>
<rscale>  0 0.79156996E+02</rscale>
<asrwt>0</asrwt>
<pdfrwt beam="1">  1        2 0.14511482E-01 0.79156996E+02</pdfrwt>
<pdfrwt beam="2">  1       -1 0.25549366E-02 0.79156996E+02</pdfrwt>
<totfact> 0.17943946E+05</totfact>
</mgrwt>
</event>
<event>
 8    1  0.2389776E-024  0.7519829E+02  0.7818608E-02  0.1343258E+00
         -1   -1    0    0    0  501 -0.00000000000E+00  0.00000000000E+00  0.27592611161E+02  0.27592611621E+02  0.50400000000E-02 0.  1.
          2   -1    0    0  501    0  0.00000000000E+00 -0.00000000000E+00 -0.51234570377E+02  0.51234570441E+02  0.25500000000E-02 0. -1.
         24    2    1    2    0    0 -0.88817841970E-15  0.00000000000E+00 -0.23641959216E+02  0.78827182062E+02  0.75198287190E+02 0.  0.
         66    2    3    3    0    0 -0.75382855330E+01 -0.10750100835E+02 -0.48731864111E+02  0.50509256495E+02  0.19999987938E+01 0.  0.
        -13    1    3    3    0    0  0.75382855330E+01  0.10750100835E+02  0.25089904895E+02  0.28317925567E+02  0.10566000000E+00 0.  1.
         13    1    4    4    0    0 -0.17525653658E+01 -0.31084212230E+01 -0.12444396187E+02  0.12946348071E+02  0.10566000000E+00 0. -1.
        -13    1    4    4    0    0 -0.18028809081E+01 -0.35450082227E+01 -0.13945292037E+02  0.14501717033E+02  0.10566000000E+00 0.  1.
        -14    1    4    4    0    0 -0.39828392591E+01 -0.40966713893E+01 -0.22342175887E+02  0.23061191392E+02  0.00000000000E+00 0.  1.
<mgrwt>
<rscale>  0 0.75198287E+02</rscale>
<asrwt>0</asrwt>
<pdfrwt beam="1">  1        2 0.78822416E-02 0.75198287E+02</pdfrwt>
<pdfrwt beam="2">  1       -1 0.42450172E-02 0.75198287E+02</pdfrwt>
<totfact> 0.17782503E+05</totfact>
</mgrwt>
</event>
<event>
 8    1  0.2389776E-024  0.7890955E+02  0.7818608E-02  0.1332175E+00
          2   -1    0    0  501    0  0.00000000000E+00  0.00000000000E+00  0.66462236045E+03  0.66462236046E+03  0.25500000000E-02 0. -1.
         -1   -1    0    0    0  501 -0.00000000000E+00 -0.00000000000E+00 -0.23421983779E+01  0.23422038005E+01  0.50400000000E-02 0.  1.
         24    2    1    2    0    0  0.00000000000E+00  0.35527136788E-14  0.66228016208E+03  0.66696456426E+03  0.78909548841E+02 0.  0.
         66    2    3    3    0    0 -0.53207614789E+01  0.20909387481E+02  0.61029767100E+03  0.61068220885E+03  0.19999985861E+01 0.  0.
        -13    1    3    3    0    0  0.53207614789E+01 -0.20909387481E+02  0.51982491075E+02  0.56282355405E+02  0.10566000000E+00 0.  1.
         13    1    4    4    0    0 -0.15352561898E+01  0.81696747150E+01  0.23080367916E+03  0.23095335043E+03  0.10566000000E+00 0. -1.
        -13    1    4    4    0    0 -0.76484195615E+00  0.17883190255E+01  0.67535418961E+02  0.67563503805E+02  0.10566000000E+00 0.  1.
         14    1    4    4    0    0 -0.30206633329E+01  0.10951393740E+02  0.31195857288E+03  0.31216535462E+03  0.00000000000E+00 0. -1.
<mgrwt>
<rscale>  0 0.78909549E+02</rscale>
<asrwt>0</asrwt>
<pdfrwt beam="1">  1        2 0.10224951E+00 0.78909549E+02</pdfrwt>
<pdfrwt beam="2">  1       -1 0.36033892E-03 0.78909549E+02</pdfrwt>
<totfact> 0.34240772E+05</totfact>
</mgrwt>
</event>
<event>
 8    1  0.2389776E-024  0.8098461E+02  0.7818608E-02  0.1326280E+00
         -1   -1    0    0    0  501 -0.00000000000E+00  0.00000000000E+00  0.24695980470E+01  0.24696031898E+01  0.50400000000E-02 0.  1.
          2   -1    0    0  501    0  0.00000000000E+00 -0.00000000000E+00 -0.66392380976E+03  0.66392380976E+03  0.25500000000E-02 0. -1.
         24    2    1    2    0    0  0.00000000000E+00  0.00000000000E+00 -0.66145421171E+03  0.66639341295E+03  0.80984607405E+02 0.  0.
         66    2    3    3    0    0 -0.80470886823E+01 -0.25826654752E+02 -0.57858852457E+03  0.57922400891E+03  0.20000002117E+01 0.  0.
        -13    1    3    3    0    0  0.80470886823E+01  0.25826654752E+02 -0.82865687143E+02  0.87169404046E+02  0.10566000000E+00 0.  1.
         13    1    4    4    0    0 -0.28755304305E+01 -0.91931053007E+01 -0.20655072079E+03  0.20677522406E+03  0.10566000000E+00 0. -1.
        -13    1    4    4    0    0 -0.35750896422E+01 -0.11106241829E+02 -0.26441656180E+03  0.26467387327E+03  0.10566000000E+00 0.  1.
        -14    1    4    4    0    0 -0.15964686097E+01 -0.55273076221E+01 -0.10762124198E+03  0.10777491158E+03  0.00000000000E+00 0.  1.
<mgrwt>
<rscale>  0 0.80984607E+02</rscale>
<asrwt>0</asrwt>
<pdfrwt beam="1">  1        2 0.10214198E+00 0.80984607E+02</pdfrwt>
<pdfrwt beam="2">  1       -1 0.37993909E-03 0.80984607E+02</pdfrwt>
<totfact> 0.31997745E+05</totfact>
</mgrwt>
</event>
<event>
 8    1  0.2389776E-024  0.8148616E+02  0.7818608E-02  0.1324886E+00
         -1   -1    0    0    0  501 -0.00000000000E+00  0.00000000000E+00  0.65056460703E+02  0.65056460898E+02  0.50400000000E-02 0.  1.
          2   -1    0    0  501    0  0.00000000000E+00 -0.00000000000E+00 -0.25516275396E+02  0.25516275523E+02  0.25500000000E-02 0. -1.
         24    2    1    2    0    0  0.00000000000E+00  0.00000000000E+00  0.39540185307E+02  0.90572736421E+02  0.81486160351E+02 0.  0.
         66    2    3    3    0    0  0.37143013449E+02 -0.58028375198E+01  0.23941182746E+01  0.37722780590E+02  0.20000004345E+01 0.  0.
        -13    1    3    3    0    0 -0.37143013449E+02  0.58028375198E+01  0.37146067032E+02  0.52849955831E+02  0.10566000000E+00 0.  1.
         13    1    4    4    0    0  0.13114777148E+02 -0.21439452200E+01  0.10258990647E+01  0.13328822667E+02  0.10566000000E+00 0. -1.
        -13    1    4    4    0    0  0.22576916912E+02 -0.35659059778E+01  0.16348358082E+01  0.22915425260E+02  0.10566000000E+00 0.  1.
        -14    1    4    4    0    0  0.14513193893E+01 -0.92986321959E-01 -0.26661659831E+00  0.14785326632E+01  0.00000000000E+00 0.  1.
<mgrwt>
<rscale>  0 0.81486160E+02</rscale>
<asrwt>0</asrwt>
<pdfrwt beam="1">  1        2 0.39255809E-02 0.81486160E+02</pdfrwt>
<pdfrwt beam="2">  1       -1 0.10008686E-01 0.81486160E+02</pdfrwt>
<totfact> 0.12370616E+05</totfact>
</mgrwt>
</event>
<event>
 8    1  0.2389776E-024  0.7961795E+02  0.7818608E-02  0.1330139E+00
         -1   -1    0    0    0  501 -0.00000000000E+00  0.00000000000E+00  0.13599496545E+03  0.13599496554E+03  0.50400000000E-02 0.  1.
          2   -1    0    0  501    0  0.00000000000E+00 -0.00000000000E+00 -0.11653037131E+02  0.11653037410E+02  0.25500000000E-02 0. -1.
         24    2    1    2    0    0  0.00000000000E+00  0.00000000000E+00  0.12434192832E+03  0.14764800295E+03  0.79617947966E+02 0.  0.
         66    2    3    3    0    0 -0.97170262901E+01 -0.33121331373E+02  0.25526227801E+02  0.42977104301E+02  0.19999991321E+01 0.  0.
        -13    1    3    3    0    0  0.97170262901E+01  0.33121331373E+02  0.98815700519E+02  0.10467089865E+03  0.10566000000E+00 0.  1.
         13    1    4    4    0    0 -0.28364125059E+00 -0.87547279254E+00  0.87522470486E+00  0.12743968334E+01  0.10566000000E+00 0.  1.
        -13    1    4    4    0    0 -0.49458740568E+01 -0.17527596610E+02  0.12379671384E+02  0.22021483618E+02  0.10566000000E+00 0.  1.
         14    1    4    4    0    0 -0.44875109827E+01 -0.14718261970E+02  0.12271331712E+02  0.19681223850E+02  0.00000000000E+00 0. -1.
<mgrwt>
<rscale>  0 0.79617948E+02</rscale>
<asrwt>0</asrwt>
<pdfrwt beam="1">  1        2 0.17927750E-02 0.79617948E+02</pdfrwt>
<pdfrwt beam="2">  1       -1 0.20922302E-01 0.79617948E+02</pdfrwt>
<totfact> 0.11187573E+05</totfact>
</mgrwt>
</event>
<event>
 8    1  0.2389776E-024  0.8149025E+02  0.7818608E-02  0.1324875E+00
          2   -1    0    0  501    0  0.00000000000E+00  0.00000000000E+00  0.44426260216E+03  0.44426260217E+03  0.25500000000E-02 0. -1.
         -1   -1    0    0    0  501 -0.00000000000E+00 -0.00000000000E+00 -0.37368992807E+01  0.37369026795E+01  0.50400000000E-02 0.  1.
         24    2    1    2    0    0  0.00000000000E+00  0.35527136788E-14  0.44052570288E+03  0.44799950485E+03  0.81490253686E+02 0.  0.
         66    2    3    3    0    0  0.30617946159E+02 -0.26750798026E+02  0.20798406191E+03  0.21193025701E+03  0.20000022180E+01 0.  0.
        -13    1    3    3    0    0 -0.30617946159E+02  0.26750798026E+02  0.23254164098E+03  0.23606924784E+03  0.10566000000E+00 0.  1.
         13    1    4    4    0    0  0.10944440040E+02 -0.93687056428E+01  0.77462531209E+02  0.78790915203E+02  0.10566000000E+00 0.  1.
        -13    1    4    4    0    0  0.29760459727E+01 -0.22034488249E+01  0.17831788780E+02  0.18212520185E+02  0.10566000000E+00 0. -1.
        -14    1    4    4    0    0  0.16697460146E+02 -0.15178643559E+02  0.11268974192E+03  0.11492682163E+03  0.00000000000E+00 0.  1.
<mgrwt>
<rscale>  0 0.81490254E+02</rscale>
<asrwt>0</asrwt>
<pdfrwt beam="1">  1        2 0.68348104E-01 0.81490254E+02</pdfrwt>
<pdfrwt beam="2">  1       -1 0.57490775E-03 0.81490254E+02</pdfrwt>
<totfact> 0.27913306E+05</totfact>
</mgrwt>
</event>
<event>
 8    1  0.2389776E-024  0.7972533E+02  0.7818608E-02  0.1329833E+00
         -1   -1    0    0    0  501 -0.00000000000E+00  0.00000000000E+00  0.31673038809E+01  0.31673078909E+01  0.50400000000E-02 0.  1.
          2   -1    0    0  501    0  0.00000000000E+00 -0.00000000000E+00 -0.50169831989E+03  0.50169831989E+03  0.25500000000E-02 0. -1.
         24    2    1    2    0    0  0.00000000000E+00  0.00000000000E+00 -0.49853101601E+03  0.50486562778E+03  0.79725329714E+02 0.  0.
         66    2    3    3    0    0 -0.81763308204E+01 -0.29247094120E+02 -0.41269673958E+03  0.41381740389E+03  0.20000011954E+01 0.  0.
        -13    1    3    3    0    0  0.81763308204E+01  0.29247094120E+02 -0.85834276430E+02  0.91048223895E+02  0.10566000000E+00 0.  1.
         13    1    4    4    0    0 -0.11361192072E+01 -0.40605723994E+01 -0.52426201304E+02  0.52595596415E+02  0.10566000000E+00 0. -1.
        -13    1    4    4    0    0 -0.15789393166E+01 -0.64087887639E+01 -0.82430499801E+02  0.82694401771E+02  0.10566000000E+00 0.  1.
         14    1    4    4    0    0 -0.54612722966E+01 -0.18777732957E+02 -0.27784003847E+03  0.27852740570E+03  0.00000000000E+00 0. -1.
<mgrwt>
<rscale>  0 0.79725330E+02</rscale>
<asrwt>0</asrwt>
<pdfrwt beam="1">  1        2 0.77184294E-01 0.79725330E+02</pdfrwt>
<pdfrwt beam="2">  1       -1 0.48727823E-03 0.79725330E+02</pdfrwt>
<totfact> 0.30758640E+05</totfact>
</mgrwt>
</event>
<event>
 8    1  0.2389776E-024  0.8032941E+02  0.7818608E-02  0.1328119E+00
          2   -1    0    0  501    0  0.00000000000E+00  0.00000000000E+00  0.19367783853E+03  0.19367783855E+03  0.25500000000E-02 0. -1.
         -1   -1    0    0    0  501 -0.00000000000E+00 -0.00000000000E+00 -0.83293140994E+01  0.83293156242E+01  0.50400000000E-02 0.  1.
         24    2    1    2    0    0  0.00000000000E+00  0.44408920985E-15  0.18534852443E+03  0.20200715417E+03  0.80329414462E+02 0.  0.
         66    2    3    3    0    0 -0.40047540637E+02  0.27188495348E+01  0.92648572512E+02  0.10098987890E+03  0.19999993776E+01 0.  0.
        -13    1    3    3    0    0  0.40047540637E+02 -0.27188495348E+01  0.92699951922E+02  0.10101727528E+03  0.10566000000E+00 0.  1.
         13    1    4    4    0    0 -0.35430272314E+02  0.25124021053E+01  0.81660975446E+02  0.89051347185E+02  0.10566000000E+00 0. -1.
        -13    1    4    4    0    0 -0.13503547393E+01 -0.22640790195E+00  0.31575183835E+01  0.34432259348E+01  0.10566000000E+00 0.  1.
        -14    1    4    4    0    0 -0.32669135835E+01  0.43285533146E+00  0.78300786822E+01  0.84953057784E+01  0.00000000000E+00 0.  1.
<mgrwt>
<rscale>  0 0.80329414E+02</rscale>
<asrwt>0</asrwt>
<pdfrwt beam="1">  1        2 0.29796588E-01 0.80329414E+02</pdfrwt>
<pdfrwt beam="2">  1       -1 0.12814332E-02 0.80329414E+02</pdfrwt>
<totfact> 0.21579190E+05</totfact>
</mgrwt>
</event>
<event>
 8    1  0.2389776E-024  0.7478781E+02  0.7818608E-02  0.1344529E+00
         -1   -1    0    0    0  501 -0.00000000000E+00  0.00000000000E+00  0.96616792342E+02  0.96616792474E+02  0.50400000000E-02 0.  1.
          2   -1    0    0  501    0  0.00000000000E+00 -0.00000000000E+00 -0.14472680189E+02  0.14472680414E+02  0.25500000000E-02 0. -1.
         24    2    1    2    0    0  0.00000000000E+00  0.00000000000E+00  0.82144112153E+02  0.11108947289E+03  0.74787805323E+02 0.  0.
         66    2    3    3    0    0  0.88369353289E+01 -0.23354017071E+02 -0.19151498765E+00  0.25050713017E+02  0.20000013273E+01 0.  0.
        -13    1    3    3    0    0 -0.88369353289E+01  0.23354017071E+02  0.82335627141E+02  0.86038759871E+02  0.10566000000E+00 0.  1.
         13    1    4    4    0    0  0.51047310695E+01 -0.13748881512E+02 -0.98288493831E-01  0.14666657656E+02  0.10566000000E+00 0. -1.
        -13    1    4    4    0    0  0.26909125907E+01 -0.71513677733E+01  0.48319101646E+00  0.76568733301E+01  0.10566000000E+00 0.  1.
         14    1    4    4    0    0  0.10412916687E+01 -0.24537677858E+01 -0.57641751028E+00  0.27271820314E+01  0.00000000000E+00 0. -1.
<mgrwt>
<rscale>  0 0.74787805E+02</rscale>
<asrwt>0</asrwt>
<pdfrwt beam="1">  1        2 0.22265661E-02 0.74787805E+02</pdfrwt>
<pdfrwt beam="2">  1       -1 0.14864122E-01 0.74787805E+02</pdfrwt>
<totfact> 0.14119783E+05</totfact>
</mgrwt>
</event>
<event>
 8    1  0.2389776E-024  0.7804796E+02  0.7818608E-02  0.1334684E+00
          2   -1    0    0  501    0  0.00000000000E+00  0.00000000000E+00  0.35115758308E+02  0.35115758401E+02  0.25500000000E-02 0. -1.
         -1   -1    0    0    0  501 -0.00000000000E+00 -0.00000000000E+00 -0.43367166278E+02  0.43367166571E+02  0.50400000000E-02 0.  1.
         24    2    1    2    0    0  0.88817841970E-15  0.71054273576E-14 -0.82514079697E+01  0.78482924972E+02  0.78047958196E+02 0.  0.
         66    2    3    3    0    0  0.35527352778E+01 -0.32109803056E+02  0.17838352244E+02  0.36957653964E+02  0.19999988818E+01 0.  0.
        -13    1    3    3    0    0 -0.35527352778E+01  0.32109803056E+02 -0.26089760213E+02  0.41525271008E+02  0.10566000000E+00 0.  1.
         13    1    4    4    0    0  0.23896049892E+01 -0.24718875918E+02  0.13458845296E+02  0.28246853265E+02  0.10566000000E+00 0. -1.
        -13    1    4    4    0    0  0.36290269461E+00 -0.36147818583E+01  0.25455969764E+01  0.44372935727E+01  0.10566000000E+00 0.  1.
        -14    1    4    4    0    0  0.80022759397E+00 -0.37761452794E+01  0.18339099710E+01  0.42735071259E+01  0.00000000000E+00 0.  1.
<mgrwt>
<rscale>  0 0.78047958E+02</rscale>
<asrwt>0</asrwt>
<pdfrwt beam="1">  1        2 0.54024244E-02 0.78047958E+02</pdfrwt>
<pdfrwt beam="2">  1       -1 0.66718718E-02 0.78047958E+02</pdfrwt>
<totfact> 0.14868509E+05</totfact>
</mgrwt>
</event>
<event>
 8    1  0.2389776E-024  0.8174562E+02  0.7818608E-02  0.1324169E+00
         -1   -1    0    0    0  501 -0.00000000000E+00  0.00000000000E+00  0.61423250806E+01  0.61423271483E+01  0.50400000000E-02 0.  1.
          2   -1    0    0  501    0  0.00000000000E+00 -0.00000000000E+00 -0.27197949635E+03  0.27197949636E+03  0.25500000000E-02 0. -1.
         24    2    1    2    0    0  0.00000000000E+00 -0.35527136788E-14 -0.26583717127E+03  0.27812182351E+03  0.81745624250E+02 0.  0.
         66    2    3    3    0    0  0.19523388617E+02 -0.30385487971E+02 -0.19792195669E+03  0.20120025230E+03  0.20000005572E+01 0.  0.
        -13    1    3    3    0    0 -0.19523388617E+02  0.30385487971E+02 -0.67915214574E+02  0.76921571207E+02  0.10566000000E+00 0.  1.
         13    1    4    4    0    0  0.44341489809E+01 -0.69310976867E+01 -0.43713904884E+02  0.44481664049E+02  0.10566000000E+00 0.  1.
        -13    1    4    4    0    0  0.79718769174E+01 -0.11199327006E+02 -0.78890520597E+02  0.80079342848E+02  0.10566000000E+00 0. -1.
         14    1    4    4    0    0  0.71173627188E+01 -0.12255063278E+02 -0.75317531213E+02  0.76639245404E+02  0.00000000000E+00 0. -1.
<mgrwt>
<rscale>  0 0.81745624E+02</rscale>
<asrwt>0</asrwt>
<pdfrwt beam="1">  1        2 0.41842990E-01 0.81745624E+02</pdfrwt>
<pdfrwt beam="2">  1       -1 0.94497346E-03 0.81745624E+02</pdfrwt>
<totfact> 0.23247779E+05</totfact>
</mgrwt>
</event>
<event>
 8    1  0.2389776E-024  0.7885801E+02  0.7818608E-02  0.1332324E+00
         -1   -1    0    0    0  501 -0.00000000000E+00  0.00000000000E+00  0.88900746314E+00  0.88902174952E+00  0.50400000000E-02 0.  1.
          2   -1    0    0  501    0  0.00000000000E+00 -0.00000000000E+00 -0.17487297220E+04  0.17487297220E+04  0.25500000000E-02 0. -1.
         24    2    1    2    0    0 -0.17763568394E-14  0.00000000000E+00 -0.17478407146E+04  0.17496187438E+04  0.78858005894E+02 0.  0.
         66    2    3    3    0    0  0.84932695779E+01 -0.16376768164E+02 -0.16469906709E+04  0.16470952019E+04  0.20000006537E+01 0.  0.
        -13    1    3    3    0    0 -0.84932695779E+01  0.16376768164E+02 -0.10085004369E+03  0.10252354188E+03  0.10566000000E+00 0.  1.
         13    1    4    4    0    0  0.45842099178E+01 -0.98809511442E+01 -0.91716621820E+03  0.91723090395E+03  0.10566000000E+00 0. -1.
        -13    1    4    4    0    0  0.34287034560E+01 -0.59838909159E+01 -0.64242072663E+03  0.64245775279E+03  0.10566000000E+00 0.  1.
        -14    1    4    4    0    0  0.48035620415E+00 -0.51192610375E+00 -0.87403726060E+02  0.87406545176E+02  0.00000000000E+00 0.  1.
<mgrwt>
<rscale>  0 0.78858006E+02</rscale>
<asrwt>0</asrwt>
<pdfrwt beam="1">  1        2 0.26903259E+00 0.78858006E+02</pdfrwt>
<pdfrwt beam="2">  1       -1 0.13677288E-03 0.78858006E+02</pdfrwt>
<totfact> 0.31975916E+05</totfact>
</mgrwt>
</event>
<event>
 8    1  0.2389776E-024  0.7436384E+02  0.7818608E-02  0.1345852E+00
          2   -1    0    0  501    0  0.00000000000E+00  0.00000000000E+00  0.34078386616E+03  0.34078386617E+03  0.25500000000E-02 0. -1.
         -1   -1    0    0    0  501 -0.00000000000E+00 -0.00000000000E+00 -0.40568080893E+01  0.40568112200E+01  0.50400000000E-02 0.  1.
         24    2    1    2    0    0 -0.17763568394E-14  0.00000000000E+00  0.33672705807E+03  0.34484067739E+03  0.74363842999E+02 0.  0.
         66    2    3    3    0    0  0.10005178421E+02  0.15840990471E+02  0.31727000987E+03  0.31782904169E+03  0.20000012110E+01 0.  0.
        -13    1    3    3    0    0 -0.10005178421E+02 -0.15840990471E+02  0.19457048198E+02  0.27011635696E+02  0.10566000000E+00 0.  1.
         13    1    4    4    0    0  0.45369479144E+01  0.63896567260E+01  0.13497264023E+03  0.13519998663E+03  0.10566000000E+00 0. -1.
        -13    1    4    4    0    0  0.59888154796E-01  0.69681473560E+00  0.10551086127E+02  0.10574768076E+02  0.10566000000E+00 0.  1.
         14    1    4    4    0    0  0.54083423521E+01  0.87545190099E+01  0.17174628351E+03  0.17205428699E+03  0.00000000000E+00 0. -1.
<mgrwt>
<rscale>  0 0.74363843E+02</rscale>
<asrwt>0</asrwt>
<pdfrwt beam="1">  1        2 0.52428273E-01 0.74363843E+02</pdfrwt>
<pdfrwt beam="2">  1       -1 0.62412474E-03 0.74363843E+02</pdfrwt>
<totfact> 0.32294525E+05</totfact>
</mgrwt>
</event>
<event>
 8    1  0.2389776E-024  0.7945741E+02  0.7818608E-02  0.1330598E+00
          2   -1    0    0  501    0  0.00000000000E+00  0.00000000000E+00  0.25122377981E+02  0.25122378110E+02  0.25500000000E-02 0. -1.
         -1   -1    0    0    0  501 -0.00000000000E+00 -0.00000000000E+00 -0.62827246734E+02  0.62827246936E+02  0.50400000000E-02 0.  1.
         24    2    1    2    0    0 -0.71054273576E-14  0.00000000000E+00 -0.37704868753E+02  0.87949625047E+02  0.79457406314E+02 0.  0.
         66    2    3    3    0    0  0.32311742039E+02  0.20732801912E+02 -0.76598592652E+01  0.39199122404E+02  0.20000011291E+01 0.  0.
        -13    1    3    3    0    0 -0.32311742039E+02 -0.20732801912E+02 -0.30045009488E+02  0.48750502643E+02  0.10566000000E+00 0.  1.
         13    1    4    4    0    0  0.25548775905E+02  0.16314572427E+02 -0.61090057100E+01  0.30923071298E+02  0.10566000000E+00 0. -1.
        -13    1    4    4    0    0  0.24795162947E+01  0.12516790803E+01 -0.82906793889E+00  0.29005549914E+01  0.10566000000E+00 0.  1.
         14    1    4    4    0    0  0.42834498400E+01  0.31665504051E+01 -0.72178561630E+00  0.53754961144E+01  0.00000000000E+00 0. -1.
<mgrwt>
<rscale>  0 0.79457406E+02</rscale>
<asrwt>0</asrwt>
<pdfrwt beam="1">  1        2 0.38649813E-02 0.79457406E+02</pdfrwt>
<pdfrwt beam="2">  1       -1 0.96657303E-02 0.79457406E+02</pdfrwt>
<totfact> 0.13245478E+05</totfact>
</mgrwt>
</event>
<event>
 8    1  0.2389776E-024  0.8294738E+02  0.7818608E-02  0.1320889E+00
         -1   -1    0    0    0  501 -0.00000000000E+00  0.00000000000E+00  0.12156882097E+03  0.12156882107E+03  0.50400000000E-02 0.  1.
          2   -1    0    0  501    0  0.00000000000E+00 -0.00000000000E+00 -0.14148913839E+02  0.14148914069E+02  0.25500000000E-02 0. -1.
         24    2    1    2    0    0 -0.35527136788E-14  0.00000000000E+00  0.10741990713E+03  0.13571773514E+03  0.82947375996E+02 0.  0.
         66    2    3    3    0    0  0.21590050792E+02  0.35317569846E+02  0.57250625356E+02  0.70675986775E+02  0.19999924867E+01 0.  0.
        -13    1    3    3    0    0 -0.21590050792E+02 -0.35317569846E+02  0.50169281774E+02  0.65041748368E+02  0.10566000000E+00 0.  1.
         13    1    4    4    0    0  0.13748202167E+02  0.22733741656E+02  0.37166098323E+02  0.45685513033E+02  0.10566000000E+00 0. -1.
        -13    1    4    4    0    0  0.76404495237E+01  0.12047324764E+02  0.19586036214E+02  0.24230940583E+02  0.10566000000E+00 0.  1.
        -14    1    4    4    0    0  0.20139910103E+00  0.53650342560E+00  0.49849081929E+00  0.75953315958E+00  0.00000000000E+00 0.  1.
<mgrwt>
<rscale>  0 0.82947376E+02</rscale>
<asrwt>0</asrwt>
<pdfrwt beam="1">  1        2 0.21767559E-02 0.82947376E+02</pdfrwt>
<pdfrwt beam="2">  1       -1 0.18702896E-01 0.82947376E+02</pdfrwt>
<totfact> 0.10364683E+05</totfact>
</mgrwt>
</event>
<event>
 8    1  0.2389776E-024  0.7143869E+02  0.7818608E-02  0.1355268E+00
          2   -1    0    0  501    0  0.00000000000E+00  0.00000000000E+00  0.56490181447E+02  0.56490181504E+02  0.25500000000E-02 0. -1.
         -1   -1    0    0    0  501 -0.00000000000E+00 -0.00000000000E+00 -0.22585723490E+02  0.22585724052E+02  0.50400000000E-02 0.  1.
         24    2    1    2    0    0 -0.17763568394E-14  0.00000000000E+00  0.33904457957E+02  0.79075905556E+02  0.71438690989E+02 0.  0.
         66    2    3    3    0    0 -0.10824760937E+02  0.33806175275E+02  0.21082499630E+02  0.41334062525E+02  0.19999995157E+01 0.  0.
        -13    1    3    3    0    0  0.10824760937E+02 -0.33806175275E+02  0.12821958327E+02  0.37741843032E+02  0.10566000000E+00 0.  1.
         13    1    4    4    0    0 -0.20880559470E+01  0.73743571572E+01  0.42880685126E+01  0.87829275714E+01  0.10566000000E+00 0. -1.
        -13    1    4    4    0    0 -0.27257756168E+01  0.10531066891E+02  0.68976662224E+01  0.12881078601E+02  0.10566000000E+00 0.  1.
        -14    1    4    4    0    0 -0.60109293729E+01  0.15900751227E+02  0.98967648951E+01  0.19670056352E+02  0.00000000000E+00 0.  1.
<mgrwt>
<rscale>  0 0.71438691E+02</rscale>
<asrwt>0</asrwt>
<pdfrwt beam="1">  1        2 0.86907970E-02 0.71438691E+02</pdfrwt>
<pdfrwt beam="2">  1       -1 0.34747268E-02 0.71438691E+02</pdfrwt>
<totfact> 0.20847523E+05</totfact>
</mgrwt>
</event>
<event>
 8    1  0.2389776E-024  0.7920698E+02  0.7818608E-02  0.1331317E+00
          2   -1    0    0  501    0  0.00000000000E+00  0.00000000000E+00  0.73176555023E+02  0.73176555067E+02  0.25500000000E-02 0. -1.
         -1   -1    0    0    0  501 -0.00000000000E+00 -0.00000000000E+00 -0.21433593929E+02  0.21433594522E+02  0.50400000000E-02 0.  1.
         24    2    1    2    0    0  0.00000000000E+00  0.00000000000E+00  0.51742961093E+02  0.94610149589E+02  0.79206984431E+02 0.  0.
         66    2    3    3    0    0 -0.13316807631E+02  0.34889962036E+02  0.10232440038E+02  0.38773053151E+02  0.20000012938E+01 0.  0.
        -13    1    3    3    0    0  0.13316807631E+02 -0.34889962036E+02  0.41510521056E+02  0.55837096439E+02  0.10566000000E+00 0.  1.
         13    1    4    4    0    0 -0.39086366699E+01  0.10529093941E+02  0.27866852276E+01  0.11572209747E+02  0.10566000000E+00 0. -1.
        -13    1    4    4    0    0 -0.83006076138E+01  0.19877857597E+02  0.59866395715E+01  0.22358003641E+02  0.10566000000E+00 0.  1.
        -14    1    4    4    0    0 -0.11075633472E+01  0.44830104974E+01  0.14591152385E+01  0.48428397627E+01  0.00000000000E+00 0.  1.
<mgrwt>
<rscale>  0 0.79206984E+02</rscale>
<asrwt>0</asrwt>
<pdfrwt beam="1">  1        2 0.11257931E-01 0.79206984E+02</pdfrwt>
<pdfrwt beam="2">  1       -1 0.32974761E-02 0.79206984E+02</pdfrwt>
<totfact> 0.16769203E+05</totfact>
</mgrwt>
</event>
<event>
 8    1  0.2389776E-024  0.8088969E+02  0.7818608E-02  0.1326545E+00
          2   -1    0    0  501    0  0.00000000000E+00  0.00000000000E+00  0.38554318239E+03  0.38554318240E+03  0.25500000000E-02 0. -1.
         -1   -1    0    0    0  501 -0.00000000000E+00 -0.00000000000E+00 -0.42428064562E+01  0.42428094497E+01  0.50400000000E-02 0.  1.
         24    2    1    2    0    0  0.00000000000E+00  0.00000000000E+00  0.38130037594E+03  0.38978599185E+03  0.80889694980E+02 0.  0.
         66    2    3    3    0    0 -0.18648072318E+02 -0.62675857901E+01  0.36091262221E+03  0.36145394465E+03  0.19999989166E+01 0.  0.
        -13    1    3    3    0    0  0.18648072318E+02  0.62675857901E+01  0.20387753724E+02  0.28332047204E+02  0.10566000000E+00 0.  1.
         13    1    4    4    0    0 -0.11263746692E+02 -0.45890713937E+01  0.21924341483E+03  0.21958054941E+03  0.10566000000E+00 0. -1.
        -13    1    4    4    0    0 -0.25740194056E+01 -0.23591195535E+00  0.48254434885E+02  0.48323729993E+02  0.10566000000E+00 0.  1.
         14    1    4    4    0    0 -0.48103062203E+01 -0.14426024411E+01  0.93414772496E+02  0.93549665249E+02  0.00000000000E+00 0. -1.
<mgrwt>
<rscale>  0 0.80889695E+02</rscale>
<asrwt>0</asrwt>
<pdfrwt beam="1">  1        2 0.59314329E-01 0.80889695E+02</pdfrwt>
<pdfrwt beam="2">  1       -1 0.65273976E-03 0.80889695E+02</pdfrwt>
<totfact> 0.27095685E+05</totfact>
</mgrwt>
</event>
<event>
 8    1  0.2389776E-024  0.8042118E+02  0.7818608E-02  0.1327860E+00
          2   -1    0    0  501    0  0.00000000000E+00  0.00000000000E+00  0.10565890585E+03  0.10565890589E+03  0.25500000000E-02 0. -1.
         -1   -1    0    0    0  501 -0.00000000000E+00 -0.00000000000E+00 -0.15302936520E+02  0.15302937350E+02  0.50400000000E-02 0.  1.
         24    2    1    2    0    0  0.00000000000E+00  0.00000000000E+00  0.90355969335E+02  0.12096184324E+03  0.80421180820E+02 0.  0.
         66    2    3    3    0    0 -0.24339101741E+02  0.28020816483E+02  0.68377285319E+02  0.77826802433E+02  0.19999998466E+01 0.  0.
        -13    1    3    3    0    0  0.24339101741E+02 -0.28020816483E+02  0.21978684016E+02  0.43135040802E+02  0.10566000000E+00 0.  1.
         13    1    4    4    0    0 -0.11582425769E+02  0.12915163588E+02  0.32491571295E+02  0.36832966300E+02  0.10566000000E+00 0. -1.
        -13    1    4    4    0    0 -0.10891638813E+00  0.19221592276E+00  0.28085940946E+00  0.37263357880E+00  0.10566000000E+00 0. -1.
         14    1    4    4    0    0 -0.12647759584E+02  0.14913436972E+02  0.35604854615E+02  0.40621202554E+02  0.00000000000E+00 0. -1.
<mgrwt>
<rscale>  0 0.80421181E+02</rscale>
<asrwt>0</asrwt>
<pdfrwt beam="1">  1        2 0.16255216E-01 0.80421181E+02</pdfrwt>
<pdfrwt beam="2">  1       -1 0.23542980E-02 0.80421181E+02</pdfrwt>
<totfact> 0.17752725E+05</totfact>
</mgrwt>
</event>
<event>
 8    1  0.2389776E-024  0.7731087E+02  0.7818608E-02  0.1336861E+00
          2   -1    0    0  501    0  0.00000000000E+00  0.00000000000E+00  0.92996252817E+01  0.92996256313E+01  0.25500000000E-02 0. -1.
         -1   -1    0    0    0  501 -0.00000000000E+00 -0.00000000000E+00 -0.16067772704E+03  0.16067772712E+03  0.50400000000E-02 0.  1.
         24    2    1    2    0    0 -0.17763568394E-14  0.00000000000E+00 -0.15137810176E+03  0.16997735275E+03  0.77310870879E+02 0.  0.
         66    2    3    3    0    0 -0.10959715276E+02  0.35816294351E+02 -0.96518046677E+02  0.10355025657E+03  0.20000001319E+01 0.  0.
        -13    1    3    3    0    0  0.10959715276E+02 -0.35816294351E+02 -0.54860055083E+02  0.66427096186E+02  0.10566000000E+00 0.  1.
         13    1    4    4    0    0 -0.41176123044E+01  0.13822939116E+02 -0.37099641158E+02  0.39804810199E+02  0.10566000000E+00 0. -1.
        -13    1    4    4    0    0 -0.11253471764E+01  0.44219238040E+01 -0.13393376060E+02  0.14149682072E+02  0.10566000000E+00 0.  1.
        -14    1    4    4    0    0 -0.57167557948E+01  0.17571431431E+02 -0.46025029459E+02  0.49595764295E+02  0.00000000000E+00 0.  1.
<mgrwt>
<rscale>  0 0.77310871E+02</rscale>
<asrwt>0</asrwt>
<pdfrwt beam="1">  1        2 0.14307117E-02 0.77310871E+02</pdfrwt>
<pdfrwt beam="2">  1       -1 0.24719648E-01 0.77310871E+02</pdfrwt>
<totfact> 0.11554257E+05</totfact>
</mgrwt>
</event>
<event>
 8    1  0.2389776E-024  0.8005785E+02  0.7818608E-02  0.1328887E+00
         -1   -1    0    0    0  501 -0.00000000000E+00  0.00000000000E+00  0.26552668249E+02  0.26552668727E+02  0.50400000000E-02 0.  1.
          2   -1    0    0  501    0  0.00000000000E+00 -0.00000000000E+00 -0.60344773330E+02  0.60344773384E+02  0.25500000000E-02 0. -1.
         24    2    1    2    0    0  0.00000000000E+00  0.00000000000E+00 -0.33792105081E+02  0.86897442111E+02  0.80057848332E+02 0.  0.
         66    2    3    3    0    0 -0.30582535463E+02  0.10869644464E+02 -0.42289675774E+02  0.53346577475E+02  0.20000012642E+01 0.  0.
        -13    1    3    3    0    0  0.30582535463E+02 -0.10869644464E+02  0.84975706931E+01  0.33550864636E+02  0.10566000000E+00 0.  1.
         13    1    4    4    0    0 -0.76603538936E+01  0.23274880835E+01 -0.11611562568E+02  0.14104530189E+02  0.10566000000E+00 0.  1.
        -13    1    4    4    0    0 -0.62540227903E+01  0.25240306463E+01 -0.87735215824E+01  0.11066588307E+02  0.10566000000E+00 0. -1.
        -14    1    4    4    0    0 -0.16668158779E+02  0.60181257337E+01 -0.21904591624E+02  0.28175458979E+02  0.00000000000E+00 0.  1.
<mgrwt>
<rscale>  0 0.80057848E+02</rscale>
<asrwt>0</asrwt>
<pdfrwt beam="1">  1        2 0.92838113E-02 0.80057848E+02</pdfrwt>
<pdfrwt beam="2">  1       -1 0.40850259E-02 0.80057848E+02</pdfrwt>
<totfact> 0.15556209E+05</totfact>
</mgrwt>
</event>
<event>
 8    1  0.2389776E-024  0.7943073E+02  0.7818608E-02  0.1330675E+00
          2   -1    0    0  501    0  0.00000000000E+00  0.00000000000E+00  0.81017404600E+02  0.81017404640E+02  0.25500000000E-02 0. -1.
         -1   -1    0    0    0  501 -0.00000000000E+00 -0.00000000000E+00 -0.19468782754E+02  0.19468783407E+02  0.50400000000E-02 0.  1.
         24    2    1    2    0    0  0.00000000000E+00 -0.17763568394E-14  0.61548621846E+02  0.10048618805E+03  0.79430731691E+02 0.  0.
         66    2    3    3    0    0 -0.36463364533E+02  0.11167305732E+02  0.44710772270E+02  0.58799139545E+02  0.19999959846E+01 0.  0.
        -13    1    3    3    0    0  0.36463364533E+02 -0.11167305732E+02  0.16837849576E+02  0.41687048501E+02  0.10566000000E+00 0.  1.
         13    1    4    4    0    0 -0.17527578873E+02  0.53302980456E+01  0.20772528105E+02  0.27697241493E+02  0.10566000000E+00 0. -1.
        -13    1    4    4    0    0 -0.18945873480E+02  0.57943453983E+01  0.23875028299E+02  0.31024968990E+02  0.10566000000E+00 0.  1.
        -14    1    4    4    0    0  0.10087820316E-01  0.42662288212E-01  0.63215865661E-01  0.76929062294E-01  0.00000000000E+00 0.  1.
<mgrwt>
<rscale>  0 0.79430732E+02</rscale>
<asrwt>0</asrwt>
<pdfrwt beam="1">  1        2 0.12464216E-01 0.79430732E+02</pdfrwt>
<pdfrwt beam="2">  1       -1 0.29951974E-02 0.79430732E+02</pdfrwt>
<totfact> 0.17075398E+05</totfact>
</mgrwt>
</event>
<event>
 8    1  0.2389776E-024  0.7812276E+02  0.7818608E-02  0.1334465E+00
          2   -1    0    0  501    0  0.00000000000E+00  0.00000000000E+00  0.11553317242E+03  0.11553317244E+03  0.25500000000E-02 0. -1.
         -1   -1    0    0    0  501 -0.00000000000E+00 -0.00000000000E+00 -0.13206519981E+02  0.13206520943E+02  0.50400000000E-02 0.  1.
         24    2    1    2    0    0 -0.17763568394E-14  0.00000000000E+00  0.10232665243E+03  0.12873969339E+03  0.78122755039E+02 0.  0.
         66    2    3    3    0    0 -0.83690707895E+01 -0.25081740495E+02  0.98519526082E+02  0.10202564414E+03  0.19999975782E+01 0.  0.
        -13    1    3    3    0    0  0.83690707895E+01  0.25081740495E+02  0.38071263529E+01  0.26714049249E+02  0.10566000000E+00 0.  1.
         13    1    4    4    0    0 -0.44135034525E+00 -0.78929426986E+00  0.37350351589E+01  0.38444020661E+01  0.10566000000E+00 0.  1.
        -13    1    4    4    0    0  0.39893930875E-01 -0.32666893867E+00  0.11970868833E+01  0.12459876256E+01  0.10566000000E+00 0. -1.
         14    1    4    4    0    0 -0.79676143752E+01 -0.23965777287E+02  0.93587404039E+02  0.96935254447E+02  0.00000000000E+00 0. -1.
<mgrwt>
<rscale>  0 0.78122755E+02</rscale>
<asrwt>0</asrwt>
<pdfrwt beam="1">  1        2 0.17774334E-01 0.78122755E+02</pdfrwt>
<pdfrwt beam="2">  1       -1 0.20317724E-02 0.78122755E+02</pdfrwt>
<totfact> 0.19684477E+05</totfact>
</mgrwt>
</event>
<event>
 8    1  0.2389776E-024  0.8005490E+02  0.7818608E-02  0.1328896E+00
         -1   -1    0    0    0  501 -0.00000000000E+00  0.00000000000E+00  0.14754340864E+03  0.14754340872E+03  0.50400000000E-02 0.  1.
          2   -1    0    0  501    0  0.00000000000E+00 -0.00000000000E+00 -0.10859156127E+02  0.10859156426E+02  0.25500000000E-02 0. -1.
         24    2    1    2    0    0  0.00000000000E+00  0.35527136788E-14  0.13668425251E+03  0.15840256515E+03  0.80054904668E+02 0.  0.
         66    2    3    3    0    0 -0.25880883795E+02  0.21380453191E+02  0.25340061329E+02  0.42107750138E+02  0.19999972119E+01 0.  0.
        -13    1    3    3    0    0  0.25880883795E+02 -0.21380453191E+02  0.11134419118E+03  0.11629481501E+03  0.10566000000E+00 0.  1.
         13    1    4    4    0    0 -0.80288922166E+01  0.69413514797E+01  0.78603347766E+01  0.13207630273E+02  0.10566000000E+00 0. -1.
        -13    1    4    4    0    0 -0.20933262684E+01  0.23773641067E+01  0.24644097008E+01  0.40147670133E+01  0.10566000000E+00 0.  1.
        -14    1    4    4    0    0 -0.15758665310E+02  0.12061737604E+02  0.15015316852E+02  0.24885352852E+02  0.00000000000E+00 0.  1.
<mgrwt>
<rscale>  0 0.80054905E+02</rscale>
<asrwt>0</asrwt>
<pdfrwt beam="1">  1        2 0.16706395E-02 0.80054905E+02</pdfrwt>
<pdfrwt beam="2">  1       -1 0.22698985E-01 0.80054905E+02</pdfrwt>
<totfact> 0.10813810E+05</totfact>
</mgrwt>
</event>
<event>
 8    1  0.2389776E-024  0.7798170E+02  0.7818608E-02  0.1334879E+00
         -1   -1    0    0    0  501 -0.00000000000E+00  0.00000000000E+00  0.61282483205E+00  0.61284555671E+00  0.50400000000E-02 0.  1.
          2   -1    0    0  501    0  0.00000000000E+00 -0.00000000000E+00 -0.24807423911E+04  0.24807423911E+04  0.25500000000E-02 0. -1.
         24    2    1    2    0    0 -0.88817841970E-15  0.17763568394E-14 -0.24801295662E+04  0.24813552366E+04  0.77981696658E+02 0.  0.
         66    2    3    3    0    0  0.59149421724E+01 -0.12745156192E+02 -0.23973204712E+04  0.23973624814E+04  0.20000002156E+01 0.  0.
        -13    1    3    3    0    0 -0.59149421724E+01  0.12745156192E+02 -0.82809095058E+02  0.83992755256E+02  0.10566000000E+00 0.  1.
         13    1    4    4    0    0  0.59566523337E+01 -0.12196430074E+02 -0.22881318510E+04  0.22881721118E+04  0.10566000000E+00 0. -1.
        -13    1    4    4    0    0  0.75444264974E-01 -0.16069862896E+00 -0.44497114599E+02  0.44497594177E+02  0.10566000000E+00 0.  1.
         14    1    4    4    0    0 -0.11715442622E+00 -0.38802748891E+00 -0.64691505571E+02  0.64692775358E+02  0.00000000000E+00 0. -1.
<mgrwt>
<rscale>  0 0.77981697E+02</rscale>
<asrwt>0</asrwt>
<pdfrwt beam="1">  1        2 0.38164463E+00 0.77981697E+02</pdfrwt>
<pdfrwt beam="2">  1       -1 0.94284324E-04 0.77981697E+02</pdfrwt>
<totfact> 0.22722442E+05</totfact>
</mgrwt>
</event>
<event>
 8    1  0.2389776E-024  0.7269376E+02  0.7818608E-02  0.1351165E+00
          2   -1    0    0  501    0  0.00000000000E+00  0.00000000000E+00  0.97415085882E+02  0.97415085915E+02  0.25500000000E-02 0. -1.
         -1   -1    0    0    0  501 -0.00000000000E+00 -0.00000000000E+00 -0.13561511340E+02  0.13561512277E+02  0.50400000000E-02 0.  1.
         24    2    1    2    0    0  0.00000000000E+00  0.00000000000E+00  0.83853574542E+02  0.11097659819E+03  0.72693764401E+02 0.  0.
         66    2    3    3    0    0  0.27550700715E+02  0.16181580847E+02  0.68321305194E+02  0.75449886780E+02  0.20000008021E+01 0.  0.
        -13    1    3    3    0    0 -0.27550700715E+02 -0.16181580847E+02  0.15532269348E+02  0.35526711412E+02  0.10566000000E+00 0.  1.
         13    1    4    4    0    0  0.10011769748E+02  0.61230596877E+01  0.25782022645E+02  0.28327570477E+02  0.10566000000E+00 0. -1.
        -13    1    4    4    0    0  0.16140799183E+02  0.88073742897E+01  0.38955887858E+02  0.43077460499E+02  0.10566000000E+00 0.  1.
        -14    1    4    4    0    0  0.13981317838E+01  0.12511468693E+01  0.35833946908E+01  0.40448558050E+01  0.00000000000E+00 0.  1.
<mgrwt>
<rscale>  0 0.72693764E+02</rscale>
<asrwt>0</asrwt>
<pdfrwt beam="1">  1        2 0.14986937E-01 0.72693764E+02</pdfrwt>
<pdfrwt beam="2">  1       -1 0.20863864E-02 0.72693764E+02</pdfrwt>
<totfact> 0.22710159E+05</totfact>
</mgrwt>
</event>
<event>
 8    1  0.2389776E-024  0.7673114E+02  0.7818608E-02  0.1338593E+00
          2   -1    0    0  501    0  0.00000000000E+00  0.00000000000E+00  0.62870118087E+03  0.62870118087E+03  0.25500000000E-02 0. -1.
         -1   -1    0    0    0  501 -0.00000000000E+00 -0.00000000000E+00 -0.23411998678E+01  0.23412052927E+01  0.50400000000E-02 0.  1.
         24    2    1    2    0    0  0.00000000000E+00 -0.35527136788E-14  0.62635998100E+03  0.63104238617E+03  0.76731136701E+02 0.  0.
         66    2    3    3    0    0 -0.50160917951E+01  0.21364316040E+02  0.57193647279E+03  0.57236083381E+03  0.19999992648E+01 0.  0.
        -13    1    3    3    0    0  0.50160917951E+01 -0.21364316040E+02  0.54423508208E+02  0.58681552352E+02  0.10566000000E+00 0.  1.
         13    1    4    4    0    0 -0.15652596689E+01  0.96138032842E+01  0.25139973889E+03  0.25158838433E+03  0.10566000000E+00 0. -1.
        -13    1    4    4    0    0 -0.13726284755E+01  0.64788110827E+01  0.17728294264E+03  0.17740662901E+03  0.10566000000E+00 0.  1.
        -14    1    4    4    0    0 -0.20782036507E+01  0.52717016734E+01  0.14325379126E+03  0.14336582047E+03  0.00000000000E+00 0.  1.
<mgrwt>
<rscale>  0 0.76731137E+02</rscale>
<asrwt>0</asrwt>
<pdfrwt beam="1">  1        2 0.96723183E-01 0.76731137E+02</pdfrwt>
<pdfrwt beam="2">  1       -1 0.36018530E-03 0.76731137E+02</pdfrwt>
<totfact> 0.36300190E+05</totfact>
</mgrwt>
</event>
<event>
 8    1  0.2389776E-024  0.7797034E+02  0.7818608E-02  0.1334912E+00
          2   -1    0    0  501    0  0.00000000000E+00  0.00000000000E+00  0.12480838670E+03  0.12480838672E+03  0.25500000000E-02 0. -1.
         -1   -1    0    0    0  501 -0.00000000000E+00 -0.00000000000E+00 -0.12177413721E+02  0.12177414764E+02  0.50400000000E-02 0.  1.
         24    2    1    2    0    0 -0.88817841970E-15  0.35527136788E-14  0.11263097298E+03  0.13698580149E+03  0.77970338818E+02 0.  0.
         66    2    3    3    0    0 -0.75701580351E+01  0.31610161663E+02  0.94088054048E+02  0.99564408949E+02  0.20000004553E+01 0.  0.
        -13    1    3    3    0    0  0.75701580351E+01 -0.31610161663E+02  0.18542918928E+02  0.37421392537E+02  0.10566000000E+00 0.  1.
         13    1    4    4    0    0 -0.15184582546E+01  0.85215189262E+01  0.26194200528E+02  0.27587484583E+02  0.10566000000E+00 0. -1.
        -13    1    4    4    0    0 -0.21814427135E+01  0.93416599389E+01  0.28834682488E+02  0.30388737732E+02  0.10566000000E+00 0.  1.
        -14    1    4    4    0    0 -0.38702570671E+01  0.13746982798E+02  0.39059171032E+02  0.41588186634E+02  0.00000000000E+00 0.  1.
<mgrwt>
<rscale>  0 0.77970339E+02</rscale>
<asrwt>0</asrwt>
<pdfrwt beam="1">  1        2 0.19201290E-01 0.77970339E+02</pdfrwt>
<pdfrwt beam="2">  1       -1 0.18734484E-02 0.77970339E+02</pdfrwt>
<totfact> 0.20247176E+05</totfact>
</mgrwt>
</event>
<event>
 8    1  0.2389776E-024  0.7949341E+02  0.7818608E-02  0.1330495E+00
         -1   -1    0    0    0  501 -0.00000000000E+00  0.00000000000E+00  0.29138573433E+03  0.29138573437E+03  0.50400000000E-02 0.  1.
          2   -1    0    0  501    0  0.00000000000E+00 -0.00000000000E+00 -0.54216809241E+01  0.54216815237E+01  0.25500000000E-02 0. -1.
         24    2    1    2    0    0  0.17763568394E-14 -0.71054273576E-14  0.28596405340E+03  0.29680741589E+03  0.79493410364E+02 0.  0.
         66    2    3    3    0    0  0.11353316855E+02 -0.35089366612E+02  0.87990602128E+02  0.95428022642E+02  0.19999974154E+01 0.  0.
        -13    1    3    3    0    0 -0.11353316855E+02  0.35089366612E+02  0.19797345127E+03  0.20137939325E+03  0.10566000000E+00 0.  1.
         13    1    4    4    0    0  0.27030896163E+01 -0.84760843465E+01  0.20327169331E+02  0.22189089129E+02  0.10566000000E+00 0. -1.
        -13    1    4    4    0    0  0.56621351636E+00 -0.10262888160E+01  0.23538973892E+01  0.26317035233E+01  0.10566000000E+00 0.  1.
        -14    1    4    4    0    0  0.80840137224E+01 -0.25586993450E+02  0.65309535408E+02  0.70607229990E+02  0.00000000000E+00 0.  1.
<mgrwt>
<rscale>  0 0.79493410E+02</rscale>
<asrwt>0</asrwt>
<pdfrwt beam="1">  1        2 0.83410458E-03 0.79493410E+02</pdfrwt>
<pdfrwt beam="2">  1       -1 0.44828587E-01 0.79493410E+02</pdfrwt>
<totfact> 0.88883001E+04</totfact>
</mgrwt>
</event>
<event>
 8    1  0.2389776E-024  0.7925810E+02  0.7818608E-02  0.1331170E+00
          2   -1    0    0  501    0  0.00000000000E+00  0.00000000000E+00  0.46882027254E+03  0.46882027254E+03  0.25500000000E-02 0. -1.
         -1   -1    0    0    0  501 -0.00000000000E+00 -0.00000000000E+00 -0.33498136728E+01  0.33498174643E+01  0.50400000000E-02 0.  1.
         24    2    1    2    0    0  0.35527136788E-14  0.00000000000E+00  0.46547045887E+03  0.47217009001E+03  0.79258096262E+02 0.  0.
         66    2    3    3    0    0 -0.20095107995E+02 -0.23626306744E+02  0.37958940162E+03  0.38085972426E+03  0.20000013757E+01 0.  0.
        -13    1    3    3    0    0  0.20095107995E+02  0.23626306744E+02  0.85881057248E+02  0.91310365752E+02  0.10566000000E+00 0.  1.
         13    1    4    4    0    0 -0.71823790774E+01 -0.70722279638E+01  0.12409358916E+03  0.12450234139E+03  0.10566000000E+00 0. -1.
        -13    1    4    4    0    0 -0.69839532233E+01 -0.88361117189E+01  0.13964081559E+03  0.14009432899E+03  0.10566000000E+00 0.  1.
         14    1    4    4    0    0 -0.59287756946E+01 -0.77179670609E+01  0.11585499687E+03  0.11626305387E+03  0.00000000000E+00 0. -1.
<mgrwt>
<rscale>  0 0.79258096E+02</rscale>
<asrwt>0</asrwt>
<pdfrwt beam="1">  1        2 0.72126248E-01 0.79258096E+02</pdfrwt>
<pdfrwt beam="2">  1       -1 0.51535587E-03 0.79258096E+02</pdfrwt>
<totfact> 0.30555335E+05</totfact>
</mgrwt>
</event>
<event>
 8    1  0.2389776E-024  0.8275473E+02  0.7818608E-02  0.1321411E+00
         -1   -1    0    0    0  501 -0.00000000000E+00  0.00000000000E+00  0.90382729960E+01  0.90382744012E+01  0.50400000000E-02 0.  1.
          2   -1    0    0  501    0  0.00000000000E+00 -0.00000000000E+00 -0.18942626112E+03  0.18942626114E+03  0.25500000000E-02 0. -1.
         24    2    1    2    0    0 -0.71054273576E-14 -0.35527136788E-14 -0.18038798813E+03  0.19846453554E+03  0.82754731630E+02 0.  0.
         66    2    3    3    0    0 -0.35523685391E+02 -0.21091337289E+02 -0.94606201568E+02  0.10325265182E+03  0.20000001030E+01 0.  0.
        -13    1    3    3    0    0  0.35523685391E+02  0.21091337289E+02 -0.85781786558E+02  0.95211883720E+02  0.10566000000E+00 0.  1.
         13    1    4    4    0    0 -0.13702071463E+02 -0.88467810294E+01 -0.35921950308E+02  0.39451362142E+02  0.10566000000E+00 0. -1.
        -13    1    4    4    0    0 -0.20114643375E+02 -0.11459099036E+02 -0.53890002577E+02  0.58651968174E+02  0.10566000000E+00 0.  1.
         14    1    4    4    0    0 -0.17069705539E+01 -0.78545722312E+00 -0.47942486826E+01  0.51493215040E+01  0.00000000000E+00 0. -1.
<mgrwt>
<rscale>  0 0.82754732E+02</rscale>
<asrwt>0</asrwt>
<pdfrwt beam="1">  1        2 0.29142499E-01 0.82754732E+02</pdfrwt>
<pdfrwt beam="2">  1       -1 0.13905038E-02 0.82754732E+02</pdfrwt>
<totfact> 0.19793679E+05</totfact>
</mgrwt>
</event>
<event>
 8    1  0.2389776E-024  0.8082945E+02  0.7818608E-02  0.1326714E+00
          2   -1    0    0  501    0  0.00000000000E+00  0.00000000000E+00  0.14462833172E+03  0.14462833175E+03  0.25500000000E-02 0. -1.
         -1   -1    0    0    0  501 -0.00000000000E+00 -0.00000000000E+00 -0.11293429057E+02  0.11293430182E+02  0.50400000000E-02 0.  1.
         24    2    1    2    0    0 -0.17763568394E-14  0.00000000000E+00  0.13333490267E+03  0.15592176193E+03  0.80829447442E+02 0.  0.
         66    2    3    3    0    0  0.10844200022E+02  0.38225004827E+02  0.80698182276E+02  0.89971908512E+02  0.20000076424E+01 0.  0.
        -13    1    3    3    0    0 -0.10844200022E+02 -0.38225004827E+02  0.52636720391E+02  0.65949853417E+02  0.10566000000E+00 0.  1.
         13    1    4    4    0    0  0.86767322799E+00  0.37318113198E+01  0.88229706665E+01  0.96195243112E+01  0.10566000000E+00 0. -1.
        -13    1    4    4    0    0  0.27974258710E+01  0.11367926614E+02  0.23763054485E+02  0.26490550570E+02  0.10566000000E+00 0.  1.
         14    1    4    4    0    0  0.71791009227E+01  0.23125266893E+02  0.48112157124E+02  0.53861833631E+02  0.00000000000E+00 0. -1.
<mgrwt>
<rscale>  0 0.80829447E+02</rscale>
<asrwt>0</asrwt>
<pdfrwt beam="1">  1        2 0.22250512E-01 0.80829447E+02</pdfrwt>
<pdfrwt beam="2">  1       -1 0.17374508E-02 0.80829447E+02</pdfrwt>
<totfact> 0.19262088E+05</totfact>
</mgrwt>
</event>
<event>
 8    1  0.2389776E-024  0.8031484E+02  0.7818608E-02  0.1328160E+00
          2   -1    0    0  501    0  0.00000000000E+00  0.00000000000E+00  0.10888917746E+04  0.10888917746E+04  0.25500000000E-02 0. -1.
         -1   -1    0    0    0  501 -0.00000000000E+00 -0.00000000000E+00 -0.14809679758E+01  0.14809765518E+01  0.50400000000E-02 0.  1.
         24    2    1    2    0    0  0.00000000000E+00  0.00000000000E+00  0.10874108067E+04  0.10903727512E+04  0.80314843573E+02 0.  0.
         66    2    3    3    0    0 -0.13161247515E+02  0.26606439920E+02  0.91072361048E+03  0.91120942475E+03  0.19999989579E+01 0.  0.
        -13    1    3    3    0    0  0.13161247515E+02 -0.26606439920E+02  0.17668719618E+03  0.17916332643E+03  0.10566000000E+00 0.  1.
         13    1    4    4    0    0 -0.22328923477E+01  0.39015677921E+01  0.15671243588E+03  0.15677693313E+03  0.10566000000E+00 0. -1.
        -13    1    4    4    0    0 -0.79223720890E+00  0.20693846865E+01  0.64581545304E+02  0.64619634405E+02  0.10566000000E+00 0.  1.
         14    1    4    4    0    0 -0.10136117958E+02  0.20635487442E+02  0.68942962930E+03  0.68981285722E+03  0.00000000000E+00 0. -1.
<mgrwt>
<rscale>  0 0.80314844E+02</rscale>
<asrwt>0</asrwt>
<pdfrwt beam="1">  1        2 0.16752130E+00 0.80314844E+02</pdfrwt>
<pdfrwt beam="2">  1       -1 0.22784258E-03 0.80314844E+02</pdfrwt>
<totfact> 0.34903887E+05</totfact>
</mgrwt>
</event>
<event>
 8    1  0.2389776E-024  0.7714568E+02  0.7818608E-02  0.1337352E+00
          2   -1    0    0  501    0  0.00000000000E+00  0.00000000000E+00  0.16116018826E+03  0.16116018828E+03  0.25500000000E-02 0. -1.
         -1   -1    0    0    0  501 -0.00000000000E+00 -0.00000000000E+00 -0.92322041564E+01  0.92322055321E+01  0.50400000000E-02 0.  1.
         24    2    1    2    0    0  0.35527136788E-14  0.88817841970E-15  0.15192798410E+03  0.17039239381E+03  0.77145677230E+02 0.  0.
         66    2    3    3    0    0  0.16167833771E+02  0.50802812439E+01  0.15248382572E+03  0.15343573641E+03  0.19999986331E+01 0.  0.
        -13    1    3    3    0    0 -0.16167833771E+02 -0.50802812439E+01 -0.55584161718E+00  0.16956657403E+02  0.10566000000E+00 0.  1.
         13    1    4    4    0    0  0.24440221790E+01  0.92708791715E+00  0.20299760666E+02  0.20467637469E+02  0.10566000000E+00 0.  1.
        -13    1    4    4    0    0  0.83059095345E+01  0.30228308686E+01  0.76127903692E+02  0.76639379722E+02  0.10566000000E+00 0.  1.
         14    1    4    4    0    0  0.54179020573E+01  0.11303624582E+01  0.56056161361E+02  0.56328719216E+02  0.00000000000E+00 0. -1.
<mgrwt>
<rscale>  0 0.77145677E+02</rscale>
<asrwt>0</asrwt>
<pdfrwt beam="1">  1        2 0.24793875E-01 0.77145677E+02</pdfrwt>
<pdfrwt beam="2">  1       -1 0.14203392E-02 0.77145677E+02</pdfrwt>
<totfact> 0.22571119E+05</totfact>
</mgrwt>
</event>
<event>
 8    1  0.2389776E-024  0.7961345E+02  0.7818608E-02  0.1330152E+00
          2   -1    0    0  501    0  0.00000000000E+00  0.00000000000E+00  0.15605675102E+03  0.15605675104E+03  0.25500000000E-02 0. -1.
         -1   -1    0    0    0  501 -0.00000000000E+00 -0.00000000000E+00 -0.10153838566E+02  0.10153839817E+02  0.50400000000E-02 0.  1.
         24    2    1    2    0    0 -0.71054273576E-14  0.00000000000E+00  0.14590291245E+03  0.16621059086E+03  0.79613445164E+02 0.  0.
         66    2    3    3    0    0  0.30479410598E+02  0.12004373412E+01  0.12631132450E+03  0.12995763232E+03  0.19999952051E+01 0.  0.
        -13    1    3    3    0    0 -0.30479410598E+02 -0.12004373412E+01  0.19591587954E+02  0.36252958539E+02  0.10566000000E+00 0.  1.
         13    1    4    4    0    0  0.38081786315E+01  0.54499899066E+00  0.16451562874E+02  0.16895689788E+02  0.10566000000E+00 0. -1.
        -13    1    4    4    0    0  0.13680963037E+01  0.33219517806E+00  0.56256777077E+01  0.58001254158E+01  0.10566000000E+00 0.  1.
        -14    1    4    4    0    0  0.25303135663E+02  0.32324317248E+00  0.10423408392E+03  0.10726181712E+03  0.00000000000E+00 0.  1.
<mgrwt>
<rscale>  0 0.79613445E+02</rscale>
<asrwt>0</asrwt>
<pdfrwt beam="1">  1        2 0.24008730E-01 0.79613445E+02</pdfrwt>
<pdfrwt beam="2">  1       -1 0.15621292E-02 0.79613445E+02</pdfrwt>
<totfact> 0.20550773E+05</totfact>
</mgrwt>
</event>
<event>
 8    1  0.2389776E-024  0.8129530E+02  0.7818608E-02  0.1325415E+00
         -1   -1    0    0    0  501 -0.00000000000E+00  0.00000000000E+00  0.21738423440E+01  0.21738481865E+01  0.50400000000E-02 0.  1.
          2   -1    0    0  501    0  0.00000000000E+00 -0.00000000000E+00 -0.76005021294E+03  0.76005021295E+03  0.25500000000E-02 0. -1.
         24    2    1    2    0    0  0.00000000000E+00  0.00000000000E+00 -0.75787637060E+03  0.76222406113E+03  0.81295302810E+02 0.  0.
         66    2    3    3    0    0 -0.32868918262E+02 -0.20640423038E+01 -0.60215007434E+03  0.60305334596E+03  0.19999968492E+01 0.  0.
        -13    1    3    3    0    0  0.32868918262E+02  0.20640423038E+01 -0.15572629626E+03  0.15917071517E+03  0.10566000000E+00 0.  1.
         13    1    4    4    0    0 -0.16226509907E+02 -0.13109166299E+01 -0.31397532533E+03  0.31439709637E+03  0.10566000000E+00 0. -1.
        -13    1    4    4    0    0 -0.14204643797E+02 -0.67283018123E+00 -0.24856660851E+03  0.24897308014E+03  0.10566000000E+00 0.  1.
         14    1    4    4    0    0 -0.24377645584E+01 -0.80295492669E-01 -0.39608140507E+02  0.39683169453E+02  0.00000000000E+00 0. -1.
<mgrwt>
<rscale>  0 0.81295303E+02</rscale>
<asrwt>0</asrwt>
<pdfrwt beam="1">  1        2 0.11693059E+00 0.81295303E+02</pdfrwt>
<pdfrwt beam="2">  1       -1 0.33443834E-03 0.81295303E+02</pdfrwt>
<totfact> 0.32650091E+05</totfact>
</mgrwt>
</event>
<event>
 8    1  0.2389776E-024  0.8932853E+02  0.7818608E-02  0.1304486E+00
         -1   -1    0    0    0  501 -0.00000000000E+00  0.00000000000E+00  0.73125392156E+01  0.73125409525E+01  0.50400000000E-02 0.  1.
          2   -1    0    0  501    0  0.00000000000E+00 -0.00000000000E+00 -0.27280484248E+03  0.27280484250E+03  0.25500000000E-02 0. -1.
         24    2    1    2    0    0  0.00000000000E+00  0.00000000000E+00 -0.26549230327E+03  0.28011738345E+03  0.89328525204E+02 0.  0.
         66    2    3    3    0    0  0.25182727571E+02 -0.33098264867E+02 -0.18368869972E+03  0.18834862175E+03  0.20000018477E+01 0.  0.
        -13    1    3    3    0    0 -0.25182727571E+02  0.33098264867E+02 -0.81803603552E+02  0.91768761696E+02  0.10566000000E+00 0.  1.
         13    1    4    4    0    0  0.89014363287E+01 -0.11470394366E+02 -0.61743312173E+02  0.63427543526E+02  0.10566000000E+00 0. -1.
        -13    1    4    4    0    0  0.13128483692E+02 -0.17989617306E+02 -0.98462726024E+02  0.10095000245E+03  0.10566000000E+00 0.  1.
        -14    1    4    4    0    0  0.31528075504E+01 -0.36382531951E+01 -0.23482661519E+02  0.23971075775E+02  0.00000000000E+00 0.  1.
<mgrwt>
<rscale>  0 0.89328525E+02</rscale>
<asrwt>0</asrwt>
<pdfrwt beam="1">  1        2 0.41969968E-01 0.89328525E+02</pdfrwt>
<pdfrwt beam="2">  1       -1 0.11250064E-02 0.89328525E+02</pdfrwt>
<totfact> 0.18409428E+05</totfact>
</mgrwt>
</event>
<event>
 8    1  0.2389776E-024  0.8748595E+02  0.7818608E-02  0.1309057E+00
         -1   -1    0    0    0  501 -0.00000000000E+00  0.00000000000E+00  0.87163659982E+01  0.87163674553E+01  0.50400000000E-02 0.  1.
          2   -1    0    0  501    0  0.00000000000E+00 -0.00000000000E+00 -0.21952354227E+03  0.21952354229E+03  0.25500000000E-02 0. -1.
         24    2    1    2    0    0  0.00000000000E+00  0.71054273576E-14 -0.21080717627E+03  0.22823990974E+03  0.87485946474E+02 0.  0.
         66    2    3    3    0    0  0.26721270873E+02 -0.34355365385E+02 -0.94662315263E+02  0.10420782780E+03  0.19999989939E+01 0.  0.
        -13    1    3    3    0    0 -0.26721270873E+02  0.34355365385E+02 -0.11614486101E+03  0.12403208194E+03  0.10566000000E+00 0.  1.
         13    1    4    4    0    0  0.13260024388E+02 -0.17732913704E+02 -0.48123471722E+02  0.52973240130E+02  0.10566000000E+00 0. -1.
        -13    1    4    4    0    0  0.59969411435E+01 -0.64283414117E+01 -0.18936928536E+02  0.20878345308E+02  0.10566000000E+00 0.  1.
        -14    1    4    4    0    0  0.74643053410E+01 -0.10194110268E+02 -0.27601915004E+02  0.30356242361E+02  0.00000000000E+00 0.  1.
<mgrwt>
<rscale>  0 0.87485946E+02</rscale>
<asrwt>0</asrwt>
<pdfrwt beam="1">  1        2 0.33772848E-01 0.87485946E+02</pdfrwt>
<pdfrwt beam="2">  1       -1 0.13409797E-02 0.87485946E+02</pdfrwt>
<totfact> 0.17985615E+05</totfact>
</mgrwt>
</event>
<event>
 8    1  0.2389776E-024  0.7869196E+02  0.7818608E-02  0.1332805E+00
         -1   -1    0    0    0  501 -0.00000000000E+00  0.00000000000E+00  0.19357318840E+03  0.19357318847E+03  0.50400000000E-02 0.  1.
          2   -1    0    0  501    0  0.00000000000E+00 -0.00000000000E+00 -0.79975241147E+01  0.79975245212E+01  0.25500000000E-02 0. -1.
         24    2    1    2    0    0  0.00000000000E+00  0.00000000000E+00  0.18557566429E+03  0.20157071299E+03  0.78691963752E+02 0.  0.
         66    2    3    3    0    0  0.27343397531E+02  0.26020590296E+02  0.12106718834E+03  0.12683058226E+03  0.19999991345E+01 0.  0.
        -13    1    3    3    0    0 -0.27343397531E+02 -0.26020590296E+02  0.64508475946E+02  0.74740130725E+02  0.10566000000E+00 0.  1.
         13    1    4    4    0    0  0.50746347135E+01  0.44248503523E+01  0.20134071193E+02  0.21230242696E+02  0.10566000000E+00 0. -1.
        -13    1    4    4    0    0  0.14159361760E+02  0.14402349184E+02  0.64388475673E+02  0.67481865349E+02  0.10566000000E+00 0.  1.
        -14    1    4    4    0    0  0.81094010576E+01  0.71933907596E+01  0.36544641477E+02  0.38118474219E+02  0.00000000000E+00 0.  1.
<mgrwt>
<rscale>  0 0.78691964E+02</rscale>
<asrwt>0</asrwt>
<pdfrwt beam="1">  1        2 0.12303884E-02 0.78691964E+02</pdfrwt>
<pdfrwt beam="2">  1       -1 0.29780490E-01 0.78691964E+02</pdfrwt>
<totfact> 0.10488879E+05</totfact>
</mgrwt>
</event>
<event>
 8    1  0.2389776E-024  0.7979774E+02  0.7818608E-02  0.1329626E+00
          2   -1    0    0  501    0  0.00000000000E+00  0.00000000000E+00  0.55606821800E+02  0.55606821858E+02  0.25500000000E-02 0. -1.
         -1   -1    0    0    0  501 -0.00000000000E+00 -0.00000000000E+00 -0.28628136262E+02  0.28628136705E+02  0.50400000000E-02 0.  1.
         24    2    1    2    0    0  0.00000000000E+00  0.00000000000E+00  0.26978685538E+02  0.84234958564E+02  0.79797736627E+02 0.  0.
         66    2    3    3    0    0 -0.24774688638E+02  0.38201822450E+01  0.46230694711E+02  0.52627522560E+02  0.20000019657E+01 0.  0.
        -13    1    3    3    0    0  0.24774688638E+02 -0.38201822450E+01 -0.19252009172E+02  0.31607436004E+02  0.10566000000E+00 0.  1.
         13    1    4    4    0    0 -0.16463566382E+01  0.23471198097E+00  0.26010197381E+01  0.30890204933E+01  0.10566000000E+00 0. -1.
        -13    1    4    4    0    0 -0.18399409430E+01 -0.35002208216E-01  0.28461591220E+01  0.33909281343E+01  0.10566000000E+00 0.  1.
         14    1    4    4    0    0 -0.21288391057E+02  0.36204724722E+01  0.40783515851E+02  0.46147573933E+02  0.00000000000E+00 0. -1.
<mgrwt>
<rscale>  0 0.79797737E+02</rscale>
<asrwt>0</asrwt>
<pdfrwt beam="1">  1        2 0.85548957E-02 0.79797737E+02</pdfrwt>
<pdfrwt beam="2">  1       -1 0.44043287E-02 0.79797737E+02</pdfrwt>
<totfact> 0.15404662E+05</totfact>
</mgrwt>
</event>
<event>
 8    1  0.2389776E-024  0.8188550E+02  0.7818608E-02  0.1323784E+00
          2   -1    0    0  501    0  0.00000000000E+00  0.00000000000E+00  0.41534136426E+02  0.41534136505E+02  0.25500000000E-02 0. -1.
         -1   -1    0    0    0  501 -0.00000000000E+00 -0.00000000000E+00 -0.40359780599E+02  0.40359780914E+02  0.50400000000E-02 0.  1.
         24    2    1    2    0    0  0.35527136788E-14  0.88817841970E-15  0.11743558271E+01  0.81893917419E+02  0.81885496876E+02 0.  0.
         66    2    3    3    0    0 -0.14157300100E+02 -0.71792951821E+01  0.38305225626E+02  0.41512187869E+02  0.20000014919E+01 0.  0.
        -13    1    3    3    0    0  0.14157300100E+02  0.71792951821E+01 -0.37130869799E+02  0.40381729550E+02  0.10566000000E+00 0.  1.
         13    1    4    4    0    0 -0.38161678283E+01 -0.14411469919E+01  0.98326054494E+01  0.10645719116E+02  0.10566000000E+00 0. -1.
        -13    1    4    4    0    0 -0.34043718571E+00 -0.78780511806E-01  0.45070898173E+00  0.58000557606E+00  0.10566000000E+00 0. -1.
         14    1    4    4    0    0 -0.10000695086E+02 -0.56593676784E+01  0.28021911195E+02  0.30286463176E+02  0.00000000000E+00 0. -1.
<mgrwt>
<rscale>  0 0.81885497E+02</rscale>
<asrwt>0</asrwt>
<pdfrwt beam="1">  1        2 0.63898671E-02 0.81885497E+02</pdfrwt>
<pdfrwt beam="2">  1       -1 0.62091971E-02 0.81885497E+02</pdfrwt>
<totfact> 0.13470233E+05</totfact>
</mgrwt>
</event>
<event>
 8    1  0.2389776E-024  0.8037368E+02  0.7818608E-02  0.1327994E+00
          2   -1    0    0  501    0  0.00000000000E+00  0.00000000000E+00  0.33158554881E+02  0.33158554979E+02  0.25500000000E-02 0. -1.
         -1   -1    0    0    0  501 -0.00000000000E+00 -0.00000000000E+00 -0.48704845447E+02  0.48704845708E+02  0.50400000000E-02 0.  1.
         24    2    1    2    0    0  0.35527136788E-14  0.00000000000E+00 -0.15546290566E+02  0.81863400688E+02  0.80373684884E+02 0.  0.
         66    2    3    3    0    0 -0.17545925356E+02  0.31063018598E+02  0.11008618350E+02  0.37389307413E+02  0.20000024532E+01 0.  0.
        -13    1    3    3    0    0  0.17545925356E+02 -0.31063018598E+02 -0.26554908917E+02  0.44474093275E+02  0.10566000000E+00 0.  1.
         13    1    4    4    0    0 -0.11564166215E+02  0.19620200257E+02  0.75950647607E+01  0.24007881438E+02  0.10566000000E+00 0. -1.
        -13    1    4    4    0    0 -0.89362819674E+00  0.12169491755E+01  0.30138034140E+00  0.15432209160E+01  0.10566000000E+00 0.  1.
         14    1    4    4    0    0 -0.50881309443E+01  0.10225869165E+02  0.31121732483E+01  0.11838205059E+02  0.00000000000E+00 0. -1.
<mgrwt>
<rscale>  0 0.80373685E+02</rscale>
<asrwt>0</asrwt>
<pdfrwt beam="1">  1        2 0.51013161E-02 0.80373685E+02</pdfrwt>
<pdfrwt beam="2">  1       -1 0.74930532E-02 0.80373685E+02</pdfrwt>
<totfact> 0.13547599E+05</totfact>
</mgrwt>
</event>
<event>
 8    1  0.2389776E-024  0.8033766E+02  0.7818608E-02  0.1328096E+00
          2   -1    0    0  501    0  0.00000000000E+00  0.00000000000E+00  0.21059508177E+03  0.21059508178E+03  0.25500000000E-02 0. -1.
         -1   -1    0    0    0  501 -0.00000000000E+00 -0.00000000000E+00 -0.76617877803E+01  0.76617894380E+01  0.50400000000E-02 0.  1.
         24    2    1    2    0    0  0.00000000000E+00 -0.71054273576E-14  0.20293329399E+03  0.21825687122E+03  0.80337662566E+02 0.  0.
         66    2    3    3    0    0 -0.40153772506E+01 -0.36286933201E+02  0.14688069926E+03  0.15136315466E+03  0.19999994465E+01 0.  0.
        -13    1    3    3    0    0  0.40153772506E+01  0.36286933201E+02  0.56052594724E+02  0.66893716558E+02  0.10566000000E+00 0.  1.
         13    1    4    4    0    0 -0.12675511432E+01 -0.96271059150E+01  0.35864246521E+02  0.37155661706E+02  0.10566000000E+00 0.  1.
        -13    1    4    4    0    0 -0.13128469075E+01 -0.15204770538E+02  0.63938214361E+02  0.65734428071E+02  0.10566000000E+00 0. -1.
         14    1    4    4    0    0 -0.14349791999E+01 -0.11455056748E+02  0.47078238380E+02  0.48473064886E+02  0.00000000000E+00 0. -1.
<mgrwt>
<rscale>  0 0.80337663E+02</rscale>
<asrwt>0</asrwt>
<pdfrwt beam="1">  1        2 0.32399239E-01 0.80337663E+02</pdfrwt>
<pdfrwt beam="2">  1       -1 0.11787369E-02 0.80337663E+02</pdfrwt>
<totfact> 0.22211382E+05</totfact>
</mgrwt>
</event>
<event>
 8    1  0.2389776E-024  0.7705575E+02  0.7818608E-02  0.1337621E+00
          2   -1    0    0  501    0  0.00000000000E+00  0.00000000000E+00  0.47463171164E+03  0.47463171165E+03  0.25500000000E-02 0. -1.
         -1   -1    0    0    0  501 -0.00000000000E+00 -0.00000000000E+00 -0.31274691558E+01  0.31274732169E+01  0.50400000000E-02 0.  1.
         24    2    1    2    0    0  0.88817841970E-15 -0.35527136788E-14  0.47150424248E+03  0.47775918486E+03  0.77055746321E+02 0.  0.
         66    2    3    3    0    0  0.57965012099E+01 -0.28554684197E+02  0.39195584354E+03  0.39304243119E+03  0.20000019334E+01 0.  0.
        -13    1    3    3    0    0 -0.57965012099E+01  0.28554684197E+02  0.79548398940E+02  0.84716753678E+02  0.10566000000E+00 0.  1.
         13    1    4    4    0    0  0.26262864380E+01 -0.13316246811E+02  0.17668989803E+03  0.17721047102E+03  0.10566000000E+00 0. -1.
        -13    1    4    4    0    0  0.11478823250E+01 -0.44749902948E+01  0.56426728396E+02  0.56615634002E+02  0.10566000000E+00 0.  1.
        -14    1    4    4    0    0  0.20223324468E+01 -0.10763447091E+02  0.15883921711E+03  0.15921632616E+03  0.00000000000E+00 0.  1.
<mgrwt>
<rscale>  0 0.77055746E+02</rscale>
<asrwt>0</asrwt>
<pdfrwt beam="1">  1        2 0.73020256E-01 0.77055746E+02</pdfrwt>
<pdfrwt beam="2">  1       -1 0.48114947E-03 0.77055746E+02</pdfrwt>
<totfact> 0.33012796E+05</totfact>
</mgrwt>
</event>
<event>
 8    1  0.2389776E-024  0.8018326E+02  0.7818608E-02  0.1328532E+00
          2   -1    0    0  501    0  0.00000000000E+00  0.00000000000E+00  0.67518795659E+03  0.67518795660E+03  0.25500000000E-02 0. -1.
         -1   -1    0    0    0  501 -0.00000000000E+00 -0.00000000000E+00 -0.23805770195E+01  0.23805823546E+01  0.50400000000E-02 0.  1.
         24    2    1    2    0    0  0.00000000000E+00  0.00000000000E+00  0.67280737957E+03  0.67756853895E+03  0.80183258661E+02 0.  0.
         66    2    3    3    0    0 -0.19947480972E+02  0.26271197555E+02  0.52879863468E+03  0.52983023116E+03  0.19999996785E+01 0.  0.
        -13    1    3    3    0    0  0.19947480972E+02 -0.26271197555E+02  0.14400874490E+03  0.14773830779E+03  0.10566000000E+00 0.  1.
         13    1    4    4    0    0 -0.55667748880E+01  0.84062651618E+01  0.15986807411E+03  0.16018572521E+03  0.10566000000E+00 0. -1.
        -13    1    4    4    0    0 -0.71693623307E+01  0.96738585319E+01  0.19855703058E+03  0.19892181593E+03  0.10566000000E+00 0.  1.
        -14    1    4    4    0    0 -0.72113437532E+01  0.81910738614E+01  0.17037352998E+03  0.17072269002E+03  0.00000000000E+00 0.  1.
<mgrwt>
<rscale>  0 0.80183259E+02</rscale>
<asrwt>0</asrwt>
<pdfrwt beam="1">  1        2 0.10387514E+00 0.80183259E+02</pdfrwt>
<pdfrwt beam="2">  1       -1 0.36624278E-03 0.80183259E+02</pdfrwt>
<totfact> 0.32972015E+05</totfact>
</mgrwt>
</event>
<event>
 8    1  0.2389776E-024  0.7988191E+02  0.7818608E-02  0.1329387E+00
         -1   -1    0    0    0  501 -0.00000000000E+00  0.00000000000E+00  0.46329505693E+01  0.46329533107E+01  0.50400000000E-02 0.  1.
          2   -1    0    0  501    0  0.00000000000E+00 -0.00000000000E+00 -0.34433336447E+03  0.34433336448E+03  0.25500000000E-02 0. -1.
         24    2    1    2    0    0  0.00000000000E+00  0.88817841970E-15 -0.33970041390E+03  0.34896631779E+03  0.79881911267E+02 0.  0.
         66    2    3    3    0    0 -0.23370868539E+02  0.40636676723E+01 -0.31019659422E+03  0.31110872369E+03  0.19999999632E+01 0.  0.
        -13    1    3    3    0    0  0.23370868539E+02 -0.40636676723E+01 -0.29503819682E+02  0.37857594100E+02  0.10566000000E+00 0.  1.
         13    1    4    4    0    0 -0.37545953707E+01  0.39957948616E+00 -0.46679076121E+02  0.46831655552E+02  0.10566000000E+00 0. -1.
        -13    1    4    4    0    0 -0.18339123874E+01  0.76657111238E+00 -0.23329374239E+02  0.23414135311E+02  0.10566000000E+00 0.  1.
         14    1    4    4    0    0 -0.17782360781E+02  0.28975170738E+01 -0.24018814385E+03  0.24086293282E+03  0.00000000000E+00 0. -1.
<mgrwt>
<rscale>  0 0.79881911E+02</rscale>
<asrwt>0</asrwt>
<pdfrwt beam="1">  1        2 0.52974344E-01 0.79881911E+02</pdfrwt>
<pdfrwt beam="2">  1       -1 0.71276211E-03 0.79881911E+02</pdfrwt>
<totfact> 0.26896560E+05</totfact>
</mgrwt>
</event>
<event>
 8    1  0.2389776E-024  0.8025073E+02  0.7818608E-02  0.1328341E+00
         -1   -1    0    0    0  501 -0.00000000000E+00  0.00000000000E+00  0.51386874701E+01  0.51386899417E+01  0.50400000000E-02 0.  1.
          2   -1    0    0  501    0  0.00000000000E+00 -0.00000000000E+00 -0.31331821522E+03  0.31331821523E+03  0.25500000000E-02 0. -1.
         24    2    1    2    0    0  0.35527136788E-14  0.00000000000E+00 -0.30817952775E+03  0.31845690517E+03  0.80250726649E+02 0.  0.
         66    2    3    3    0    0  0.16789156605E+02 -0.16983098734E+02 -0.28201898482E+03  0.28303534969E+03  0.19999890051E+01 0.  0.
        -13    1    3    3    0    0 -0.16789156605E+02  0.16983098734E+02 -0.26160542936E+02  0.35421555483E+02  0.10566000000E+00 0.  1.
         13    1    4    4    0    0  0.79010178344E+01 -0.77519124579E+01 -0.13213672244E+03  0.13259955811E+03  0.10566000000E+00 0. -1.
        -13    1    4    4    0    0  0.64068996190E+01 -0.75151364350E+01 -0.11438392167E+03  0.11480948714E+03  0.10566000000E+00 0.  1.
        -14    1    4    4    0    0  0.24812391511E+01 -0.17160498407E+01 -0.35498340711E+02  0.35626304439E+02  0.00000000000E+00 0.  1.
<mgrwt>
<rscale>  0 0.80250727E+02</rscale>
<asrwt>0</asrwt>
<pdfrwt beam="1">  1        2 0.48202788E-01 0.80250727E+02</pdfrwt>
<pdfrwt beam="2">  1       -1 0.79056774E-03 0.80250727E+02</pdfrwt>
<totfact> 0.25686688E+05</totfact>
</mgrwt>
</event>
<event>
 8    1  0.2389776E-024  0.8059188E+02  0.7818608E-02  0.1327380E+00
         -1   -1    0    0    0  501 -0.00000000000E+00  0.00000000000E+00  0.57397089239E+01  0.57397111367E+01  0.50400000000E-02 0.  1.
          2   -1    0    0  501    0  0.00000000000E+00 -0.00000000000E+00 -0.28289976190E+03  0.28289976191E+03  0.25500000000E-02 0. -1.
         24    2    1    2    0    0  0.00000000000E+00 -0.35527136788E-14 -0.27716005298E+03  0.28863947305E+03  0.80591875743E+02 0.  0.
         66    2    3    3    0    0 -0.30089182870E+02  0.22135951538E+02 -0.19255425469E+03  0.19615427669E+03  0.19999978928E+01 0.  0.
        -13    1    3    3    0    0  0.30089182870E+02 -0.22135951538E+02 -0.84605798291E+02  0.92485196355E+02  0.10566000000E+00 0.  1.
         13    1    4    4    0    0 -0.19267712885E+02  0.13383109519E+02 -0.11984181714E+03  0.12211643902E+03  0.10566000000E+00 0. -1.
        -13    1    4    4    0    0 -0.44398438254E+01  0.32137495137E+01 -0.30260766151E+02  0.30753301143E+02  0.10566000000E+00 0.  1.
         14    1    4    4    0    0 -0.63816261600E+01  0.55390925057E+01 -0.42451671399E+02  0.43284536532E+02  0.00000000000E+00 0. -1.
<mgrwt>
<rscale>  0 0.80591876E+02</rscale>
<asrwt>0</asrwt>
<pdfrwt beam="1">  1        2 0.43523030E-01 0.80591876E+02</pdfrwt>
<pdfrwt beam="2">  1       -1 0.88303253E-03 0.80591876E+02</pdfrwt>
<totfact> 0.24479902E+05</totfact>
</mgrwt>
</event>
<event>
 8    1  0.2389776E-024  0.7514927E+02  0.7818608E-02  0.1343409E+00
         -1   -1    0    0    0  501 -0.00000000000E+00  0.00000000000E+00  0.72862430373E+01  0.72862447804E+01  0.50400000000E-02 0.  1.
          2   -1    0    0  501    0  0.00000000000E+00 -0.00000000000E+00 -0.19376970527E+03  0.19376970529E+03  0.25500000000E-02 0. -1.
         24    2    1    2    0    0  0.44408920985E-15  0.00000000000E+00 -0.18648346223E+03  0.20105595007E+03  0.75149273923E+02 0.  0.
         66    2    3    3    0    0  0.34954031076E+01  0.12102573485E+02 -0.18794182445E+03  0.18837414766E+03  0.20000007662E+01 0.  0.
        -13    1    3    3    0    0 -0.34954031076E+01 -0.12102573485E+02  0.14583622151E+01  0.12681802404E+02  0.10566000000E+00 0.  1.
         13    1    4    4    0    0  0.12212529646E+01  0.37659663575E+01 -0.48457894340E+02  0.48619467802E+02  0.10566000000E+00 0. -1.
        -13    1    4    4    0    0  0.14606432630E+01  0.44470400038E+01 -0.82015139808E+02  0.82148669893E+02  0.10566000000E+00 0.  1.
         14    1    4    4    0    0  0.81350687997E+00  0.38895671235E+01 -0.57468790299E+02  0.57606009967E+02  0.00000000000E+00 0. -1.
<mgrwt>
<rscale>  0 0.75149274E+02</rscale>
<asrwt>0</asrwt>
<pdfrwt beam="1">  1        2 0.29810720E-01 0.75149274E+02</pdfrwt>
<pdfrwt beam="2">  1       -1 0.11209608E-02 0.75149274E+02</pdfrwt>
<totfact> 0.25721655E+05</totfact>
</mgrwt>
</event>
<event>
 8    1  0.2389776E-024  0.7974074E+02  0.7818608E-02  0.1329789E+00
          2   -1    0    0  501    0  0.00000000000E+00  0.00000000000E+00  0.71770721069E+03  0.71770721069E+03  0.25500000000E-02 0. -1.
         -1   -1    0    0    0  501 -0.00000000000E+00 -0.00000000000E+00 -0.22148925255E+01  0.22148982597E+01  0.50400000000E-02 0.  1.
         24    2    1    2    0    0  0.00000000000E+00  0.00000000000E+00  0.71549231816E+03  0.71992210895E+03  0.79740739956E+02 0.  0.
         66    2    3    3    0    0  0.38471174798E+01  0.26856986008E+02  0.62142691751E+03  0.62202211521E+03  0.19999992848E+01 0.  0.
        -13    1    3    3    0    0 -0.38471174798E+01 -0.26856986008E+02  0.94065400655E+02  0.97899993743E+02  0.10566000000E+00 0.  1.
         13    1    4    4    0    0  0.30840495881E+01  0.15822704106E+02  0.36563165053E+03  0.36598686364E+03  0.10566000000E+00 0. -1.
        -13    1    4    4    0    0  0.67101111539E+00  0.74645011814E+01  0.17967179843E+03  0.17982807163E+03  0.10566000000E+00 0.  1.
         14    1    4    4    0    0  0.92056776310E-01  0.35697807205E+01  0.76123468554E+02  0.76207179935E+02  0.00000000000E+00 0. -1.
<mgrwt>
<rscale>  0 0.79740740E+02</rscale>
<asrwt>0</asrwt>
<pdfrwt beam="1">  1        2 0.11041653E+00 0.79740740E+02</pdfrwt>
<pdfrwt beam="2">  1       -1 0.34075302E-03 0.79740740E+02</pdfrwt>
<totfact> 0.33924503E+05</totfact>
</mgrwt>
</event>
<event>
 8    1  0.2389776E-024  0.8305239E+02  0.7818608E-02  0.1320606E+00
          2   -1    0    0  501    0  0.00000000000E+00  0.00000000000E+00  0.19236624147E+03  0.19236624149E+03  0.25500000000E-02 0. -1.
         -1   -1    0    0    0  501 -0.00000000000E+00 -0.00000000000E+00 -0.89642791288E+01  0.89642805456E+01  0.50400000000E-02 0.  1.
         24    2    1    2    0    0  0.00000000000E+00  0.35527136788E-14  0.18340196234E+03  0.20133052203E+03  0.83052388956E+02 0.  0.
         66    2    3    3    0    0  0.32174977535E+02  0.19756563881E+02  0.13352163647E+03  0.13877167719E+03  0.19999967136E+01 0.  0.
        -13    1    3    3    0    0 -0.32174977535E+02 -0.19756563881E+02  0.49880325868E+02  0.62558844846E+02  0.10566000000E+00 0.  1.
         13    1    4    4    0    0  0.23144773887E+02  0.14273346683E+02  0.97390669046E+02  0.10111559012E+03  0.10566000000E+00 0. -1.
        -13    1    4    4    0    0  0.12179421088E+01  0.39478834394E+00  0.42922533069E+01  0.44803842807E+01  0.10566000000E+00 0.  1.
         14    1    4    4    0    0  0.78122615396E+01  0.50884288541E+01  0.31838714121E+02  0.33175702787E+02  0.00000000000E+00 0. -1.
<mgrwt>
<rscale>  0 0.83052389E+02</rscale>
<asrwt>0</asrwt>
<pdfrwt beam="1">  1        2 0.29594805E-01 0.83052389E+02</pdfrwt>
<pdfrwt beam="2">  1       -1 0.13791200E-02 0.83052389E+02</pdfrwt>
<totfact> 0.19710891E+05</totfact>
</mgrwt>
</event>
<event>
 8    1  0.2389776E-024  0.7804143E+02  0.7818608E-02  0.1334703E+00
         -1   -1    0    0    0  501 -0.00000000000E+00  0.00000000000E+00  0.13754471560E+02  0.13754472484E+02  0.50400000000E-02 0.  1.
          2   -1    0    0  501    0  0.00000000000E+00 -0.00000000000E+00 -0.11069972557E+03  0.11069972560E+03  0.25500000000E-02 0. -1.
         24    2    1    2    0    0 -0.35527136788E-14  0.35527136788E-14 -0.96945254007E+02  0.12445419808E+03  0.78041432235E+02 0.  0.
         66    2    3    3    0    0 -0.27870100388E+02  0.21215959843E+02 -0.21172168399E+02  0.40977068791E+02  0.20000010739E+01 0.  0.
        -13    1    3    3    0    0  0.27870100388E+02 -0.21215959843E+02 -0.75773085608E+02  0.83477129289E+02  0.10566000000E+00 0.  1.
         13    1    4    4    0    0 -0.10418492349E+02  0.79529080346E+01 -0.80766529910E+01  0.15396013010E+02  0.10566000000E+00 0. -1.
        -13    1    4    4    0    0 -0.40862376423E+01  0.38259097179E+01 -0.29330197444E+01  0.63204977728E+01  0.10566000000E+00 0.  1.
         14    1    4    4    0    0 -0.13365370397E+02  0.94371420909E+01 -0.10162495663E+02  0.19260558008E+02  0.00000000000E+00 0. -1.
<mgrwt>
<rscale>  0 0.78041432E+02</rscale>
<asrwt>0</asrwt>
<pdfrwt beam="1">  1        2 0.17030726E-01 0.78041432E+02</pdfrwt>
<pdfrwt beam="2">  1       -1 0.21160727E-02 0.78041432E+02</pdfrwt>
<totfact> 0.19494946E+05</totfact>
</mgrwt>
</event>
<event>
 8    1  0.2389776E-024  0.7563556E+02  0.7818608E-02  0.1341914E+00
         -1   -1    0    0    0  501 -0.00000000000E+00  0.00000000000E+00  0.37051308942E+01  0.37051343221E+01  0.50400000000E-02 0.  1.
          2   -1    0    0  501    0  0.00000000000E+00 -0.00000000000E+00 -0.38600087184E+03  0.38600087185E+03  0.25500000000E-02 0. -1.
         24    2    1    2    0    0  0.35527136788E-14  0.44408920985E-15 -0.38229574095E+03  0.38970600618E+03  0.75635558438E+02 0.  0.
         66    2    3    3    0    0 -0.22851396624E+02 -0.33797186877E+01 -0.34538674955E+03  0.34616414544E+03  0.19999991289E+01 0.  0.
        -13    1    3    3    0    0  0.22851396624E+02  0.33797186877E+01 -0.36908991395E+02  0.43541860731E+02  0.10566000000E+00 0.  1.
         13    1    4    4    0    0 -0.51377908860E+01 -0.12948850370E+01 -0.81389196589E+02  0.81561547974E+02  0.10566000000E+00 0. -1.
        -13    1    4    4    0    0 -0.10354668887E+02 -0.10858466973E+01 -0.16325576763E+03  0.16358745386E+03  0.10566000000E+00 0.  1.
        -14    1    4    4    0    0 -0.73589368518E+01 -0.99898695334E+00 -0.10074178533E+03  0.10101514361E+03  0.00000000000E+00 0.  1.
<mgrwt>
<rscale>  0 0.75635558E+02</rscale>
<asrwt>0</asrwt>
<pdfrwt beam="1">  1        2 0.59384718E-01 0.75635558E+02</pdfrwt>
<pdfrwt beam="2">  1       -1 0.57002071E-03 0.75635558E+02</pdfrwt>
<totfact> 0.32294907E+05</totfact>
</mgrwt>
</event>
<event>
 8    1  0.2389776E-024  0.8041788E+02  0.7818608E-02  0.1327870E+00
         -1   -1    0    0    0  501 -0.00000000000E+00  0.00000000000E+00  0.13610098309E+01  0.13610191628E+01  0.50400000000E-02 0.  1.
          2   -1    0    0  501    0  0.00000000000E+00 -0.00000000000E+00 -0.11879070027E+04  0.11879070027E+04  0.25500000000E-02 0. -1.
         24    2    1    2    0    0  0.17763568394E-14  0.00000000000E+00 -0.11865459929E+04  0.11892680219E+04  0.80417875118E+02 0.  0.
         66    2    3    3    0    0  0.10905843987E+02  0.15578584160E+01 -0.11651355504E+04  0.11651893474E+04  0.19999996831E+01 0.  0.
        -13    1    3    3    0    0 -0.10905843987E+02 -0.15578584160E+01 -0.21410442447E+02  0.24078674501E+02  0.10566000000E+00 0.  1.
         13    1    4    4    0    0  0.58215562544E+01  0.38680299312E+00 -0.63977869971E+03  0.63980531094E+03  0.10566000000E+00 0. -1.
        -13    1    4    4    0    0  0.34141712427E+01  0.12343872849E+01 -0.38862532879E+03  0.38864230035E+03  0.10566000000E+00 0.  1.
        -14    1    4    4    0    0  0.16701164897E+01 -0.63331862016E-01 -0.13673152194E+03  0.13674173610E+03  0.00000000000E+00 0.  1.
<mgrwt>
<rscale>  0 0.80417875E+02</rscale>
<asrwt>0</asrwt>
<pdfrwt beam="1">  1        2 0.18275409E+00 0.80417875E+02</pdfrwt>
<pdfrwt beam="2">  1       -1 0.20938780E-03 0.80417875E+02</pdfrwt>
<totfact> 0.34604143E+05</totfact>
</mgrwt>
</event>
<event>
 8    1  0.2389776E-024  0.7998173E+02  0.7818608E-02  0.1329103E+00
         -1   -1    0    0    0  501 -0.00000000000E+00  0.00000000000E+00  0.14780874743E+02  0.14780875602E+02  0.50400000000E-02 0.  1.
          2   -1    0    0  501    0  0.00000000000E+00 -0.00000000000E+00 -0.10819855396E+03  0.10819855399E+03  0.25500000000E-02 0. -1.
         24    2    1    2    0    0  0.00000000000E+00  0.00000000000E+00 -0.93417679214E+02  0.12297942959E+03  0.79981731116E+02 0.  0.
         66    2    3    3    0    0 -0.19379847498E+02 -0.27522492761E+02 -0.79865828429E+02  0.86692656234E+02  0.19999993407E+01 0.  0.
        -13    1    3    3    0    0  0.19379847498E+02  0.27522492761E+02 -0.13551850785E+02  0.36286773355E+02  0.10566000000E+00 0.  1.
         13    1    4    4    0    0 -0.68592431630E+01 -0.10596629714E+02 -0.30624585759E+02  0.33124223689E+02  0.10566000000E+00 0.  1.
        -13    1    4    4    0    0 -0.10900408525E+01 -0.19586429657E+01 -0.58997068894E+01  0.63120659648E+01  0.10566000000E+00 0. -1.
         14    1    4    4    0    0 -0.11430563483E+02 -0.14967220081E+02 -0.43341535781E+02  0.47256366580E+02  0.00000000000E+00 0. -1.
<mgrwt>
<rscale>  0 0.79981731E+02</rscale>
<asrwt>0</asrwt>
<pdfrwt beam="1">  1        2 0.16645931E-01 0.79981731E+02</pdfrwt>
<pdfrwt beam="2">  1       -1 0.22739809E-02 0.79981731E+02</pdfrwt>
<totfact> 0.18138123E+05</totfact>
</mgrwt>
</event>
<event>
 8    1  0.2389776E-024  0.7930371E+02  0.7818608E-02  0.1331039E+00
         -1   -1    0    0    0  501 -0.00000000000E+00  0.00000000000E+00  0.11938112643E+02  0.11938113707E+02  0.50400000000E-02 0.  1.
          2   -1    0    0  501    0  0.00000000000E+00 -0.00000000000E+00 -0.13170168416E+03  0.13170168419E+03  0.25500000000E-02 0. -1.
         24    2    1    2    0    0  0.00000000000E+00  0.00000000000E+00 -0.11976357152E+03  0.14363979789E+03  0.79303710354E+02 0.  0.
         66    2    3    3    0    0 -0.96542277378E+01  0.88075795060E+01 -0.12767856906E+03  0.12836118801E+03  0.20000051214E+01 0.  0.
        -13    1    3    3    0    0  0.96542277378E+01 -0.88075795060E+01  0.79149975380E+01  0.15278609885E+02  0.10566000000E+00 0.  1.
         13    1    4    4    0    0 -0.30639303080E+01  0.26594804413E+01 -0.46555394756E+02  0.46731963901E+02  0.10566000000E+00 0. -1.
        -13    1    4    4    0    0 -0.55373552963E+01  0.47134397179E+01 -0.62730485653E+02  0.63150643796E+02  0.10566000000E+00 0.  1.
        -14    1    4    4    0    0 -0.10529421334E+01  0.14346593468E+01 -0.18392688647E+02  0.18478580309E+02  0.00000000000E+00 0.  1.
<mgrwt>
<rscale>  0 0.79303710E+02</rscale>
<asrwt>0</asrwt>
<pdfrwt beam="1">  1        2 0.20261797E-01 0.79303710E+02</pdfrwt>
<pdfrwt beam="2">  1       -1 0.18366329E-02 0.79303710E+02</pdfrwt>
<totfact> 0.19675730E+05</totfact>
</mgrwt>
</event>
<event>
 8    1  0.2389776E-024  0.8212481E+02  0.7818608E-02  0.1323127E+00
         -1   -1    0    0    0  501 -0.00000000000E+00  0.00000000000E+00  0.16636307091E+01  0.16636383435E+01  0.50400000000E-02 0.  1.
          2   -1    0    0  501    0  0.00000000000E+00 -0.00000000000E+00 -0.10135164681E+04  0.10135164681E+04  0.25500000000E-02 0. -1.
         24    2    1    2    0    0  0.17763568394E-14  0.35527136788E-14 -0.10118528374E+04  0.10151801065E+04  0.82124807392E+02 0.  0.
         66    2    3    3    0    0 -0.14105914282E+02 -0.21529732909E+02 -0.90132948088E+03  0.90169914013E+03  0.19999994945E+01 0.  0.
        -13    1    3    3    0    0  0.14105914282E+02  0.21529732909E+02 -0.11052335652E+03  0.11348096632E+03  0.10566000000E+00 0.  1.
         13    1    4    4    0    0 -0.51486214395E+01 -0.89489693483E+01 -0.35585518778E+03  0.35600494125E+03  0.10566000000E+00 0. -1.
        -13    1    4    4    0    0 -0.32124512517E+01 -0.35846156005E+01 -0.16566553537E+03  0.16573548227E+03  0.10566000000E+00 0.  1.
        -14    1    4    4    0    0 -0.57448415904E+01 -0.89961479602E+01 -0.37980875773E+03  0.37995871661E+03  0.00000000000E+00 0.  1.
<mgrwt>
<rscale>  0 0.82124807E+02</rscale>
<asrwt>0</asrwt>
<pdfrwt beam="1">  1        2 0.15592512E+00 0.82124807E+02</pdfrwt>
<pdfrwt beam="2">  1       -1 0.25594459E-03 0.82124807E+02</pdfrwt>
<totfact> 0.32926690E+05</totfact>
</mgrwt>
</event>
<event>
 8    1  0.2389776E-024  0.7974714E+02  0.7818608E-02  0.1329771E+00
          2   -1    0    0  501    0  0.00000000000E+00  0.00000000000E+00  0.24308905259E+03  0.24308905260E+03  0.25500000000E-02 0. -1.
         -1   -1    0    0    0  501 -0.00000000000E+00 -0.00000000000E+00 -0.65404062846E+01  0.65404082265E+01  0.50400000000E-02 0.  1.
         24    2    1    2    0    0  0.00000000000E+00  0.00000000000E+00  0.23654864631E+03  0.24962946083E+03  0.79747135656E+02 0.  0.
         66    2    3    3    0    0 -0.17412279953E+02 -0.17250082744E+02  0.21669772515E+03  0.21808864469E+03  0.20000027900E+01 0.  0.
        -13    1    3    3    0    0  0.17412279953E+02  0.17250082744E+02  0.19850921158E+02  0.31540816139E+02  0.10566000000E+00 0.  1.
         13    1    4    4    0    0 -0.44145327306E+01 -0.46753328233E+01  0.61312419413E+02  0.61648769449E+02  0.10566000000E+00 0. -1.
        -13    1    4    4    0    0 -0.52301383118E+00 -0.41359971679E+00  0.41692216193E+01  0.42235270971E+01  0.10566000000E+00 0.  1.
         14    1    4    4    0    0 -0.12474733392E+02 -0.12161150204E+02  0.15121608412E+03  0.15221634815E+03  0.00000000000E+00 0. -1.
<mgrwt>
<rscale>  0 0.79747136E+02</rscale>
<asrwt>0</asrwt>
<pdfrwt beam="1">  1        2 0.37398317E-01 0.79747136E+02</pdfrwt>
<pdfrwt beam="2">  1       -1 0.10062165E-02 0.79747136E+02</pdfrwt>
<totfact> 0.23827752E+05</totfact>
</mgrwt>
</event>
<event>
 8    1  0.2389776E-024  0.7309804E+02  0.7818608E-02  0.1349864E+00
          2   -1    0    0  501    0  0.00000000000E+00  0.00000000000E+00  0.87607070387E+02  0.87607070424E+02  0.25500000000E-02 0. -1.
         -1   -1    0    0    0  501 -0.00000000000E+00 -0.00000000000E+00 -0.15247978349E+02  0.15247979182E+02  0.50400000000E-02 0.  1.
         24    2    1    2    0    0  0.17763568394E-14  0.00000000000E+00  0.72359092038E+02  0.10285504961E+03  0.73098037108E+02 0.  0.
         66    2    3    3    0    0  0.11206341616E+02  0.87850284513E+01  0.83528663014E+02  0.84757279105E+02  0.19999997669E+01 0.  0.
        -13    1    3    3    0    0 -0.11206341616E+02 -0.87850284513E+01 -0.11169570976E+02  0.18097770502E+02  0.10566000000E+00 0.  1.
         13    1    4    4    0    0  0.12958161895E+01  0.16466685074E+01  0.12391575046E+02  0.12567933519E+02  0.10566000000E+00 0. -1.
        -13    1    4    4    0    0  0.92804401007E+00  0.11508283568E+01  0.80495891911E+01  0.81849081713E+01  0.10566000000E+00 0.  1.
         14    1    4    4    0    0  0.89824814163E+01  0.59875315870E+01  0.63087498777E+02  0.64004437415E+02  0.00000000000E+00 0. -1.
<mgrwt>
<rscale>  0 0.73098037E+02</rscale>
<asrwt>0</asrwt>
<pdfrwt beam="1">  1        2 0.13478011E-01 0.73098037E+02</pdfrwt>
<pdfrwt beam="2">  1       -1 0.23458429E-02 0.73098037E+02</pdfrwt>
<totfact> 0.21757625E+05</totfact>
</mgrwt>
</event>
<event>
 8    1  0.2389776E-024  0.7896010E+02  0.7818608E-02  0.1332029E+00
          2   -1    0    0  501    0  0.00000000000E+00  0.00000000000E+00  0.62418799762E+02  0.62418799814E+02  0.25500000000E-02 0. -1.
         -1   -1    0    0    0  501 -0.00000000000E+00 -0.00000000000E+00 -0.24971234899E+02  0.24971235408E+02  0.50400000000E-02 0.  1.
         24    2    1    2    0    0  0.00000000000E+00  0.00000000000E+00  0.37447564863E+02  0.87390035222E+02  0.78960104749E+02 0.  0.
         66    2    3    3    0    0  0.17812640893E+02  0.34679482840E+02  0.12029762966E+02  0.40849380705E+02  0.20000003201E+01 0.  0.
        -13    1    3    3    0    0 -0.17812640893E+02 -0.34679482840E+02  0.25417801897E+02  0.46540654518E+02  0.10566000000E+00 0.  1.
         13    1    4    4    0    0  0.95499723370E+01  0.16564256647E+02  0.57567587133E+01  0.19968174799E+02  0.10566000000E+00 0. -1.
        -13    1    4    4    0    0  0.29941782618E+01  0.70539574473E+01  0.25131340965E+01  0.80653844393E+01  0.10566000000E+00 0.  1.
         14    1    4    4    0    0  0.52684902944E+01  0.11061268746E+02  0.37598701563E+01  0.12815821466E+02  0.00000000000E+00 0. -1.
<mgrwt>
<rscale>  0 0.78960105E+02</rscale>
<asrwt>0</asrwt>
<pdfrwt beam="1">  1        2 0.96028921E-02 0.78960105E+02</pdfrwt>
<pdfrwt beam="2">  1       -1 0.38417286E-02 0.78960105E+02</pdfrwt>
<totfact> 0.16277939E+05</totfact>
</mgrwt>
</event>
<event>
 8    1  0.2389776E-024  0.8134785E+02  0.7818608E-02  0.1325269E+00
          2   -1    0    0  501    0  0.00000000000E+00  0.00000000000E+00  0.20990608600E+03  0.20990608602E+03  0.25500000000E-02 0. -1.
         -1   -1    0    0    0  501 -0.00000000000E+00 -0.00000000000E+00 -0.78814673488E+01  0.78814689603E+01  0.50400000000E-02 0.  1.
         24    2    1    2    0    0  0.00000000000E+00  0.00000000000E+00  0.20202461865E+03  0.21778755498E+03  0.81347849149E+02 0.  0.
         66    2    3    3    0    0 -0.12679092661E+02  0.95972021026E+01  0.20122829136E+03  0.20186552684E+03  0.20000003899E+01 0.  0.
        -13    1    3    3    0    0  0.12679092661E+02 -0.95972021026E+01  0.79632728951E+00  0.15922028140E+02  0.10566000000E+00 0.  1.
         13    1    4    4    0    0 -0.65541397969E+00  0.78445782450E+00  0.17995865189E+02  0.18025184312E+02  0.10566000000E+00 0.  1.
        -13    1    4    4    0    0 -0.45191585345E+01  0.27958435712E+01  0.67334552128E+02  0.67544004986E+02  0.10566000000E+00 0. -1.
         14    1    4    4    0    0 -0.75045201465E+01  0.60169007069E+01  0.11589787405E+03  0.11629633754E+03  0.00000000000E+00 0. -1.
<mgrwt>
<rscale>  0 0.81347849E+02</rscale>
<asrwt>0</asrwt>
<pdfrwt beam="1">  1        2 0.32293242E-01 0.81347849E+02</pdfrwt>
<pdfrwt beam="2">  1       -1 0.12125336E-02 0.81347849E+02</pdfrwt>
<totfact> 0.21466114E+05</totfact>
</mgrwt>
</event>
<event>
 8    1  0.2389776E-024  0.8004217E+02  0.7818608E-02  0.1328932E+00
         -1   -1    0    0    0  501 -0.00000000000E+00  0.00000000000E+00  0.96100076736E+00  0.96101398349E+00  0.50400000000E-02 0.  1.
          2   -1    0    0  501    0  0.00000000000E+00 -0.00000000000E+00 -0.16666753634E+04  0.16666753634E+04  0.25500000000E-02 0. -1.
         24    2    1    2    0    0  0.00000000000E+00 -0.17763568394E-14 -0.16657143627E+04  0.16676363774E+04  0.80042172002E+02 0.  0.
         66    2    3    3    0    0 -0.43665662976E+01  0.15013350194E+02 -0.16003601690E+04  0.16004377957E+04  0.19999854386E+01 0.  0.
        -13    1    3    3    0    0  0.43665662976E+01 -0.15013350194E+02 -0.65354193680E+02  0.67198581688E+02  0.10566000000E+00 0.  1.
         13    1    4    4    0    0 -0.29072346236E+01  0.10594432522E+02 -0.11720078161E+04  0.11720593100E+04  0.10566000000E+00 0. -1.
        -13    1    4    4    0    0 -0.87186313124E+00  0.36897882316E+01 -0.33789660919E+03  0.33791789587E+03  0.10566000000E+00 0.  1.
         14    1    4    4    0    0 -0.58746854276E+00  0.72912943981E+00 -0.90455743732E+02  0.90460589890E+02  0.00000000000E+00 0. -1.
<mgrwt>
<rscale>  0 0.80042172E+02</rscale>
<asrwt>0</asrwt>
<pdfrwt beam="1">  1        2 0.25640928E+00 0.80042172E+02</pdfrwt>
<pdfrwt beam="2">  1       -1 0.14784862E-03 0.80042172E+02</pdfrwt>
<totfact> 0.31642346E+05</totfact>
</mgrwt>
</event>
<event>
 8    1  0.2389776E-024  0.7526517E+02  0.7818608E-02  0.1343052E+00
          2   -1    0    0  501    0  0.00000000000E+00  0.00000000000E+00  0.54090137583E+03  0.54090137584E+03  0.25500000000E-02 0. -1.
         -1   -1    0    0    0  501 -0.00000000000E+00 -0.00000000000E+00 -0.26182409948E+01  0.26182458457E+01  0.50400000000E-02 0.  1.
         24    2    1    2    0    0 -0.88817841970E-15  0.00000000000E+00  0.53828313483E+03  0.54351962168E+03  0.75265170597E+02 0.  0.
         66    2    3    3    0    0  0.76703427924E+01 -0.34453300979E+02  0.36302643257E+03  0.36474382086E+03  0.20000008680E+01 0.  0.
        -13    1    3    3    0    0 -0.76703427924E+01  0.34453300979E+02  0.17525670227E+03  0.17877580082E+03  0.10566000000E+00 0.  1.
         13    1    4    4    0    0  0.48004087374E+01 -0.19032561476E+02  0.20213259208E+03  0.20308342686E+03  0.10566000000E+00 0. -1.
        -13    1    4    4    0    0  0.18373645966E+01 -0.70598056967E+01  0.72822626468E+02  0.73187176847E+02  0.10566000000E+00 0.  1.
        -14    1    4    4    0    0  0.10325694584E+01 -0.83609338064E+01  0.88071214019E+02  0.88473217148E+02  0.00000000000E+00 0.  1.
<mgrwt>
<rscale>  0 0.75265171E+02</rscale>
<asrwt>0</asrwt>
<pdfrwt beam="1">  1        2 0.83215709E-01 0.75265171E+02</pdfrwt>
<pdfrwt beam="2">  1       -1 0.40280614E-03 0.75265171E+02</pdfrwt>
<totfact> 0.36561342E+05</totfact>
</mgrwt>
</event>
<event>
 8    1  0.2389776E-024  0.7998509E+02  0.7818608E-02  0.1329094E+00
         -1   -1    0    0    0  501 -0.00000000000E+00  0.00000000000E+00  0.55828164460E+01  0.55828187210E+01  0.50400000000E-02 0.  1.
          2   -1    0    0  501    0  0.00000000000E+00 -0.00000000000E+00 -0.28648683610E+03  0.28648683611E+03  0.25500000000E-02 0. -1.
         24    2    1    2    0    0 -0.17763568394E-14  0.17763568394E-14 -0.28090401965E+03  0.29206965483E+03  0.79985092462E+02 0.  0.
         66    2    3    3    0    0  0.82190631360E+01 -0.13324425069E+02 -0.27482064962E+03  0.27527346904E+03  0.19999989143E+01 0.  0.
        -13    1    3    3    0    0 -0.82190631360E+01  0.13324425069E+02 -0.60833700325E+01  0.16796185794E+02  0.10566000000E+00 0.  1.
         13    1    4    4    0    0  0.53354951140E+01 -0.88234088693E+01 -0.19348496535E+03  0.19375954952E+03  0.10566000000E+00 0. -1.
        -13    1    4    4    0    0  0.73987750687E+00 -0.99319093334E+00 -0.22998531726E+02  0.23032096572E+02  0.10566000000E+00 0.  1.
         14    1    4    4    0    0  0.21436905151E+01 -0.35078252662E+01 -0.58337152549E+02  0.58481822942E+02  0.00000000000E+00 0. -1.
<mgrwt>
<rscale>  0 0.79985092E+02</rscale>
<asrwt>0</asrwt>
<pdfrwt beam="1">  1        2 0.44074886E-01 0.79985092E+02</pdfrwt>
<pdfrwt beam="2">  1       -1 0.85889524E-03 0.79985092E+02</pdfrwt>
<totfact> 0.25084636E+05</totfact>
</mgrwt>
</event>
<event>
 8    1  0.2389776E-024  0.8461189E+02  0.7818608E-02  0.1316451E+00
         -1   -1    0    0    0  501 -0.00000000000E+00  0.00000000000E+00  0.13068053208E+03  0.13068053218E+03  0.50400000000E-02 0.  1.
          2   -1    0    0  501    0  0.00000000000E+00 -0.00000000000E+00 -0.13695941234E+02  0.13695941471E+02  0.25500000000E-02 0. -1.
         24    2    1    2    0    0  0.00000000000E+00  0.71054273576E-14  0.11698459085E+03  0.14437647365E+03  0.84611888336E+02 0.  0.
         66    2    3    3    0    0 -0.15009787322E+02 -0.38236716016E+02  0.41423350530E+02  0.58371518156E+02  0.19999988941E+01 0.  0.
        -13    1    3    3    0    0  0.15009787322E+02  0.38236716016E+02  0.75561240319E+02  0.86004955495E+02  0.10566000000E+00 0.  1.
         13    1    4    4    0    0 -0.74949296678E+00 -0.16166591179E+01  0.20859777009E+01  0.27455042187E+01  0.10566000000E+00 0. -1.
        -13    1    4    4    0    0 -0.28145443264E+01 -0.89873442093E+01  0.96581140495E+01  0.13490157402E+02  0.10566000000E+00 0. -1.
         14    1    4    4    0    0 -0.11445750029E+02 -0.27632712688E+02  0.29679258780E+02  0.42135856535E+02  0.00000000000E+00 0. -1.
<mgrwt>
<rscale>  0 0.84611888E+02</rscale>
<asrwt>0</asrwt>
<pdfrwt beam="1">  1        2 0.21070679E-02 0.84611888E+02</pdfrwt>
<pdfrwt beam="2">  1       -1 0.20104698E-01 0.84611888E+02</pdfrwt>
<totfact> 0.96911269E+04</totfact>
</mgrwt>
</event>
<event>
 8    1  0.2389776E-024  0.8024528E+02  0.7818608E-02  0.1328357E+00
         -1   -1    0    0    0  501 -0.00000000000E+00  0.00000000000E+00  0.40906053269E+02  0.40906053579E+02  0.50400000000E-02 0.  1.
          2   -1    0    0  501    0  0.00000000000E+00 -0.00000000000E+00 -0.39354226784E+02  0.39354226867E+02  0.25500000000E-02 0. -1.
         24    2    1    2    0    0  0.44408920985E-15  0.00000000000E+00  0.15518264842E+01  0.80260280446E+02  0.80245276819E+02 0.  0.
         66    2    3    3    0    0 -0.36582114367E+01 -0.30079702704E+02 -0.25489706654E+02  0.39647145820E+02  0.20000001757E+01 0.  0.
        -13    1    3    3    0    0  0.36582114367E+01  0.30079702704E+02  0.27041533138E+02  0.40613134626E+02  0.10566000000E+00 0.  1.
         13    1    4    4    0    0 -0.18347001632E+01 -0.14026123278E+02 -0.11166058069E+02  0.18021938734E+02  0.10566000000E+00 0. -1.
        -13    1    4    4    0    0 -0.18893439431E+00 -0.66199874515E+01 -0.56326335375E+01  0.86946911772E+01  0.10566000000E+00 0.  1.
        -14    1    4    4    0    0 -0.16345768791E+01 -0.94335919746E+01 -0.86910150472E+01  0.12930515909E+02  0.00000000000E+00 0.  1.
<mgrwt>
<rscale>  0 0.80245277E+02</rscale>
<asrwt>0</asrwt>
<pdfrwt beam="1">  1        2 0.60544965E-02 0.80245277E+02</pdfrwt>
<pdfrwt beam="2">  1       -1 0.62932390E-02 0.80245277E+02</pdfrwt>
<totfact> 0.14087853E+05</totfact>
</mgrwt>
</event>
<event>
 8    1  0.2389776E-024  0.7984151E+02  0.7818608E-02  0.1329502E+00
         -1   -1    0    0    0  501 -0.00000000000E+00  0.00000000000E+00  0.34106380591E+01  0.34106417830E+01  0.50400000000E-02 0.  1.
          2   -1    0    0  501    0  0.00000000000E+00 -0.00000000000E+00 -0.46726319245E+03  0.46726319245E+03  0.25500000000E-02 0. -1.
         24    2    1    2    0    0  0.00000000000E+00  0.00000000000E+00 -0.46385255439E+03  0.47067383424E+03  0.79841505642E+02 0.  0.
         66    2    3    3    0    0 -0.19269843195E+02  0.34073736061E+02 -0.27747333369E+03  0.28022811647E+03  0.20000005728E+01 0.  0.
        -13    1    3    3    0    0  0.19269843195E+02 -0.34073736061E+02 -0.18637922070E+03  0.19044571777E+03  0.10566000000E+00 0.  1.
         13    1    4    4    0    0 -0.15067359445E+02  0.27861727414E+02 -0.22304324329E+03  0.22528115925E+03  0.10566000000E+00 0. -1.
        -13    1    4    4    0    0 -0.61942063009E+00  0.84600762373E+00 -0.88197873250E+01  0.88825234765E+01  0.10566000000E+00 0. -1.
         14    1    4    4    0    0 -0.35830631192E+01  0.53660010230E+01 -0.45610303081E+02  0.46064433736E+02  0.00000000000E+00 0. -1.
<mgrwt>
<rscale>  0 0.79841506E+02</rscale>
<asrwt>0</asrwt>
<pdfrwt beam="1">  1        2 0.71886594E-01 0.79841506E+02</pdfrwt>
<pdfrwt beam="2">  1       -1 0.52471421E-03 0.79841506E+02</pdfrwt>
<totfact> 0.29943935E+05</totfact>
</mgrwt>
</event>
<event>
 8    1  0.2502941E-024  0.8052430E+02  0.7818608E-02  0.1327570E+00
          2   -1    0    0  501    0  0.00000000000E+00  0.00000000000E+00  0.15601488085E+03  0.15601488087E+03  0.25500000000E-02 0. -1.
         -1   -1    0    0    0  501 -0.00000000000E+00 -0.00000000000E+00 -0.10390294058E+02  0.10390295280E+02  0.50400000000E-02 0.  1.
         24    2    1    2    0    0  0.00000000000E+00  0.00000000000E+00  0.14562458679E+03  0.16640517615E+03  0.80524296775E+02 0.  0.
         66    2    3    3    0    0  0.33308192525E+02  0.83969621327E+01  0.11616000068E+03  0.12114904219E+03  0.20000005921E+01 0.  0.
        -13    1    3    3    0    0 -0.33308192525E+02 -0.83969621327E+01  0.29464586105E+02  0.45256133957E+02  0.10566000000E+00 0.  1.
         13    1    4    4    0    0  0.13530850467E+01  0.51862833464E+00  0.56241530489E+01  0.58087929939E+01  0.10566000000E+00 0.  1.
        -13    1    4    4    0    0  0.22635293197E+00  0.59305532906E-01  0.66696244520E+00  0.71467176728E+00  0.10566000000E+00 0. -1.
         14    1    4    4    0    0  0.31728754547E+02  0.78190282652E+01  0.10986888519E+03  0.11462557743E+03  0.00000000000E+00 0. -1.
<mgrwt>
<rscale>  0 0.80524297E+02</rscale>
<asrwt>0</asrwt>
<pdfrwt beam="1">  1        2 0.24002288E-01 0.80524297E+02</pdfrwt>
<pdfrwt beam="2">  1       -1 0.15985070E-02 0.80524297E+02</pdfrwt>
<totfact> 0.19938384E+05</totfact>
</mgrwt>
</event>
<event>
 8    1  0.2389776E-024  0.7451094E+02  0.7818608E-02  0.1345392E+00
          2   -1    0    0  501    0  0.00000000000E+00  0.00000000000E+00  0.11048257839E+02  0.11048258133E+02  0.25500000000E-02 0. -1.
         -1   -1    0    0    0  501 -0.00000000000E+00 -0.00000000000E+00 -0.12562794715E+03  0.12562794725E+03  0.50400000000E-02 0.  1.
         24    2    1    2    0    0  0.00000000000E+00  0.00000000000E+00 -0.11457968931E+03  0.13667620538E+03  0.74510938227E+02 0.  0.
         66    2    3    3    0    0  0.35654408481E+02  0.38326319378E+01 -0.38984304199E+02  0.53006621150E+02  0.20000000317E+01 0.  0.
        -13    1    3    3    0    0 -0.35654408481E+02 -0.38326319378E+01 -0.75595385109E+02  0.83669584232E+02  0.10566000000E+00 0.  1.
         13    1    4    4    0    0  0.54581334112E+01  0.67884498949E+00 -0.63218634888E+01  0.83802847721E+01  0.10566000000E+00 0. -1.
        -13    1    4    4    0    0  0.74620931080E+01  0.10722098144E+01 -0.91158222722E+01  0.11829701905E+02  0.10566000000E+00 0.  1.
        -14    1    4    4    0    0  0.22734181961E+02  0.20815771340E+01 -0.23546618438E+02  0.32796634472E+02  0.00000000000E+00 0.  1.
<mgrwt>
<rscale>  0 0.74510938E+02</rscale>
<asrwt>0</asrwt>
<pdfrwt beam="1">  1        2 0.16997321E-02 0.74510938E+02</pdfrwt>
<pdfrwt beam="2">  1       -1 0.19327376E-01 0.74510938E+02</pdfrwt>
<totfact> 0.13465685E+05</totfact>
</mgrwt>
</event>
<event>
 8    1  0.2389776E-024  0.8006873E+02  0.7818608E-02  0.1328857E+00
         -1   -1    0    0    0  501 -0.00000000000E+00  0.00000000000E+00  0.18548552811E+01  0.18548621284E+01  0.50400000000E-02 0.  1.
          2   -1    0    0  501    0  0.00000000000E+00 -0.00000000000E+00 -0.86408212761E+03  0.86408212761E+03  0.25500000000E-02 0. -1.
         24    2    1    2    0    0  0.35527136788E-14 -0.17763568394E-14 -0.86222727233E+03  0.86593698974E+03  0.80068727079E+02 0.  0.
         66    2    3    3    0    0  0.26479894083E+02 -0.12628343852E+02 -0.72559652222E+03  0.72619210469E+03  0.19999990422E+01 0.  0.
        -13    1    3    3    0    0 -0.26479894083E+02  0.12628343852E+02 -0.13663075011E+03  0.13974488505E+03  0.10566000000E+00 0.  1.
         13    1    4    4    0    0  0.12669539275E+02 -0.71045948224E+01 -0.35524170807E+03  0.35553857007E+03  0.10566000000E+00 0. -1.
        -13    1    4    4    0    0  0.89660555953E+01 -0.35030197711E+01 -0.23643287273E+03  0.23662877207E+03  0.10566000000E+00 0.  1.
         14    1    4    4    0    0  0.48442992124E+01 -0.20207292590E+01 -0.13392194142E+03  0.13402476255E+03  0.00000000000E+00 0. -1.
<mgrwt>
<rscale>  0 0.80068727E+02</rscale>
<asrwt>0</asrwt>
<pdfrwt beam="1">  1        2 0.13293539E+00 0.80068727E+02</pdfrwt>
<pdfrwt beam="2">  1       -1 0.28536357E-03 0.80068727E+02</pdfrwt>
<totfact> 0.34696323E+05</totfact>
</mgrwt>
</event>
<event>
 8    1  0.2389776E-024  0.7933368E+02  0.7818608E-02  0.1330953E+00
         -1   -1    0    0    0  501 -0.00000000000E+00  0.00000000000E+00  0.44509631695E+02  0.44509631981E+02  0.50400000000E-02 0.  1.
          2   -1    0    0  501    0  0.00000000000E+00 -0.00000000000E+00 -0.35350958212E+02  0.35350958304E+02  0.25500000000E-02 0. -1.
         24    2    1    2    0    0  0.00000000000E+00 -0.17763568394E-14  0.91586734833E+01  0.79860590285E+02  0.79333678729E+02 0.  0.
         66    2    3    3    0    0  0.19294270415E+02 -0.12667435778E+02 -0.27861003537E+02  0.36234904608E+02  0.19999984396E+01 0.  0.
        -13    1    3    3    0    0 -0.19294270415E+02  0.12667435778E+02  0.37019677021E+02  0.43625685677E+02  0.10566000000E+00 0.  1.
         13    1    4    4    0    0  0.96893632217E+01 -0.64821712857E+01 -0.13302054807E+02  0.17687796085E+02  0.10566000000E+00 0. -1.
        -13    1    4    4    0    0  0.95804525441E+01 -0.60330183986E+01 -0.14238061107E+02  0.18191094801E+02  0.10566000000E+00 0.  1.
        -14    1    4    4    0    0  0.24454649693E-01 -0.15224609371E+00 -0.32088762372E+00  0.35601372164E+00  0.00000000000E+00 0.  1.
<mgrwt>
<rscale>  0 0.79333679E+02</rscale>
<asrwt>0</asrwt>
<pdfrwt beam="1">  1        2 0.54386090E-02 0.79333679E+02</pdfrwt>
<pdfrwt beam="2">  1       -1 0.68476357E-02 0.79333679E+02</pdfrwt>
<totfact> 0.14228667E+05</totfact>
</mgrwt>
</event>
<event>
 8    1  0.2389776E-024  0.8107777E+02  0.7818608E-02  0.1326020E+00
          2   -1    0    0  501    0  0.00000000000E+00  0.00000000000E+00  0.28221514322E+03  0.28221514323E+03  0.25500000000E-02 0. -1.
         -1   -1    0    0    0  501 -0.00000000000E+00 -0.00000000000E+00 -0.58232196796E+01  0.58232218606E+01  0.50400000000E-02 0.  1.
         24    2    1    2    0    0  0.00000000000E+00  0.00000000000E+00  0.27639192354E+03  0.28803836509E+03  0.81077767400E+02 0.  0.
         66    2    3    3    0    0 -0.40124527928E+02 -0.42493177351E+01  0.12529371561E+03  0.13164554541E+03  0.20000034051E+01 0.  0.
        -13    1    3    3    0    0  0.40124527928E+02  0.42493177351E+01  0.15109820793E+03  0.15639281968E+03  0.10566000000E+00 0.  1.
         13    1    4    4    0    0 -0.33721054730E+01 -0.83582719761E+00  0.10787177419E+02  0.11333316510E+02  0.10566000000E+00 0.  1.
        -13    1    4    4    0    0 -0.30331877971E+02 -0.28750857509E+01  0.93350589727E+02  0.98196907822E+02  0.10566000000E+00 0. -1.
        -14    1    4    4    0    0 -0.64205444838E+01 -0.53840478658E+00  0.21155948459E+02  0.22115321078E+02  0.00000000000E+00 0.  1.
<mgrwt>
<rscale>  0 0.81077767E+02</rscale>
<asrwt>0</asrwt>
<pdfrwt beam="1">  1        2 0.43417708E-01 0.81077767E+02</pdfrwt>
<pdfrwt beam="2">  1       -1 0.89588026E-03 0.81077767E+02</pdfrwt>
<totfact> 0.24075258E+05</totfact>
</mgrwt>
</event>
<event>
 8    1  0.2389776E-024  0.8007982E+02  0.7818608E-02  0.1328825E+00
         -1   -1    0    0    0  501 -0.00000000000E+00  0.00000000000E+00  0.82585619410E+01  0.82585634789E+01  0.50400000000E-02 0.  1.
          2   -1    0    0  501    0  0.00000000000E+00 -0.00000000000E+00 -0.19412511380E+03  0.19412511382E+03  0.25500000000E-02 0. -1.
         24    2    1    2    0    0  0.00000000000E+00  0.17763568394E-14 -0.18586655186E+03  0.20238367730E+03  0.80079821027E+02 0.  0.
         66    2    3    3    0    0 -0.31404069232E+02 -0.14844111095E+02 -0.14319589860E+03  0.14736223591E+03  0.19999995610E+01 0.  0.
        -13    1    3    3    0    0  0.31404069232E+02  0.14844111095E+02 -0.42670653260E+02  0.55021441386E+02  0.10566000000E+00 0.  1.
         13    1    4    4    0    0 -0.91772705383E+01 -0.42521234675E+01 -0.45444358076E+02  0.46556457054E+02  0.10566000000E+00 0.  1.
        -13    1    4    4    0    0 -0.12742681730E+02 -0.63027913853E+01 -0.56119493070E+02  0.57892225587E+02  0.10566000000E+00 0. -1.
         14    1    4    4    0    0 -0.94841169633E+01 -0.42891962420E+01 -0.41632047452E+02  0.42913553268E+02  0.00000000000E+00 0. -1.
<mgrwt>
<rscale>  0 0.80079821E+02</rscale>
<asrwt>0</asrwt>
<pdfrwt beam="1">  1        2 0.29865399E-01 0.80079821E+02</pdfrwt>
<pdfrwt beam="2">  1       -1 0.12705483E-02 0.80079821E+02</pdfrwt>
<totfact> 0.21774596E+05</totfact>
</mgrwt>
</event>
<event>
 8    1  0.2389776E-024  0.7931232E+02  0.7818608E-02  0.1331014E+00
          2   -1    0    0  501    0  0.00000000000E+00  0.00000000000E+00  0.22952391999E+02  0.22952392140E+02  0.25500000000E-02 0. -1.
         -1   -1    0    0    0  501 -0.00000000000E+00 -0.00000000000E+00 -0.68516217527E+02  0.68516217712E+02  0.50400000000E-02 0.  1.
         24    2    1    2    0    0 -0.17763568394E-14  0.88817841970E-15 -0.45563825528E+02  0.91468609852E+02  0.79312321814E+02 0.  0.
         66    2    3    3    0    0  0.13384971266E+02 -0.71660595438E+01  0.19421812183E+02  0.24732906230E+02  0.19999992417E+01 0.  0.
        -13    1    3    3    0    0 -0.13384971266E+02  0.71660595438E+01 -0.64985637711E+02  0.66735703622E+02  0.10566000000E+00 0.  1.
         13    1    4    4    0    0  0.11773408304E+01 -0.37038719337E+00  0.21747997214E+01  0.25028455741E+01  0.10566000000E+00 0. -1.
        -13    1    4    4    0    0  0.72550918375E+00 -0.54264949493E+00  0.15791874437E+01  0.18236855727E+01  0.10566000000E+00 0.  1.
         14    1    4    4    0    0  0.11482121252E+02 -0.62530228555E+01  0.15667825018E+02  0.20406375084E+02  0.00000000000E+00 0. -1.
<mgrwt>
<rscale>  0 0.79312322E+02</rscale>
<asrwt>0</asrwt>
<pdfrwt beam="1">  1        2 0.35311373E-02 0.79312322E+02</pdfrwt>
<pdfrwt beam="2">  1       -1 0.10540956E-01 0.79312322E+02</pdfrwt>
<totfact> 0.13080002E+05</totfact>
</mgrwt>
</event>
<event>
 8    1  0.2389776E-024  0.8797540E+02  0.7818608E-02  0.1307830E+00
         -1   -1    0    0    0  501 -0.00000000000E+00  0.00000000000E+00  0.32843463745E+03  0.32843463749E+03  0.50400000000E-02 0.  1.
          2   -1    0    0  501    0  0.00000000000E+00 -0.00000000000E+00 -0.58913320661E+01  0.58913326179E+01  0.25500000000E-02 0. -1.
         24    2    1    2    0    0  0.17763568394E-14 -0.71054273576E-14  0.32254330539E+03  0.33432597011E+03  0.87975396787E+02 0.  0.
         66    2    3    3    0    0  0.15708009322E+02 -0.39121172325E+02  0.11393494056E+03  0.12150052820E+03  0.19999983393E+01 0.  0.
        -13    1    3    3    0    0 -0.15708009322E+02  0.39121172325E+02  0.20860836483E+03  0.21282544191E+03  0.10566000000E+00 0.  1.
         13    1    4    4    0    0  0.43900168917E+01 -0.10298543008E+02  0.30116765379E+02  0.32130405496E+02  0.10566000000E+00 0. -1.
        -13    1    4    4    0    0  0.11213238036E+02 -0.27817838688E+02  0.81368520143E+02  0.86720332627E+02  0.10566000000E+00 0.  1.
        -14    1    4    4    0    0  0.10475439417E+00 -0.10047906283E+01  0.24496550342E+01  0.26497900816E+01  0.00000000000E+00 0.  1.
<mgrwt>
<rscale>  0 0.87975397E+02</rscale>
<asrwt>0</asrwt>
<pdfrwt beam="1">  1        2 0.90635857E-03 0.87975397E+02</pdfrwt>
<pdfrwt beam="2">  1       -1 0.50528420E-01 0.87975397E+02</pdfrwt>
<totfact> 0.65153448E+04</totfact>
</mgrwt>
</event>
<event>
 8    1  0.2389776E-024  0.8473905E+02  0.7818608E-02  0.1316116E+00
         -1   -1    0    0    0  501 -0.00000000000E+00  0.00000000000E+00  0.37276966686E+01  0.37277000758E+01  0.50400000000E-02 0.  1.
          2   -1    0    0  501    0  0.00000000000E+00 -0.00000000000E+00 -0.48157774830E+03  0.48157774830E+03  0.25500000000E-02 0. -1.
         24    2    1    2    0    0  0.00000000000E+00  0.44408920985E-15 -0.47785005163E+03  0.48530544838E+03  0.84739048765E+02 0.  0.
         66    2    3    3    0    0 -0.27639837055E+02 -0.23254400301E+01 -0.42230600136E+03  0.42322066000E+03  0.20000009072E+01 0.  0.
        -13    1    3    3    0    0  0.27639837055E+02  0.23254400301E+01 -0.55544050273E+02  0.62084788383E+02  0.10566000000E+00 0.  1.
         13    1    4    4    0    0 -0.10896074265E+02 -0.13024327833E+01 -0.15832533577E+03  0.15870521062E+03  0.10566000000E+00 0. -1.
        -13    1    4    4    0    0 -0.85577194463E+01 -0.19894643401E+00 -0.12760843222E+03  0.12789525902E+03  0.10566000000E+00 0.  1.
        -14    1    4    4    0    0 -0.81860433439E+01 -0.82406081280E+00 -0.13637223336E+03  0.13662019036E+03  0.00000000000E+00 0.  1.
<mgrwt>
<rscale>  0 0.84739049E+02</rscale>
<asrwt>0</asrwt>
<pdfrwt beam="1">  1        2 0.74088835E-01 0.84739049E+02</pdfrwt>
<pdfrwt beam="2">  1       -1 0.57349244E-03 0.84739049E+02</pdfrwt>
<totfact> 0.25882815E+05</totfact>
</mgrwt>
</event>
<event>
 8    1  0.2389776E-024  0.7936475E+02  0.7818608E-02  0.1330864E+00
         -1   -1    0    0    0  501 -0.00000000000E+00  0.00000000000E+00  0.10672461617E+02  0.10672462807E+02  0.50400000000E-02 0.  1.
          2   -1    0    0  501    0  0.00000000000E+00 -0.00000000000E+00 -0.14754708606E+03  0.14754708608E+03  0.25500000000E-02 0. -1.
         24    2    1    2    0    0  0.00000000000E+00  0.00000000000E+00 -0.13687462444E+03  0.15821954889E+03  0.79364745538E+02 0.  0.
         66    2    3    3    0    0 -0.42489906872E+01  0.34244168213E+02 -0.10744311867E+03  0.11286603001E+03  0.20000005002E+01 0.  0.
        -13    1    3    3    0    0  0.42489906872E+01 -0.34244168213E+02 -0.29431505765E+02  0.45353518872E+02  0.10566000000E+00 0.  1.
         13    1    4    4    0    0 -0.15174899076E+01  0.12202173091E+02 -0.37961402470E+02  0.39903321231E+02  0.10566000000E+00 0. -1.
        -13    1    4    4    0    0 -0.11806642806E+01  0.11659493832E+02 -0.34194416713E+02  0.36147020112E+02  0.10566000000E+00 0.  1.
        -14    1    4    4    0    0 -0.15508364990E+01  0.10382501291E+02 -0.35287299492E+02  0.36815688671E+02  0.00000000000E+00 0.  1.
<mgrwt>
<rscale>  0 0.79364746E+02</rscale>
<asrwt>0</asrwt>
<pdfrwt beam="1">  1        2 0.22699550E-01 0.79364746E+02</pdfrwt>
<pdfrwt beam="2">  1       -1 0.16419174E-02 0.79364746E+02</pdfrwt>
<totfact> 0.20350075E+05</totfact>
</mgrwt>
</event>
<event>
 8    1  0.2389776E-024  0.7235930E+02  0.7818608E-02  0.1352249E+00
         -1   -1    0    0    0  501 -0.00000000000E+00  0.00000000000E+00  0.59044216369E+00  0.59046367396E+00  0.50400000000E-02 0.  1.
          2   -1    0    0  501    0  0.00000000000E+00 -0.00000000000E+00 -0.22168862918E+04  0.22168862918E+04  0.25500000000E-02 0. -1.
         24    2    1    2    0    0 -0.88817841970E-15  0.00000000000E+00 -0.22162958496E+04  0.22174767555E+04  0.72359297665E+02 0.  0.
         66    2    3    3    0    0 -0.70152890870E+01 -0.11053600398E+02 -0.21416843191E+04  0.21417252669E+04  0.19999989581E+01 0.  0.
        -13    1    3    3    0    0  0.70152890870E+01  0.11053600398E+02 -0.74611530534E+02  0.75751488536E+02  0.10566000000E+00 0.  1.
         13    1    4    4    0    0 -0.51061429204E+01 -0.73512732907E+01 -0.14309868582E+04  0.14310148543E+04  0.10566000000E+00 0. -1.
        -13    1    4    4    0    0 -0.19061841711E+01 -0.28566783912E+01 -0.58785793859E+03  0.58786797947E+03  0.10566000000E+00 0.  1.
        -14    1    4    4    0    0 -0.29619955408E-02 -0.84564871628E+00 -0.12283952230E+03  0.12284243310E+03  0.00000000000E+00 0.  1.
<mgrwt>
<rscale>  0 0.72359298E+02</rscale>
<asrwt>0</asrwt>
<pdfrwt beam="1">  1        2 0.34105277E+00 0.72359298E+02</pdfrwt>
<pdfrwt beam="2">  1       -1 0.90840686E-04 0.72359298E+02</pdfrwt>
<totfact> 0.32303655E+05</totfact>
</mgrwt>
</event>
<event>
 8    1  0.2389776E-024  0.7853216E+02  0.7818608E-02  0.1333269E+00
         -1   -1    0    0    0  501 -0.00000000000E+00  0.00000000000E+00  0.75123676672E+01  0.75123693579E+01  0.50400000000E-02 0.  1.
          2   -1    0    0  501    0  0.00000000000E+00 -0.00000000000E+00 -0.20523820854E+03  0.20523820855E+03  0.25500000000E-02 0. -1.
         24    2    1    2    0    0  0.00000000000E+00 -0.35527136788E-14 -0.19772584087E+03  0.21275057791E+03  0.78532160633E+02 0.  0.
         66    2    3    3    0    0  0.19848352657E+02  0.14484285579E+02 -0.18181206727E+03  0.18347582794E+03  0.19999998164E+01 0.  0.
        -13    1    3    3    0    0 -0.19848352657E+02 -0.14484285579E+02 -0.15913773598E+02  0.29274749975E+02  0.10566000000E+00 0.  1.
         13    1    4    4    0    0  0.10303540131E+01  0.37043538451E+00 -0.75551344596E+01  0.76347935469E+01  0.10566000000E+00 0. -1.
        -13    1    4    4    0    0  0.53504917578E+01  0.36598325975E+01 -0.51112393185E+02  0.51521937442E+02  0.10566000000E+00 0. -1.
         14    1    4    4    0    0  0.13467506886E+02  0.10454017597E+02 -0.12314453963E+03  0.12431909695E+03  0.00000000000E+00 0. -1.
<mgrwt>
<rscale>  0 0.78532161E+02</rscale>
<asrwt>0</asrwt>
<pdfrwt beam="1">  1        2 0.31575105E-01 0.78532161E+02</pdfrwt>
<pdfrwt beam="2">  1       -1 0.11557492E-02 0.78532161E+02</pdfrwt>
<totfact> 0.23371000E+05</totfact>
</mgrwt>
</event>
<event>
 8    1  0.2389776E-024  0.7995271E+02  0.7818608E-02  0.1329186E+00
         -1   -1    0    0    0  501 -0.00000000000E+00  0.00000000000E+00  0.41158391679E+01  0.41158422538E+01  0.50400000000E-02 0.  1.
          2   -1    0    0  501    0  0.00000000000E+00 -0.00000000000E+00 -0.38828250771E+03  0.38828250772E+03  0.25500000000E-02 0. -1.
         24    2    1    2    0    0  0.00000000000E+00 -0.26645352591E-14 -0.38416666855E+03  0.39239834998E+03  0.79952710037E+02 0.  0.
         66    2    3    3    0    0 -0.19181740372E+02  0.74792837672E+01 -0.36023809658E+03  0.36083149125E+03  0.20000005634E+01 0.  0.
        -13    1    3    3    0    0  0.19181740372E+02 -0.74792837672E+01 -0.23928571968E+02  0.31566858726E+02  0.10566000000E+00 0.  1.
         13    1    4    4    0    0 -0.27604090583E+01  0.16491648585E+01 -0.51239207392E+02  0.51340112399E+02  0.10566000000E+00 0. -1.
        -13    1    4    4    0    0 -0.34240163216E+01  0.14614042756E+01 -0.60642318776E+02  0.60756576441E+02  0.10566000000E+00 0.  1.
         14    1    4    4    0    0 -0.12997314992E+02  0.43687146330E+01 -0.24835657041E+03  0.24873480241E+03  0.00000000000E+00 0. -1.
<mgrwt>
<rscale>  0 0.79952710E+02</rscale>
<asrwt>0</asrwt>
<pdfrwt beam="1">  1        2 0.59735742E-01 0.79952710E+02</pdfrwt>
<pdfrwt beam="2">  1       -1 0.63320657E-03 0.79952710E+02</pdfrwt>
<totfact> 0.28003613E+05</totfact>
</mgrwt>
</event>
<event>
 8    1  0.2389776E-024  0.8068036E+02  0.7818608E-02  0.1327132E+00
         -1   -1    0    0    0  501 -0.00000000000E+00  0.00000000000E+00  0.76103940654E+02  0.76103940821E+02  0.50400000000E-02 0.  1.
          2   -1    0    0  501    0  0.00000000000E+00 -0.00000000000E+00 -0.21382993956E+02  0.21382994108E+02  0.25500000000E-02 0. -1.
         24    2    1    2    0    0  0.00000000000E+00  0.35527136788E-14  0.54720946698E+02  0.97486934930E+02  0.80680359905E+02 0.  0.
         66    2    3    3    0    0 -0.21052566898E+02  0.19294780777E+02 -0.70081896549E+01  0.29472255800E+02  0.20000003635E+01 0.  0.
        -13    1    3    3    0    0  0.21052566898E+02 -0.19294780777E+02  0.61729136353E+02  0.68014679130E+02  0.10566000000E+00 0.  1.
         13    1    4    4    0    0 -0.32582380129E+01  0.37069218045E+01 -0.11876619877E+01  0.50773112220E+01  0.10566000000E+00 0. -1.
        -13    1    4    4    0    0 -0.10785291925E+02  0.89596475833E+01 -0.29317416535E+01  0.14324946069E+02  0.10566000000E+00 0.  1.
         14    1    4    4    0    0 -0.70090369606E+01  0.66282113892E+01 -0.28887860137E+01  0.10069998509E+02  0.00000000000E+00 0. -1.
<mgrwt>
<rscale>  0 0.80680360E+02</rscale>
<asrwt>0</asrwt>
<pdfrwt beam="1">  1        2 0.32896914E-02 0.80680360E+02</pdfrwt>
<pdfrwt beam="2">  1       -1 0.11708299E-01 0.80680360E+02</pdfrwt>
<totfact> 0.12282579E+05</totfact>
</mgrwt>
</event>
<event>
 8    1  0.2389776E-024  0.7903819E+02  0.7818608E-02  0.1331803E+00
         -1   -1    0    0    0  501 -0.00000000000E+00  0.00000000000E+00  0.55304117910E+01  0.55304140875E+01  0.50400000000E-02 0.  1.
          2   -1    0    0  501    0  0.00000000000E+00 -0.00000000000E+00 -0.28239459839E+03  0.28239459840E+03  0.25500000000E-02 0. -1.
         24    2    1    2    0    0  0.00000000000E+00 -0.17763568394E-14 -0.27686418660E+03  0.28792501249E+03  0.79038186946E+02 0.  0.
         66    2    3    3    0    0 -0.28890107356E+01  0.11485723568E+02 -0.27576908244E+03  0.27603053284E+03  0.20000005897E+01 0.  0.
        -13    1    3    3    0    0  0.28890107356E+01 -0.11485723568E+02 -0.10951041587E+01  0.11894479647E+02  0.10566000000E+00 0.  1.
         13    1    4    4    0    0 -0.15973573340E+01  0.48536034118E+01 -0.11887385238E+03  0.11898366677E+03  0.10566000000E+00 0. -1.
        -13    1    4    4    0    0 -0.45689333790E+00  0.49762075327E+01 -0.12209026278E+03  0.12219253178E+03  0.10566000000E+00 0. -1.
         14    1    4    4    0    0 -0.83476006365E+00  0.16559126235E+01 -0.34804967283E+02  0.34854334286E+02  0.00000000000E+00 0. -1.
<mgrwt>
<rscale>  0 0.79038187E+02</rscale>
<asrwt>0</asrwt>
<pdfrwt beam="1">  1        2 0.43445312E-01 0.79038187E+02</pdfrwt>
<pdfrwt beam="2">  1       -1 0.85083298E-03 0.79038187E+02</pdfrwt>
<totfact> 0.25745846E+05</totfact>
</mgrwt>
</event>
<event>
 8    1  0.2389776E-024  0.7931122E+02  0.7818608E-02  0.1331018E+00
          2   -1    0    0  501    0  0.00000000000E+00  0.00000000000E+00  0.70297090377E+02  0.70297090423E+02  0.25500000000E-02 0. -1.
         -1   -1    0    0    0  501 -0.00000000000E+00 -0.00000000000E+00 -0.22370304088E+02  0.22370304655E+02  0.50400000000E-02 0.  1.
         24    2    1    2    0    0  0.35527136788E-14  0.17763568394E-14  0.47926786289E+02  0.92667395079E+02  0.79311217786E+02 0.  0.
         66    2    3    3    0    0 -0.28010920613E+02 -0.10026557488E+02  0.54567946503E+02  0.62183633800E+02  0.19999996024E+01 0.  0.
        -13    1    3    3    0    0  0.28010920613E+02  0.10026557488E+02 -0.66411602139E+01  0.30483761278E+02  0.10566000000E+00 0.  1.
         13    1    4    4    0    0 -0.43304523671E+01 -0.18416046824E+01  0.78512309077E+01  0.91540874101E+01  0.10566000000E+00 0. -1.
        -13    1    4    4    0    0 -0.85338519423E+01 -0.34030628702E+01  0.18200080717E+02  0.20387779870E+02  0.10566000000E+00 0.  1.
         14    1    4    4    0    0 -0.15146616303E+02 -0.47818899357E+01  0.28516634878E+02  0.32641766520E+02  0.00000000000E+00 0. -1.
<mgrwt>
<rscale>  0 0.79311218E+02</rscale>
<asrwt>0</asrwt>
<pdfrwt beam="1">  1        2 0.10814937E-01 0.79311218E+02</pdfrwt>
<pdfrwt beam="2">  1       -1 0.34415853E-02 0.79311218E+02</pdfrwt>
<totfact> 0.16545746E+05</totfact>
</mgrwt>
</event>
<event>
 8    1  0.2389776E-024  0.7755199E+02  0.7818608E-02  0.1336146E+00
          2   -1    0    0  501    0  0.00000000000E+00  0.00000000000E+00  0.87682530672E+02  0.87682530709E+02  0.25500000000E-02 0. -1.
         -1   -1    0    0    0  501 -0.00000000000E+00 -0.00000000000E+00 -0.17147974178E+02  0.17147974919E+02  0.50400000000E-02 0.  1.
         24    2    1    2    0    0  0.00000000000E+00  0.00000000000E+00  0.70534556494E+02  0.10483050563E+03  0.77551990628E+02 0.  0.
         66    2    3    3    0    0 -0.36257109478E+02  0.49962576240E+01  0.52497287716E+02  0.64027383113E+02  0.19999982279E+01 0.  0.
        -13    1    3    3    0    0  0.36257109478E+02 -0.49962576240E+01  0.18037268778E+02  0.40803122515E+02  0.10566000000E+00 0.  1.
         13    1    4    4    0    0 -0.14621776185E+02  0.20461150678E+01  0.21911511230E+02  0.26421741315E+02  0.10566000000E+00 0. -1.
        -13    1    4    4    0    0 -0.72409216943E+01  0.72622669696E+00  0.11222631038E+02  0.13375984586E+02  0.10566000000E+00 0.  1.
         14    1    4    4    0    0 -0.14394411598E+02  0.22239158592E+01  0.19363145448E+02  0.24229657212E+02  0.00000000000E+00 0. -1.
<mgrwt>
<rscale>  0 0.77551991E+02</rscale>
<asrwt>0</asrwt>
<pdfrwt beam="1">  1        2 0.13489620E-01 0.77551991E+02</pdfrwt>
<pdfrwt beam="2">  1       -1 0.26381499E-02 0.77551991E+02</pdfrwt>
<totfact> 0.18588101E+05</totfact>
</mgrwt>
</event>
<event>
 8    1  0.2389776E-024  0.7899471E+02  0.7818608E-02  0.1331929E+00
          2   -1    0    0  501    0  0.00000000000E+00  0.00000000000E+00  0.72846559496E+01  0.72846563959E+01  0.25500000000E-02 0. -1.
         -1   -1    0    0    0  501 -0.00000000000E+00 -0.00000000000E+00 -0.21415438285E+03  0.21415438291E+03  0.50400000000E-02 0.  1.
         24    2    1    2    0    0 -0.35527136788E-14  0.35527136788E-14 -0.20686972690E+03  0.22143903930E+03  0.78994710079E+02 0.  0.
         66    2    3    3    0    0 -0.22296675101E+02  0.26456090724E+02 -0.50242161062E+02  0.61035573004E+02  0.19999916966E+01 0.  0.
        -13    1    3    3    0    0  0.22296675101E+02 -0.26456090724E+02 -0.15662756584E+03  0.16040346630E+03  0.10566000000E+00 0.  1.
         13    1    4    4    0    0 -0.18466016562E+02  0.21664293798E+02 -0.42028875645E+02  0.50761924170E+02  0.10566000000E+00 0. -1.
        -13    1    4    4    0    0 -0.92198414124E-01  0.98210011653E-01 -0.22552108472E+00  0.28314227732E+00  0.10566000000E+00 0. -1.
        -14    1    4    4    0    0 -0.37384601242E+01  0.46935869146E+01 -0.79877643321E+01  0.99905065563E+01  0.00000000000E+00 0.  1.
<mgrwt>
<rscale>  0 0.78994710E+02</rscale>
<asrwt>0</asrwt>
<pdfrwt beam="1">  1        2 0.11207165E-02 0.78994710E+02</pdfrwt>
<pdfrwt beam="2">  1       -1 0.32946823E-01 0.78994710E+02</pdfrwt>
<totfact> 0.10071239E+05</totfact>
</mgrwt>
</event>
<event>
 8    1  0.2389776E-024  0.7464463E+02  0.7818608E-02  0.1344975E+00
         -1   -1    0    0    0  501 -0.00000000000E+00  0.00000000000E+00  0.20375005834E+02  0.20375006457E+02  0.50400000000E-02 0.  1.
          2   -1    0    0  501    0  0.00000000000E+00 -0.00000000000E+00 -0.68365873648E+02  0.68365873696E+02  0.25500000000E-02 0. -1.
         24    2    1    2    0    0 -0.35527136788E-14  0.00000000000E+00 -0.47990867814E+02  0.88740880153E+02  0.74644627514E+02 0.  0.
         66    2    3    3    0    0 -0.17781898898E+02 -0.15911982940E+02 -0.58088379205E+02  0.62830302586E+02  0.19999987053E+01 0.  0.
        -13    1    3    3    0    0  0.17781898898E+02  0.15911982940E+02  0.10097511391E+02  0.25910577567E+02  0.10566000000E+00 0.  1.
         13    1    4    4    0    0 -0.19873366123E+01 -0.13643906337E+01 -0.48391219901E+01  0.54073407774E+01  0.10566000000E+00 0.  1.
        -13    1    4    4    0    0 -0.69950073005E+01 -0.59332926442E+01 -0.23343356415E+02  0.25081019546E+02  0.10566000000E+00 0. -1.
         14    1    4    4    0    0 -0.87995549856E+01 -0.86142996624E+01 -0.29905900800E+02  0.32341942262E+02  0.00000000000E+00 0. -1.
<mgrwt>
<rscale>  0 0.74644628E+02</rscale>
<asrwt>0</asrwt>
<pdfrwt beam="1">  1        2 0.10517827E-01 0.74644628E+02</pdfrwt>
<pdfrwt beam="2">  1       -1 0.31346164E-02 0.74644628E+02</pdfrwt>
<totfact> 0.19351193E+05</totfact>
</mgrwt>
</event>
<event>
 8    1  0.2389776E-024  0.8531840E+02  0.7818608E-02  0.1314602E+00
          2   -1    0    0  501    0  0.00000000000E+00  0.00000000000E+00  0.75639868425E+03  0.75639868426E+03  0.25500000000E-02 0. -1.
         -1   -1    0    0    0  501 -0.00000000000E+00 -0.00000000000E+00 -0.24058808996E+01  0.24058861787E+01  0.50400000000E-02 0.  1.
         24    2    1    2    0    0  0.00000000000E+00 -0.17763568394E-14  0.75399280335E+03  0.75880457043E+03  0.85318395471E+02 0.  0.
         66    2    3    3    0    0  0.38379420046E+01  0.14830925376E+02  0.73107288656E+03  0.73123611207E+03  0.19999998379E+01 0.  0.
        -13    1    3    3    0    0 -0.38379420046E+01 -0.14830925376E+02  0.22919916797E+02  0.27568458360E+02  0.10566000000E+00 0.  1.
         13    1    4    4    0    0  0.71372128491E+00  0.45689973272E+01  0.24570545673E+03  0.24574899342E+03  0.10566000000E+00 0. -1.
        -13    1    4    4    0    0  0.21507810818E+01  0.56113285113E+01  0.25708451637E+03  0.25715476389E+03  0.10566000000E+00 0.  1.
        -14    1    4    4    0    0  0.97343963787E+00  0.46505995377E+01  0.22828291345E+03  0.22833235477E+03  0.00000000000E+00 0.  1.
<mgrwt>
<rscale>  0 0.85318395E+02</rscale>
<asrwt>0</asrwt>
<pdfrwt beam="1">  1        2 0.11636900E+00 0.85318395E+02</pdfrwt>
<pdfrwt beam="2">  1       -1 0.37013603E-03 0.85318395E+02</pdfrwt>
<totfact> 0.28757172E+05</totfact>
</mgrwt>
</event>
<event>
 8    1  0.2389776E-024  0.8024105E+02  0.7818608E-02  0.1328369E+00
          2   -1    0    0  501    0  0.00000000000E+00  0.00000000000E+00  0.88785620077E+02  0.88785620114E+02  0.25500000000E-02 0. -1.
         -1   -1    0    0    0  501 -0.00000000000E+00 -0.00000000000E+00 -0.18129696936E+02  0.18129697637E+02  0.50400000000E-02 0.  1.
         24    2    1    2    0    0  0.10658141036E-13 -0.88817841970E-15  0.70655923141E+02  0.10691531775E+03  0.80241047443E+02 0.  0.
         66    2    3    3    0    0 -0.30749439000E+02  0.55956785035E+01  0.68815035192E+02  0.75606538643E+02  0.20000000742E+01 0.  0.
        -13    1    3    3    0    0  0.30749439000E+02 -0.55956785035E+01  0.18408879489E+01  0.31308779108E+02  0.10566000000E+00 0.  1.
         13    1    4    4    0    0 -0.19350160187E+02  0.35943951660E+01  0.44509121938E+02  0.48666430685E+02  0.10566000000E+00 0. -1.
        -13    1    4    4    0    0 -0.83535051123E+01  0.18464892758E+01  0.18468888491E+02  0.20354399437E+02  0.10566000000E+00 0.  1.
        -14    1    4    4    0    0 -0.30457737010E+01  0.15479406174E+00  0.58370247630E+01  0.65857085210E+01  0.00000000000E+00 0.  1.
<mgrwt>
<rscale>  0 0.80241047E+02</rscale>
<asrwt>0</asrwt>
<pdfrwt beam="1">  1        2 0.13659326E-01 0.80241047E+02</pdfrwt>
<pdfrwt beam="2">  1       -1 0.27891842E-02 0.80241047E+02</pdfrwt>
<totfact> 0.17019878E+05</totfact>
</mgrwt>
</event>
<event>
 8    1  0.2389776E-024  0.7804775E+02  0.7818608E-02  0.1334685E+00
          2   -1    0    0  501    0  0.00000000000E+00  0.00000000000E+00  0.26552445831E+02  0.26552445953E+02  0.25500000000E-02 0. -1.
         -1   -1    0    0    0  501 -0.00000000000E+00 -0.00000000000E+00 -0.57353010039E+02  0.57353010260E+02  0.50400000000E-02 0.  1.
         24    2    1    2    0    0 -0.17763568394E-14  0.17763568394E-14 -0.30800564208E+02  0.83905456214E+02  0.78047747097E+02 0.  0.
         66    2    3    3    0    0  0.98853009512E+01 -0.12020199956E+02  0.23031657665E+02  0.27868649937E+02  0.20000031570E+01 0.  0.
        -13    1    3    3    0    0 -0.98853009512E+01  0.12020199956E+02 -0.53832221873E+02  0.56036806277E+02  0.10566000000E+00 0.  1.
         13    1    4    4    0    0  0.58884926496E+01 -0.71066987430E+01  0.14291710468E+02  0.17013043962E+02  0.10566000000E+00 0. -1.
        -13    1    4    4    0    0  0.71744179663E+00 -0.70245508048E+00  0.21508362756E+01  0.23760106463E+01  0.10566000000E+00 0.  1.
         14    1    4    4    0    0  0.32793665049E+01 -0.42110461328E+01  0.65891109213E+01  0.84795953287E+01  0.00000000000E+00 0. -1.
<mgrwt>
<rscale>  0 0.78047747E+02</rscale>
<asrwt>0</asrwt>
<pdfrwt beam="1">  1        2 0.40849917E-02 0.78047747E+02</pdfrwt>
<pdfrwt beam="2">  1       -1 0.88235400E-02 0.78047747E+02</pdfrwt>
<totfact> 0.14081728E+05</totfact>
</mgrwt>
</event>
<event>
 8    1  0.2389776E-024  0.8141912E+02  0.7818608E-02  0.1325072E+00
         -1   -1    0    0    0  501 -0.00000000000E+00  0.00000000000E+00  0.14579363163E+02  0.14579364034E+02  0.50400000000E-02 0.  1.
          2   -1    0    0  501    0  0.00000000000E+00 -0.00000000000E+00 -0.11367219311E+03  0.11367219314E+03  0.25500000000E-02 0. -1.
         24    2    1    2    0    0  0.00000000000E+00  0.00000000000E+00 -0.99092829949E+02  0.12825155718E+03  0.81419119196E+02 0.  0.
         66    2    3    3    0    0  0.36100415350E+02 -0.89176620156E+01 -0.75578923353E+02  0.84255197648E+02  0.19999978113E+01 0.  0.
        -13    1    3    3    0    0 -0.36100415350E+02  0.89176620156E+01 -0.23513906596E+02  0.43996359528E+02  0.10566000000E+00 0.  1.
         13    1    4    4    0    0  0.77754476363E+01 -0.16356079774E+01 -0.17533774167E+02  0.19250381813E+02  0.10566000000E+00 0. -1.
        -13    1    4    4    0    0  0.34305356054E+01 -0.57645217675E+00 -0.66536298188E+01  0.75088498090E+01  0.10566000000E+00 0.  1.
         14    1    4    4    0    0  0.24894432108E+02 -0.67056018614E+01 -0.51391519367E+02  0.57495966025E+02  0.00000000000E+00 0. -1.
<mgrwt>
<rscale>  0 0.81419119E+02</rscale>
<asrwt>0</asrwt>
<pdfrwt beam="1">  1        2 0.17488029E-01 0.81419119E+02</pdfrwt>
<pdfrwt beam="2">  1       -1 0.22429791E-02 0.81419119E+02</pdfrwt>
<totfact> 0.17544752E+05</totfact>
</mgrwt>
</event>
<event>
 8    1  0.2389776E-024  0.8065779E+02  0.7818608E-02  0.1327195E+00
         -1   -1    0    0    0  501 -0.00000000000E+00  0.00000000000E+00  0.74226920267E+01  0.74226937378E+01  0.50400000000E-02 0.  1.
          2   -1    0    0  501    0  0.00000000000E+00 -0.00000000000E+00 -0.21911449091E+03  0.21911449092E+03  0.25500000000E-02 0. -1.
         24    2    1    2    0    0  0.35527136788E-14 -0.69388939039E-17 -0.21169179888E+03  0.22653718466E+03  0.80657785243E+02 0.  0.
         66    2    3    3    0    0 -0.30229892950E+02  0.16007398830E-01 -0.18077875803E+03  0.18329977097E+03  0.19999996368E+01 0.  0.
        -13    1    3    3    0    0  0.30229892950E+02 -0.16007398830E-01 -0.30913040852E+02  0.43237413692E+02  0.10566000000E+00 0.  1.
         13    1    4    4    0    0 -0.12657781487E+02  0.34546803807E+00 -0.73059089116E+02  0.74148367796E+02  0.10566000000E+00 0. -1.
        -13    1    4    4    0    0 -0.58073128790E+01 -0.20964022004E+00 -0.39319077948E+02  0.39746319158E+02  0.10566000000E+00 0.  1.
        -14    1    4    4    0    0 -0.11764798584E+02 -0.11982041920E+00 -0.68400590965E+02  0.69405084014E+02  0.00000000000E+00 0.  1.
<mgrwt>
<rscale>  0 0.80657785E+02</rscale>
<asrwt>0</asrwt>
<pdfrwt beam="1">  1        2 0.33709917E-01 0.80657785E+02</pdfrwt>
<pdfrwt beam="2">  1       -1 0.11419529E-02 0.80657785E+02</pdfrwt>
<totfact> 0.22288517E+05</totfact>
</mgrwt>
</event>
<event>
 8    1  0.2389776E-024  0.8133972E+02  0.7818608E-02  0.1325292E+00
          2   -1    0    0  501    0  0.00000000000E+00  0.00000000000E+00  0.57803687233E+02  0.57803687290E+02  0.25500000000E-02 0. -1.
         -1   -1    0    0    0  501 -0.00000000000E+00 -0.00000000000E+00 -0.28614743566E+02  0.28614744010E+02  0.50400000000E-02 0.  1.
         24    2    1    2    0    0  0.00000000000E+00  0.00000000000E+00  0.29188943667E+02  0.86418431300E+02  0.81339724833E+02 0.  0.
         66    2    3    3    0    0 -0.28070509657E+01 -0.26709421212E+02  0.47016517689E+02  0.54183259885E+02  0.19999998791E+01 0.  0.
        -13    1    3    3    0    0  0.28070509657E+01  0.26709421212E+02 -0.17827574022E+02  0.32235171415E+02  0.10566000000E+00 0.  1.
         13    1    4    4    0    0 -0.11367123410E+01 -0.58889825338E+01  0.99843481221E+01  0.11647772392E+02  0.10566000000E+00 0. -1.
        -13    1    4    4    0    0 -0.70808247697E+00 -0.48294086546E+01  0.95266092077E+01  0.10704766031E+02  0.10566000000E+00 0. -1.
         14    1    4    4    0    0 -0.96225614780E+00 -0.15991030024E+02  0.27505560359E+02  0.31830721462E+02  0.00000000000E+00 0. -1.
<mgrwt>
<rscale>  0 0.81339725E+02</rscale>
<asrwt>0</asrwt>
<pdfrwt beam="1">  1        2 0.88928749E-02 0.81339725E+02</pdfrwt>
<pdfrwt beam="2">  1       -1 0.44022683E-02 0.81339725E+02</pdfrwt>
<totfact> 0.14749956E+05</totfact>
</mgrwt>
</event>
<event>
 8    1  0.2389776E-024  0.8077314E+02  0.7818608E-02  0.1326872E+00
         -1   -1    0    0    0  501 -0.00000000000E+00  0.00000000000E+00  0.32799702325E+01  0.32799741047E+01  0.50400000000E-02 0.  1.
          2   -1    0    0  501    0  0.00000000000E+00 -0.00000000000E+00 -0.49728323466E+03  0.49728323467E+03  0.25500000000E-02 0. -1.
         24    2    1    2    0    0 -0.35527136788E-14  0.17763568394E-14 -0.49400326443E+03  0.50056320877E+03  0.80773143497E+02 0.  0.
         66    2    3    3    0    0  0.29353709496E+02  0.10406980257E+02 -0.40625468025E+03  0.40745160537E+03  0.19999980098E+01 0.  0.
        -13    1    3    3    0    0 -0.29353709496E+02 -0.10406980257E+02 -0.87748584176E+02  0.93111603402E+02  0.10566000000E+00 0.  1.
         13    1    4    4    0    0  0.54280871778E+00  0.47694422631E+00 -0.97936768741E+01  0.98208649237E+01  0.10566000000E+00 0. -1.
        -13    1    4    4    0    0  0.22175756311E+02  0.74610718990E+01 -0.30350591986E+03  0.30440644920E+03  0.10566000000E+00 0.  1.
         14    1    4    4    0    0  0.66351444673E+01  0.24689641312E+01 -0.92955083521E+02  0.93224291246E+02  0.00000000000E+00 0. -1.
<mgrwt>
<rscale>  0 0.80773143E+02</rscale>
<asrwt>0</asrwt>
<pdfrwt beam="1">  1        2 0.76505053E-01 0.80773143E+02</pdfrwt>
<pdfrwt beam="2">  1       -1 0.50461150E-03 0.80773143E+02</pdfrwt>
<totfact> 0.29645533E+05</totfact>
</mgrwt>
</event>
<event>
 8    1  0.2389776E-024  0.8231483E+02  0.7818608E-02  0.1322608E+00
          2   -1    0    0  501    0  0.00000000000E+00  0.00000000000E+00  0.88160880810E+03  0.88160880810E+03  0.25500000000E-02 0. -1.
         -1   -1    0    0    0  501 -0.00000000000E+00 -0.00000000000E+00 -0.19214077594E+01  0.19214143696E+01  0.50400000000E-02 0.  1.
         24    2    1    2    0    0  0.88817841970E-15  0.00000000000E+00  0.87968740034E+03  0.88353022247E+03  0.82314832841E+02 0.  0.
         66    2    3    3    0    0  0.52880868700E+01 -0.17825141094E+02  0.83392709310E+03  0.83413673707E+03  0.20000001108E+01 0.  0.
        -13    1    3    3    0    0 -0.52880868700E+01  0.17825141094E+02  0.45760307237E+02  0.49393485403E+02  0.10566000000E+00 0.  1.
         13    1    4    4    0    0  0.24888629472E+01 -0.11418214521E+02  0.51917009975E+03  0.51930162112E+03  0.10566000000E+00 0. -1.
        -13    1    4    4    0    0  0.13355863906E+00 -0.23477518038E+00  0.12936555085E+02  0.12939805980E+02  0.10566000000E+00 0. -1.
        -14    1    4    4    0    0  0.26656652837E+01 -0.61721513930E+01  0.30182043827E+03  0.30189530997E+03  0.00000000000E+00 0.  1.
<mgrwt>
<rscale>  0 0.82314833E+02</rscale>
<asrwt>0</asrwt>
<pdfrwt beam="1">  1        2 0.13563240E+00 0.82314833E+02</pdfrwt>
<pdfrwt beam="2">  1       -1 0.29560111E-03 0.82314833E+02</pdfrwt>
<totfact> 0.32370472E+05</totfact>
</mgrwt>
</event>
<event>
 8    1  0.2389776E-024  0.7921221E+02  0.7818608E-02  0.1331302E+00
          2   -1    0    0  501    0  0.00000000000E+00  0.00000000000E+00  0.17679212771E+03  0.17679212773E+03  0.25500000000E-02 0. -1.
         -1   -1    0    0    0  501 -0.00000000000E+00 -0.00000000000E+00 -0.88728118543E+01  0.88728132858E+01  0.50400000000E-02 0.  1.
         24    2    1    2    0    0  0.00000000000E+00  0.00000000000E+00  0.16791931586E+03  0.18566494101E+03  0.79212206662E+02 0.  0.
         66    2    3    3    0    0  0.11655117776E+02 -0.33741224501E+02  0.12408787850E+03  0.12913602747E+03  0.20000001270E+01 0.  0.
        -13    1    3    3    0    0 -0.11655117776E+02  0.33741224501E+02  0.43831437360E+02  0.56528913542E+02  0.10566000000E+00 0.  1.
         13    1    4    4    0    0  0.43688817233E+01 -0.12082981210E+02  0.44003396834E+02  0.45840982312E+02  0.10566000000E+00 0. -1.
        -13    1    4    4    0    0  0.30314147974E+00 -0.13886126457E+01  0.62893277429E+01  0.64487942540E+01  0.10566000000E+00 0.  1.
        -14    1    4    4    0    0  0.69830945732E+01 -0.20269630645E+02  0.73795153919E+02  0.76846250905E+02  0.00000000000E+00 0.  1.
<mgrwt>
<rscale>  0 0.79212207E+02</rscale>
<asrwt>0</asrwt>
<pdfrwt beam="1">  1        2 0.27198787E-01 0.79212207E+02</pdfrwt>
<pdfrwt beam="2">  1       -1 0.13650482E-02 0.79212207E+02</pdfrwt>
<totfact> 0.21705624E+05</totfact>
</mgrwt>
</event>
<event>
 8    1  0.2389776E-024  0.8037357E+02  0.7818608E-02  0.1327995E+00
         -1   -1    0    0    0  501 -0.00000000000E+00  0.00000000000E+00  0.19144871082E+01  0.19144937422E+01  0.50400000000E-02 0.  1.
          2   -1    0    0  501    0  0.00000000000E+00 -0.00000000000E+00 -0.84355485835E+03  0.84355485835E+03  0.25500000000E-02 0. -1.
         24    2    1    2    0    0  0.00000000000E+00 -0.88817841970E-15 -0.84164037124E+03  0.84546935210E+03  0.80373570468E+02 0.  0.
         66    2    3    3    0    0 -0.31151653667E+02 -0.72156972189E+01 -0.67669574373E+03  0.67745377806E+03  0.20000002664E+01 0.  0.
        -13    1    3    3    0    0  0.31151653667E+02  0.72156972189E+01 -0.16494462751E+03  0.16801557404E+03  0.10566000000E+00 0.  1.
         13    1    4    4    0    0 -0.51065755117E+01 -0.11656683955E+01 -0.11167422787E+03  0.11179704930E+03  0.10566000000E+00 0. -1.
        -13    1    4    4    0    0 -0.77571142439E+01 -0.17219598343E+01 -0.18570613601E+03  0.18587608260E+03  0.10566000000E+00 0.  1.
         14    1    4    4    0    0 -0.18287963912E+02 -0.43280689891E+01 -0.37931537985E+03  0.37978064616E+03  0.00000000000E+00 0. -1.
<mgrwt>
<rscale>  0 0.80373570E+02</rscale>
<asrwt>0</asrwt>
<pdfrwt beam="1">  1        2 0.12977737E+00 0.80373570E+02</pdfrwt>
<pdfrwt beam="2">  1       -1 0.29453766E-03 0.80373570E+02</pdfrwt>
<totfact> 0.34240384E+05</totfact>
</mgrwt>
</event>
<event>
 8    1  0.2389776E-024  0.7935902E+02  0.7818608E-02  0.1330880E+00
         -1   -1    0    0    0  501 -0.00000000000E+00  0.00000000000E+00  0.34690356199E+02  0.34690356565E+02  0.50400000000E-02 0.  1.
          2   -1    0    0  501    0  0.00000000000E+00 -0.00000000000E+00 -0.45386205738E+02  0.45386205810E+02  0.25500000000E-02 0. -1.
         24    2    1    2    0    0  0.00000000000E+00  0.00000000000E+00 -0.10695849539E+02  0.80076562374E+02  0.79359023711E+02 0.  0.
         66    2    3    3    0    0 -0.21142072373E+02 -0.16225880883E+02 -0.34979913839E+02  0.44021141456E+02  0.20000220552E+01 0.  0.
        -13    1    3    3    0    0  0.21142072373E+02  0.16225880883E+02  0.24284064300E+02  0.36055420919E+02  0.10566000000E+00 0.  1.
         13    1    4    4    0    0 -0.27468247462E+01 -0.27072313251E+01 -0.46061512490E+01  0.60084890778E+01  0.10566000000E+00 0. -1.
        -13    1    4    4    0    0 -0.17106017239E+02 -0.12261077365E+02 -0.28247273528E+02  0.35225977200E+02  0.10566000000E+00 0.  1.
        -14    1    4    4    0    0 -0.12892303886E+01 -0.12575721930E+01 -0.21264890623E+01  0.27866751780E+01  0.00000000000E+00 0.  1.
<mgrwt>
<rscale>  0 0.79359024E+02</rscale>
<asrwt>0</asrwt>
<pdfrwt beam="1">  1        2 0.69824932E-02 0.79359024E+02</pdfrwt>
<pdfrwt beam="2">  1       -1 0.53369779E-02 0.79359024E+02</pdfrwt>
<totfact> 0.14962817E+05</totfact>
</mgrwt>
</event>
<event>
 8    1  0.2389776E-024  0.8001951E+02  0.7818608E-02  0.1328996E+00
          2   -1    0    0  501    0  0.00000000000E+00  0.00000000000E+00  0.36892289480E+03  0.36892289481E+03  0.25500000000E-02 0. -1.
         -1   -1    0    0    0  501 -0.00000000000E+00 -0.00000000000E+00 -0.43390641440E+01  0.43390670711E+01  0.50400000000E-02 0.  1.
         24    2    1    2    0    0  0.00000000000E+00  0.00000000000E+00  0.36458383066E+03  0.37326196188E+03  0.80019513937E+02 0.  0.
         66    2    3    3    0    0  0.16555869001E+02 -0.81879320145E+01  0.34782829434E+03  0.34832407524E+03  0.20000040317E+01 0.  0.
        -13    1    3    3    0    0 -0.16555869001E+02  0.81879320145E+01  0.16755536319E+02  0.24937886647E+02  0.10566000000E+00 0.  1.
         13    1    4    4    0    0  0.55960249335E+01 -0.24448707418E+01  0.13173727349E+03  0.13187878252E+03  0.10566000000E+00 0. -1.
        -13    1    4    4    0    0  0.40126386972E+01 -0.22745262639E+01  0.79918191660E+02  0.80051253965E+02  0.10566000000E+00 0.  1.
         14    1    4    4    0    0  0.69472053706E+01 -0.34685350088E+01  0.13617282919E+03  0.13639403875E+03  0.00000000000E+00 0. -1.
<mgrwt>
<rscale>  0 0.80019514E+02</rscale>
<asrwt>0</asrwt>
<pdfrwt beam="1">  1        2 0.56757357E-01 0.80019514E+02</pdfrwt>
<pdfrwt beam="2">  1       -1 0.66754869E-03 0.80019514E+02</pdfrwt>
<totfact> 0.27441358E+05</totfact>
</mgrwt>
</event>
<event>
 8    1  0.2389776E-024  0.8003441E+02  0.7818608E-02  0.1328954E+00
          2   -1    0    0  501    0  0.00000000000E+00  0.00000000000E+00  0.36654155251E+03  0.36654155252E+03  0.25500000000E-02 0. -1.
         -1   -1    0    0    0  501 -0.00000000000E+00 -0.00000000000E+00 -0.43688804983E+01  0.43688834054E+01  0.50400000000E-02 0.  1.
         24    2    1    2    0    0  0.44408920985E-15  0.00000000000E+00  0.36217267201E+03  0.37091043592E+03  0.80034412132E+02 0.  0.
         66    2    3    3    0    0 -0.37155133148E+01 -0.34283347035E+02  0.27506333239E+03  0.27722371789E+03  0.20000026466E+01 0.  0.
        -13    1    3    3    0    0  0.37155133148E+01  0.34283347035E+02  0.87109339617E+02  0.93686718033E+02  0.10566000000E+00 0.  1.
         13    1    4    4    0    0 -0.11177836509E+01 -0.12668549874E+02  0.10465915745E+03  0.10542908517E+03  0.10566000000E+00 0. -1.
        -13    1    4    4    0    0 -0.27572109243E+01 -0.20730493375E+02  0.16300897943E+03  0.16434504588E+03  0.10566000000E+00 0.  1.
        -14    1    4    4    0    0  0.15948126039E+00 -0.88430378544E+00  0.73951955144E+01  0.74495868445E+01  0.00000000000E+00 0.  1.
<mgrwt>
<rscale>  0 0.80034412E+02</rscale>
<asrwt>0</asrwt>
<pdfrwt beam="1">  1        2 0.56391015E-01 0.80034412E+02</pdfrwt>
<pdfrwt beam="2">  1       -1 0.67213561E-03 0.80034412E+02</pdfrwt>
<totfact> 0.27365177E+05</totfact>
</mgrwt>
</event>
<event>
 8    1  0.2389776E-024  0.7903957E+02  0.7818608E-02  0.1331799E+00
         -1   -1    0    0    0  501 -0.00000000000E+00  0.00000000000E+00  0.16032027781E+01  0.16032107003E+01  0.50400000000E-02 0.  1.
          2   -1    0    0  501    0  0.00000000000E+00 -0.00000000000E+00 -0.97418081180E+03  0.97418081181E+03  0.25500000000E-02 0. -1.
         24    2    1    2    0    0  0.00000000000E+00  0.17763568394E-14 -0.97257760902E+03  0.97578402251E+03  0.79039566058E+02 0.  0.
         66    2    3    3    0    0  0.14324359004E+02  0.13075707025E+02 -0.91133644216E+03  0.91154499186E+03  0.20000015258E+01 0.  0.
        -13    1    3    3    0    0 -0.14324359004E+02 -0.13075707025E+02 -0.61241166868E+02  0.64239030647E+02  0.10566000000E+00 0.  1.
         13    1    4    4    0    0  0.69381467035E+01  0.57899490646E+01 -0.42760160269E+03  0.42769709278E+03  0.10566000000E+00 0. -1.
        -13    1    4    4    0    0  0.50400063843E-01 -0.38428396308E-02 -0.57994192060E+01  0.58006018736E+01  0.10566000000E+00 0. -1.
         14    1    4    4    0    0  0.73358122366E+01  0.72896008001E+01 -0.47793542027E+03  0.47804729721E+03  0.00000000000E+00 0. -1.
<mgrwt>
<rscale>  0 0.79039566E+02</rscale>
<asrwt>0</asrwt>
<pdfrwt beam="1">  1        2 0.14987350E+00 0.79039566E+02</pdfrwt>
<pdfrwt beam="2">  1       -1 0.24664797E-03 0.79039566E+02</pdfrwt>
<totfact> 0.36304295E+05</totfact>
</mgrwt>
</event>
<event>
 8    1  0.2389776E-024  0.7816733E+02  0.7818608E-02  0.1334334E+00
         -1   -1    0    0    0  501 -0.00000000000E+00  0.00000000000E+00  0.71494562276E+01  0.71494580041E+01  0.50400000000E-02 0.  1.
          2   -1    0    0  501    0  0.00000000000E+00 -0.00000000000E+00 -0.21365716173E+03  0.21365716174E+03  0.25500000000E-02 0. -1.
         24    2    1    2    0    0 -0.17763568394E-14  0.00000000000E+00 -0.20650770550E+03  0.22080661975E+03  0.78167326251E+02 0.  0.
         66    2    3    3    0    0  0.14941340786E+02  0.23521340375E+02 -0.18063143030E+03  0.18277913101E+03  0.20000005834E+01 0.  0.
        -13    1    3    3    0    0 -0.14941340786E+02 -0.23521340375E+02 -0.25876275199E+02  0.38027488738E+02  0.10566000000E+00 0.  1.
         13    1    4    4    0    0  0.96637091738E+00  0.16848487137E+01 -0.12699125570E+02  0.12847238700E+02  0.10566000000E+00 0. -1.
        -13    1    4    4    0    0  0.75046783514E+01  0.11476647547E+02 -0.94779901383E+02  0.95766771410E+02  0.10566000000E+00 0.  1.
         14    1    4    4    0    0  0.64702915169E+01  0.10359844114E+02 -0.73152403347E+02  0.74165120898E+02  0.00000000000E+00 0. -1.
<mgrwt>
<rscale>  0 0.78167326E+02</rscale>
<asrwt>0</asrwt>
<pdfrwt beam="1">  1        2 0.32870328E-01 0.78167326E+02</pdfrwt>
<pdfrwt beam="2">  1       -1 0.10999166E-02 0.78167326E+02</pdfrwt>
<totfact> 0.23993558E+05</totfact>
</mgrwt>
</event>
<event>
 8    1  0.2389776E-024  0.7931979E+02  0.7818608E-02  0.1330993E+00
         -1   -1    0    0    0  501 -0.00000000000E+00  0.00000000000E+00  0.26281976706E+01  0.26282025031E+01  0.50400000000E-02 0.  1.
          2   -1    0    0  501    0  0.00000000000E+00 -0.00000000000E+00 -0.59847323043E+03  0.59847323044E+03  0.25500000000E-02 0. -1.
         24    2    1    2    0    0  0.44408920985E-15  0.00000000000E+00 -0.59584503276E+03  0.60110143294E+03  0.79319793348E+02 0.  0.
         66    2    3    3    0    0  0.34436253276E+01 -0.35940433778E+02 -0.42201653766E+03  0.42356290132E+03  0.19999958553E+01 0.  0.
        -13    1    3    3    0    0 -0.34436253276E+01  0.35940433778E+02 -0.17382849510E+03  0.17753853162E+03  0.10566000000E+00 0.  1.
         13    1    4    4    0    0  0.20419169944E+01 -0.19780274371E+02 -0.23802155099E+03  0.23885078727E+03  0.10566000000E+00 0. -1.
        -13    1    4    4    0    0  0.26039477057E+00 -0.24263576453E+01 -0.32454836927E+02  0.32546622265E+02  0.10566000000E+00 0.  1.
         14    1    4    4    0    0  0.11413135627E+01 -0.13733801761E+02 -0.15154014974E+03  0.15216549179E+03  0.00000000000E+00 0. -1.
<mgrwt>
<rscale>  0 0.79319793E+02</rscale>
<asrwt>0</asrwt>
<pdfrwt beam="1">  1        2 0.92072696E-01 0.79319793E+02</pdfrwt>
<pdfrwt beam="2">  1       -1 0.40433895E-03 0.79319793E+02</pdfrwt>
<totfact> 0.32862542E+05</totfact>
</mgrwt>
</event>
<event>
 8    1  0.2389776E-024  0.7798163E+02  0.7818608E-02  0.1334879E+00
          2   -1    0    0  501    0  0.00000000000E+00  0.00000000000E+00  0.94282343425E+03  0.94282343425E+03  0.25500000000E-02 0. -1.
         -1   -1    0    0    0  501 -0.00000000000E+00 -0.00000000000E+00 -0.16124756362E+01  0.16124835128E+01  0.50400000000E-02 0.  1.
         24    2    1    2    0    0  0.00000000000E+00  0.00000000000E+00  0.94121095861E+03  0.94443591777E+03  0.77981627018E+02 0.  0.
         66    2    3    3    0    0 -0.31529220499E+01  0.19970363999E+02  0.87432560849E+03  0.87456161933E+03  0.20000002950E+01 0.  0.
        -13    1    3    3    0    0  0.31529220499E+01 -0.19970363999E+02  0.66885350128E+02  0.69874298433E+02  0.10566000000E+00 0.  1.
         13    1    4    4    0    0 -0.82189957797E+00  0.77376807958E+01  0.33029503106E+03  0.33038669152E+03  0.10566000000E+00 0. -1.
        -13    1    4    4    0    0 -0.25060537148E+01  0.10899718584E+02  0.48111478674E+03  0.48124477489E+03  0.10566000000E+00 0.  1.
        -14    1    4    4    0    0  0.17503124289E+00  0.13329646196E+01  0.62915790681E+02  0.62930152929E+02  0.00000000000E+00 0.  1.
<mgrwt>
<rscale>  0 0.77981627E+02</rscale>
<asrwt>0</asrwt>
<pdfrwt beam="1">  1        2 0.14504966E+00 0.77981627E+02</pdfrwt>
<pdfrwt beam="2">  1       -1 0.24807395E-03 0.77981627E+02</pdfrwt>
<totfact> 0.37507454E+05</totfact>
</mgrwt>
</event>
<event>
 8    1  0.2389776E-024  0.8060347E+02  0.7818608E-02  0.1327348E+00
          2   -1    0    0  501    0  0.00000000000E+00  0.00000000000E+00  0.36870377430E+03  0.36870377431E+03  0.25500000000E-02 0. -1.
         -1   -1    0    0    0  501 -0.00000000000E+00 -0.00000000000E+00 -0.44052418065E+01  0.44052446896E+01  0.50400000000E-02 0.  1.
         24    2    1    2    0    0  0.00000000000E+00  0.00000000000E+00  0.36429853249E+03  0.37310901900E+03  0.80603469411E+02 0.  0.
         66    2    3    3    0    0 -0.26621159174E+02 -0.29337721190E+02  0.21590841807E+03  0.21952182805E+03  0.19999992539E+01 0.  0.
        -13    1    3    3    0    0  0.26621159174E+02  0.29337721190E+02  0.14839011442E+03  0.15358719095E+03  0.10566000000E+00 0.  1.
         13    1    4    4    0    0 -0.16667607527E+01 -0.17220237227E+01  0.14810644428E+02  0.15003659871E+02  0.10566000000E+00 0. -1.
        -13    1    4    4    0    0 -0.11134752707E+02 -0.13372888883E+02  0.93889942689E+02  0.95489001341E+02  0.10566000000E+00 0.  1.
         14    1    4    4    0    0 -0.13819645715E+02 -0.14242808584E+02  0.10720783095E+03  0.10902916684E+03  0.00000000000E+00 0. -1.
<mgrwt>
<rscale>  0 0.80603469E+02</rscale>
<asrwt>0</asrwt>
<pdfrwt beam="1">  1        2 0.56723648E-01 0.80603469E+02</pdfrwt>
<pdfrwt beam="2">  1       -1 0.67772985E-03 0.80603469E+02</pdfrwt>
<totfact> 0.26918693E+05</totfact>
</mgrwt>
</event>
<event>
 8    1  0.2389776E-024  0.7948829E+02  0.7818608E-02  0.1330510E+00
         -1   -1    0    0    0  501 -0.00000000000E+00  0.00000000000E+00  0.43469161539E+03  0.43469161542E+03  0.50400000000E-02 0.  1.
          2   -1    0    0  501    0  0.00000000000E+00 -0.00000000000E+00 -0.36338328846E+01  0.36338337793E+01  0.25500000000E-02 0. -1.
         24    2    1    2    0    0  0.35527136788E-14  0.00000000000E+00  0.43105778251E+03  0.43832544920E+03  0.79488285657E+02 0.  0.
         66    2    3    3    0    0 -0.30511785672E+02  0.25160606664E+02  0.19535395232E+03  0.19932684686E+03  0.19999996879E+01 0.  0.
        -13    1    3    3    0    0  0.30511785672E+02 -0.25160606664E+02  0.23570383019E+03  0.23899860235E+03  0.10566000000E+00 0.  1.
         13    1    4    4    0    0 -0.11719207348E+02  0.97272562910E+01  0.76715517110E+02  0.78212793488E+02  0.10566000000E+00 0. -1.
        -13    1    4    4    0    0 -0.91896316278E+01  0.74802675459E+01  0.54168911254E+02  0.55449849797E+02  0.10566000000E+00 0.  1.
        -14    1    4    4    0    0 -0.96029466961E+01  0.79530828270E+01  0.64469523954E+02  0.65664203570E+02  0.00000000000E+00 0.  1.
<mgrwt>
<rscale>  0 0.79488286E+02</rscale>
<asrwt>0</asrwt>
<pdfrwt beam="1">  1        2 0.55905106E-03 0.79488286E+02</pdfrwt>
<pdfrwt beam="2">  1       -1 0.66875660E-01 0.79488286E+02</pdfrwt>
<totfact> 0.73720384E+04</totfact>
</mgrwt>
</event>
<event>
 8    1  0.2389776E-024  0.8029490E+02  0.7818608E-02  0.1328217E+00
         -1   -1    0    0    0  501 -0.00000000000E+00  0.00000000000E+00  0.30899101866E+01  0.30899142970E+01  0.50400000000E-02 0.  1.
          2   -1    0    0  501    0  0.00000000000E+00 -0.00000000000E+00 -0.52163869204E+03  0.52163869204E+03  0.25500000000E-02 0. -1.
         24    2    1    2    0    0  0.00000000000E+00  0.00000000000E+00 -0.51854878185E+03  0.52472860634E+03  0.80294901166E+02 0.  0.
         66    2    3    3    0    0 -0.15675319279E+00  0.37557675600E+02 -0.35167102700E+03  0.35367656807E+03  0.20000008586E+01 0.  0.
        -13    1    3    3    0    0  0.15675319279E+00 -0.37557675600E+02 -0.16687775485E+03  0.17105203827E+03  0.10566000000E+00 0.  1.
         13    1    4    4    0    0  0.15007022215E-01  0.26003601955E+02 -0.24749399037E+03  0.24885633200E+03  0.10566000000E+00 0. -1.
        -13    1    4    4    0    0 -0.21549253525E+00  0.10633397206E+02 -0.93327734537E+02  0.93931851738E+02  0.10566000000E+00 0.  1.
        -14    1    4    4    0    0  0.43732320244E-01  0.92067643844E+00 -0.10849302087E+02  0.10888384334E+02  0.00000000000E+00 0.  1.
<mgrwt>
<rscale>  0 0.80294901E+02</rscale>
<asrwt>0</asrwt>
<pdfrwt beam="1">  1        2 0.80252037E-01 0.80294901E+02</pdfrwt>
<pdfrwt beam="2">  1       -1 0.47537153E-03 0.80294901E+02</pdfrwt>
<totfact> 0.30565546E+05</totfact>
</mgrwt>
</event>
<event>
 8    1  0.2389776E-024  0.8287644E+02  0.7818608E-02  0.1321081E+00
         -1   -1    0    0    0  501 -0.00000000000E+00  0.00000000000E+00  0.21278431154E+02  0.21278431750E+02  0.50400000000E-02 0.  1.
          2   -1    0    0  501    0  0.00000000000E+00 -0.00000000000E+00 -0.80697969051E+02  0.80697969091E+02  0.25500000000E-02 0. -1.
         24    2    1    2    0    0 -0.88817841970E-15  0.00000000000E+00 -0.59419537898E+02  0.10197640084E+03  0.82876443243E+02 0.  0.
         66    2    3    3    0    0 -0.77568362087E+01 -0.69354525871E+01 -0.79050824142E+02  0.79757769601E+02  0.20000009274E+01 0.  0.
        -13    1    3    3    0    0  0.77568362087E+01  0.69354525871E+01  0.19631286244E+02  0.22218631240E+02  0.10566000000E+00 0.  1.
         13    1    4    4    0    0 -0.56175938312E+01 -0.50846648451E+01 -0.58244274248E+02  0.58735149815E+02  0.10566000000E+00 0. -1.
        -13    1    4    4    0    0 -0.56265285144E+00 -0.66909277588E+00 -0.99368600064E+01  0.99758014313E+01  0.10566000000E+00 0.  1.
         14    1    4    4    0    0 -0.15765895260E+01 -0.11816949661E+01 -0.10869689888E+02  0.11046818356E+02  0.00000000000E+00 0. -1.
<mgrwt>
<rscale>  0 0.82876443E+02</rscale>
<asrwt>0</asrwt>
<pdfrwt beam="1">  1        2 0.12415072E-01 0.82876443E+02</pdfrwt>
<pdfrwt beam="2">  1       -1 0.32736049E-02 0.82876443E+02</pdfrwt>
<totfact> 0.15210204E+05</totfact>
</mgrwt>
</event>
<event>
 8    1  0.2389776E-024  0.8005874E+02  0.7818608E-02  0.1328885E+00
          2   -1    0    0  501    0  0.00000000000E+00  0.00000000000E+00  0.12443762310E+03  0.12443762313E+03  0.25500000000E-02 0. -1.
         -1   -1    0    0    0  501 -0.00000000000E+00 -0.00000000000E+00 -0.12876736672E+02  0.12876737659E+02  0.50400000000E-02 0.  1.
         24    2    1    2    0    0  0.35527136788E-14  0.00000000000E+00  0.11156088643E+03  0.13731436079E+03  0.80058742792E+02 0.  0.
         66    2    3    3    0    0  0.30916097494E+02  0.17654504712E+02  0.87107447263E+02  0.94123291433E+02  0.20000001518E+01 0.  0.
        -13    1    3    3    0    0 -0.30916097494E+02 -0.17654504712E+02  0.24453439168E+02  0.43191069355E+02  0.10566000000E+00 0.  1.
         13    1    4    4    0    0  0.17465388664E+02  0.88630730343E+01  0.47778885765E+02  0.51637456887E+02  0.10566000000E+00 0. -1.
        -13    1    4    4    0    0  0.10371884256E+02  0.69232853429E+01  0.30475325325E+02  0.32928171535E+02  0.10566000000E+00 0.  1.
         14    1    4    4    0    0  0.30788245741E+01  0.18681463346E+01  0.88532361735E+01  0.95576630109E+01  0.00000000000E+00 0. -1.
<mgrwt>
<rscale>  0 0.80058743E+02</rscale>
<asrwt>0</asrwt>
<pdfrwt beam="1">  1        2 0.19144250E-01 0.80058743E+02</pdfrwt>
<pdfrwt beam="2">  1       -1 0.19810364E-02 0.80058743E+02</pdfrwt>
<totfact> 0.18855284E+05</totfact>
</mgrwt>
</event>
<event>
 8    1  0.2389776E-024  0.8166125E+02  0.7818608E-02  0.1324402E+00
         -1   -1    0    0    0  501 -0.00000000000E+00  0.00000000000E+00  0.37547335539E+02  0.37547335877E+02  0.50400000000E-02 0.  1.
          2   -1    0    0  501    0  0.00000000000E+00 -0.00000000000E+00 -0.44401012841E+02  0.44401012915E+02  0.25500000000E-02 0. -1.
         24    2    1    2    0    0  0.71054273576E-14  0.00000000000E+00 -0.68536773027E+01  0.81948348792E+02  0.81661245258E+02 0.  0.
         66    2    3    3    0    0  0.32286636302E+02  0.81316102654E+01  0.20246105411E+02  0.39018646296E+02  0.20000013207E+01 0.  0.
        -13    1    3    3    0    0 -0.32286636302E+02 -0.81316102654E+01 -0.27099782713E+02  0.42929702495E+02  0.10566000000E+00 0.  1.
         13    1    4    4    0    0  0.11378255530E+02  0.23309945813E+01  0.72624929716E+01  0.13698656972E+02  0.10566000000E+00 0. -1.
        -13    1    4    4    0    0  0.10098454622E+02  0.26071071372E+01  0.69668372165E+01  0.12542877589E+02  0.10566000000E+00 0.  1.
        -14    1    4    4    0    0  0.10809926151E+02  0.31935085470E+01  0.60167752224E+01  0.12777111735E+02  0.00000000000E+00 0.  1.
<mgrwt>
<rscale>  0 0.81661245E+02</rscale>
<asrwt>0</asrwt>
<pdfrwt beam="1">  1        2 0.68309251E-02 0.81661245E+02</pdfrwt>
<pdfrwt beam="2">  1       -1 0.57765132E-02 0.81661245E+02</pdfrwt>
<totfact> 0.13765647E+05</totfact>
</mgrwt>
</event>
<event>
 8    1  0.2389776E-024  0.7825170E+02  0.7818608E-02  0.1334087E+00
         -1   -1    0    0    0  501 -0.00000000000E+00  0.00000000000E+00  0.57746275773E+01  0.57746297767E+01  0.50400000000E-02 0.  1.
          2   -1    0    0  501    0  0.00000000000E+00 -0.00000000000E+00 -0.26509619984E+03  0.26509619985E+03  0.25500000000E-02 0. -1.
         24    2    1    2    0    0  0.00000000000E+00  0.00000000000E+00 -0.25932157226E+03  0.27087082963E+03  0.78251699681E+02 0.  0.
         66    2    3    3    0    0  0.26039801645E+02  0.29000973314E+02 -0.14052585778E+03  0.14584458971E+03  0.19999805343E+01 0.  0.
        -13    1    3    3    0    0 -0.26039801645E+02 -0.29000973314E+02 -0.11879571448E+03  0.12502623991E+03  0.10566000000E+00 0.  1.
         13    1    4    4    0    0  0.15751405435E+02  0.18126324198E+02 -0.86553480174E+02  0.89823084429E+02  0.10566000000E+00 0. -1.
        -13    1    4    4    0    0  0.34284285130E+01  0.42989698930E+01 -0.18772009871E+02  0.19561052703E+02  0.10566000000E+00 0.  1.
         14    1    4    4    0    0  0.68599676968E+01  0.65756792237E+01 -0.35200367732E+02  0.36460452582E+02  0.00000000000E+00 0. -1.
<mgrwt>
<rscale>  0 0.78251700E+02</rscale>
<asrwt>0</asrwt>
<pdfrwt beam="1">  1        2 0.40784021E-01 0.78251700E+02</pdfrwt>
<pdfrwt beam="2">  1       -1 0.88840462E-03 0.78251700E+02</pdfrwt>
<totfact> 0.25832595E+05</totfact>
</mgrwt>
</event>
<event>
 8    1  0.2389776E-024  0.8073085E+02  0.7818608E-02  0.1326990E+00
         -1   -1    0    0    0  501 -0.00000000000E+00  0.00000000000E+00  0.77077684246E+02  0.77077684411E+02  0.50400000000E-02 0.  1.
          2   -1    0    0  501    0  0.00000000000E+00 -0.00000000000E+00 -0.21139292064E+02  0.21139292218E+02  0.25500000000E-02 0. -1.
         24    2    1    2    0    0  0.00000000000E+00  0.00000000000E+00  0.55938392182E+02  0.98216976629E+02  0.80730853942E+02 0.  0.
         66    2    3    3    0    0  0.15402283099E+02 -0.44040591558E+00 -0.17370735820E+02  0.23305938094E+02  0.20000013685E+01 0.  0.
        -13    1    3    3    0    0 -0.15402283099E+02  0.44040591558E+00  0.73309128001E+02  0.74911038535E+02  0.10566000000E+00 0.  1.
         13    1    4    4    0    0  0.23729494926E+01 -0.61628250129E+00 -0.27323477500E+01  0.36725443059E+01  0.10566000000E+00 0. -1.
        -13    1    4    4    0    0  0.52258938940E+01  0.62528747373E+00 -0.61072346042E+01  0.80629045611E+01  0.10566000000E+00 0.  1.
        -14    1    4    4    0    0  0.78034397128E+01 -0.44941088801E+00 -0.85311534654E+01  0.11570489227E+02  0.00000000000E+00 0.  1.
<mgrwt>
<rscale>  0 0.80730854E+02</rscale>
<asrwt>0</asrwt>
<pdfrwt beam="1">  1        2 0.32521987E-02 0.80730854E+02</pdfrwt>
<pdfrwt beam="2">  1       -1 0.11858106E-01 0.80730854E+02</pdfrwt>
<totfact> 0.12232224E+05</totfact>
</mgrwt>
</event>
<event>
 8    1  0.2389776E-024  0.7877649E+02  0.7818608E-02  0.1332560E+00
          2   -1    0    0  501    0  0.00000000000E+00  0.00000000000E+00  0.46439667294E+02  0.46439667364E+02  0.25500000000E-02 0. -1.
         -1   -1    0    0    0  501 -0.00000000000E+00 -0.00000000000E+00 -0.33407512327E+02  0.33407512707E+02  0.50400000000E-02 0.  1.
         24    2    1    2    0    0 -0.27755575616E-16 -0.35527136788E-14  0.13032154967E+02  0.79847180071E+02  0.78776488258E+02 0.  0.
         66    2    3    3    0    0  0.14066217263E+00  0.21660074355E+02  0.39834140096E+02  0.45386533272E+02  0.20000196055E+01 0.  0.
        -13    1    3    3    0    0 -0.14066217263E+00 -0.21660074355E+02 -0.26801985129E+02  0.34460646799E+02  0.10566000000E+00 0.  1.
         13    1    4    4    0    0  0.12230214384E+00  0.85997147188E+01  0.14834067826E+02  0.17147325837E+02  0.10566000000E+00 0. -1.
        -13    1    4    4    0    0  0.46646446006E-01  0.13060203332E+01  0.34701031633E+01  0.37095343375E+01  0.10566000000E+00 0.  1.
         14    1    4    4    0    0 -0.28286417212E-01  0.11754339303E+02  0.21529969106E+02  0.24529673098E+02  0.00000000000E+00 0. -1.
<mgrwt>
<rscale>  0 0.78776488E+02</rscale>
<asrwt>0</asrwt>
<pdfrwt beam="1">  1        2 0.71445642E-02 0.78776488E+02</pdfrwt>
<pdfrwt beam="2">  1       -1 0.51396173E-02 0.78776488E+02</pdfrwt>
<totfact> 0.15342516E+05</totfact>
</mgrwt>
</event>
<event>
 8    1  0.2389776E-024  0.7736688E+02  0.7818608E-02  0.1336694E+00
          2   -1    0    0  501    0  0.00000000000E+00  0.00000000000E+00  0.77204228822E+02  0.77204228864E+02  0.25500000000E-02 0. -1.
         -1   -1    0    0    0  501 -0.00000000000E+00 -0.00000000000E+00 -0.19382465975E+02  0.19382466631E+02  0.50400000000E-02 0.  1.
         24    2    1    2    0    0  0.00000000000E+00 -0.44408920985E-15  0.57821762847E+02  0.96586695495E+02  0.77366875909E+02 0.  0.
         66    2    3    3    0    0 -0.36833550694E+02 -0.31465078477E+01  0.43043003719E+02  0.56774211853E+02  0.19999985028E+01 0.  0.
        -13    1    3    3    0    0  0.36833550694E+02  0.31465078477E+01  0.14778759128E+02  0.39812483642E+02  0.10566000000E+00 0.  1.
         13    1    4    4    0    0 -0.94938691931E+01 -0.88913689368E+00  0.11171773494E+02  0.14688219896E+02  0.10566000000E+00 0. -1.
        -13    1    4    4    0    0 -0.24991773789E+02 -0.25391759645E+01  0.29092076980E+02  0.38436912971E+02  0.10566000000E+00 0.  1.
        -14    1    4    4    0    0 -0.23479077121E+01  0.28180501057E+00  0.27791532439E+01  0.36490789854E+01  0.00000000000E+00 0.  1.
<mgrwt>
<rscale>  0 0.77366876E+02</rscale>
<asrwt>0</asrwt>
<pdfrwt beam="1">  1        2 0.11877574E-01 0.77366876E+02</pdfrwt>
<pdfrwt beam="2">  1       -1 0.29819179E-02 0.77366876E+02</pdfrwt>
<totfact> 0.18105267E+05</totfact>
</mgrwt>
</event>
<event>
 8    1  0.2389776E-024  0.8089127E+02  0.7818608E-02  0.1326541E+00
          2   -1    0    0  501    0  0.00000000000E+00  0.00000000000E+00  0.22841901009E+03  0.22841901010E+03  0.25500000000E-02 0. -1.
         -1   -1    0    0    0  501 -0.00000000000E+00 -0.00000000000E+00 -0.71616151283E+01  0.71616169017E+01  0.50400000000E-02 0.  1.
         24    2    1    2    0    0  0.00000000000E+00  0.44408920985E-15  0.22125739496E+03  0.23558062700E+03  0.80891266495E+02 0.  0.
         66    2    3    3    0    0 -0.31694110849E+02 -0.21914558313E+01  0.18347627855E+03  0.18621724926E+03  0.19999975014E+01 0.  0.
        -13    1    3    3    0    0  0.31694110849E+02  0.21914558313E+01  0.37781116409E+02  0.49363377744E+02  0.10566000000E+00 0.  1.
         13    1    4    4    0    0 -0.88561409980E+01 -0.12694108260E+00  0.55502149971E+02  0.56204511944E+02  0.10566000000E+00 0. -1.
        -13    1    4    4    0    0 -0.99229182371E+01 -0.89378532697E+00  0.54843449309E+02  0.55741171989E+02  0.10566000000E+00 0.  1.
         14    1    4    4    0    0 -0.12915051613E+02 -0.11707294217E+01  0.73130679270E+02  0.74271565326E+02  0.00000000000E+00 0. -1.
<mgrwt>
<rscale>  0 0.80891266E+02</rscale>
<asrwt>0</asrwt>
<pdfrwt beam="1">  1        2 0.35141385E-01 0.80891266E+02</pdfrwt>
<pdfrwt beam="2">  1       -1 0.11017871E-02 0.80891266E+02</pdfrwt>
<totfact> 0.22447489E+05</totfact>
</mgrwt>
</event>
<event>
 8    1  0.2389776E-024  0.8362854E+02  0.7818608E-02  0.1319059E+00
         -1   -1    0    0    0  501 -0.00000000000E+00  0.00000000000E+00  0.55536356131E+01  0.55536379001E+01  0.50400000000E-02 0.  1.
          2   -1    0    0  501    0  0.00000000000E+00 -0.00000000000E+00 -0.31482669657E+03  0.31482669658E+03  0.25500000000E-02 0. -1.
         24    2    1    2    0    0  0.00000000000E+00 -0.35527136788E-14 -0.30927306096E+03  0.32038033448E+03  0.83628538718E+02 0.  0.
         66    2    3    3    0    0 -0.80345115167E+01 -0.30500519020E+02 -0.25975215390E+03  0.26166775972E+03  0.19999956355E+01 0.  0.
        -13    1    3    3    0    0  0.80345115167E+01  0.30500519020E+02 -0.49520907054E+02  0.58712574763E+02  0.10566000000E+00 0.  1.
         13    1    4    4    0    0 -0.13847047727E+01 -0.83200215008E+01 -0.66531427532E+02  0.67064015527E+02  0.10566000000E+00 0. -1.
        -13    1    4    4    0    0 -0.14041009752E+01 -0.51643721457E+01 -0.44185456298E+02  0.44508515494E+02  0.10566000000E+00 0. -1.
         14    1    4    4    0    0 -0.52457057688E+01 -0.17016125374E+02 -0.14903527007E+03  0.15009522870E+03  0.00000000000E+00 0. -1.
<mgrwt>
<rscale>  0 0.83628539E+02</rscale>
<asrwt>0</asrwt>
<pdfrwt beam="1">  1        2 0.48434862E-01 0.83628539E+02</pdfrwt>
<pdfrwt beam="2">  1       -1 0.85440590E-03 0.83628539E+02</pdfrwt>
<totfact> 0.23090725E+05</totfact>
</mgrwt>
</event>
<event>
 8    1  0.2389776E-024  0.7919344E+02  0.7818608E-02  0.1331356E+00
         -1   -1    0    0    0  501 -0.00000000000E+00  0.00000000000E+00  0.93890351456E+01  0.93890364984E+01  0.50400000000E-02 0.  1.
          2   -1    0    0  501    0  0.00000000000E+00 -0.00000000000E+00 -0.16699267217E+03  0.16699267219E+03  0.25500000000E-02 0. -1.
         24    2    1    2    0    0 -0.35527136788E-14  0.00000000000E+00 -0.15760363702E+03  0.17638170868E+03  0.79193438846E+02 0.  0.
         66    2    3    3    0    0 -0.20306065708E+02  0.52505910737E+01 -0.15358824836E+03  0.15502662682E+03  0.19999946451E+01 0.  0.
        -13    1    3    3    0    0  0.20306065708E+02 -0.52505910737E+01 -0.40153886599E+01  0.21355081861E+02  0.10566000000E+00 0.  1.
         13    1    4    4    0    0 -0.45437309794E+01  0.16026590544E+01 -0.39112034353E+02  0.39407821591E+02  0.10566000000E+00 0. -1.
        -13    1    4    4    0    0 -0.12007788560E+01  0.10968128112E+00 -0.10130513876E+02  0.10202567093E+02  0.10566000000E+00 0.  1.
        -14    1    4    4    0    0 -0.14561555872E+02  0.35382507381E+01 -0.10434570013E+03  0.10541623814E+03  0.00000000000E+00 0.  1.
<mgrwt>
<rscale>  0 0.79193439E+02</rscale>
<asrwt>0</asrwt>
<pdfrwt beam="1">  1        2 0.25691178E-01 0.79193439E+02</pdfrwt>
<pdfrwt beam="2">  1       -1 0.14444672E-02 0.79193439E+02</pdfrwt>
<totfact> 0.21309589E+05</totfact>
</mgrwt>
</event>
<event>
 8    1  0.2389776E-024  0.8116776E+02  0.7818608E-02  0.1325770E+00
         -1   -1    0    0    0  501 -0.00000000000E+00  0.00000000000E+00  0.24051386258E+03  0.24051386263E+03  0.50400000000E-02 0.  1.
          2   -1    0    0  501    0  0.00000000000E+00 -0.00000000000E+00 -0.68480520468E+01  0.68480525216E+01  0.25500000000E-02 0. -1.
         24    2    1    2    0    0  0.00000000000E+00  0.00000000000E+00  0.23366581053E+03  0.24736191515E+03  0.81167764887E+02 0.  0.
         66    2    3    3    0    0  0.25464416426E+02  0.26744467835E+02  0.65786370117E+02  0.75468864852E+02  0.20000012999E+01 0.  0.
        -13    1    3    3    0    0 -0.25464416426E+02 -0.26744467835E+02  0.16787944042E+03  0.17189305030E+03  0.10566000000E+00 0.  1.
         13    1    4    4    0    0  0.42249110358E+01  0.46048045728E+01  0.10141429814E+02  0.11912760432E+02  0.10566000000E+00 0. -1.
        -13    1    4    4    0    0  0.80329297191E+01  0.92785349300E+01  0.22514824190E+02  0.25642691799E+02  0.10566000000E+00 0.  1.
         14    1    4    4    0    0  0.13206575671E+02  0.12861128332E+02  0.33130116113E+02  0.37913412621E+02  0.00000000000E+00 0. -1.
<mgrwt>
<rscale>  0 0.81167765E+02</rscale>
<asrwt>0</asrwt>
<pdfrwt beam="1">  1        2 0.10535466E-02 0.81167765E+02</pdfrwt>
<pdfrwt beam="2">  1       -1 0.37002131E-01 0.81167765E+02</pdfrwt>
<totfact> 0.90448509E+04</totfact>
</mgrwt>
</event>
<event>
 8    1  0.2389776E-024  0.8018493E+02  0.7818608E-02  0.1328527E+00
         -1   -1    0    0    0  501 -0.00000000000E+00  0.00000000000E+00  0.46329080826E+02  0.46329081100E+02  0.50400000000E-02 0.  1.
          2   -1    0    0  501    0  0.00000000000E+00 -0.00000000000E+00 -0.34695392167E+02  0.34695392261E+02  0.25500000000E-02 0. -1.
         24    2    1    2    0    0 -0.17763568394E-14  0.00000000000E+00  0.11633688659E+02  0.81024473361E+02  0.80184927334E+02 0.  0.
         66    2    3    3    0    0  0.15475738926E+02 -0.15405258749E+02 -0.28125631632E+02  0.35663309284E+02  0.19999955017E+01 0.  0.
        -13    1    3    3    0    0 -0.15475738926E+02  0.15405258749E+02  0.39759320290E+02  0.45361164077E+02  0.10566000000E+00 0.  1.
         13    1    4    4    0    0  0.11035683698E+01 -0.16750869573E+01 -0.28191424740E+01  0.34615759107E+01  0.10566000000E+00 0. -1.
        -13    1    4    4    0    0  0.31450147136E+01 -0.36583980890E+01 -0.58339032279E+01  0.75710359287E+01  0.10566000000E+00 0.  1.
        -14    1    4    4    0    0  0.11227155843E+02 -0.10071773702E+02 -0.19472585930E+02  0.24630697445E+02  0.00000000000E+00 0.  1.
<mgrwt>
<rscale>  0 0.80184927E+02</rscale>
<asrwt>0</asrwt>
<pdfrwt beam="1">  1        2 0.53377526E-02 0.80184927E+02</pdfrwt>
<pdfrwt beam="2">  1       -1 0.71275510E-02 0.80184927E+02</pdfrwt>
<totfact> 0.13760987E+05</totfact>
</mgrwt>
</event>
<event>
 8    1  0.2389776E-024  0.7854220E+02  0.7818608E-02  0.1333240E+00
         -1   -1    0    0    0  501 -0.00000000000E+00  0.00000000000E+00  0.15178784643E+01  0.15178868318E+01  0.50400000000E-02 0.  1.
          2   -1    0    0  501    0  0.00000000000E+00 -0.00000000000E+00 -0.10160333668E+04  0.10160333668E+04  0.25500000000E-02 0. -1.
         24    2    1    2    0    0  0.00000000000E+00  0.00000000000E+00 -0.10145154884E+04  0.10175512537E+04  0.78542203314E+02 0.  0.
         66    2    3    3    0    0 -0.13394266005E+02  0.13421839749E+02 -0.95274567454E+03  0.95293644725E+03  0.19999995369E+01 0.  0.
        -13    1    3    3    0    0  0.13394266005E+02 -0.13421839749E+02 -0.61769813836E+02  0.64614806426E+02  0.10566000000E+00 0.  1.
         13    1    4    4    0    0 -0.53829181647E+01  0.62261863480E+01 -0.39878870263E+03  0.39887364129E+03  0.10566000000E+00 0. -1.
        -13    1    4    4    0    0 -0.51314849551E+01  0.49994736297E+01 -0.34417222480E+03  0.34424679862E+03  0.10566000000E+00 0.  1.
        -14    1    4    4    0    0 -0.28798628848E+01  0.21961797713E+01 -0.20978474710E+03  0.20981600733E+03  0.00000000000E+00 0.  1.
<mgrwt>
<rscale>  0 0.78542203E+02</rscale>
<asrwt>0</asrwt>
<pdfrwt beam="1">  1        2 0.15631228E+00 0.78542203E+02</pdfrwt>
<pdfrwt beam="2">  1       -1 0.23352122E-03 0.78542203E+02</pdfrwt>
<totfact> 0.36973687E+05</totfact>
</mgrwt>
</event>
<event>
 8    1  0.2389776E-024  0.7940566E+02  0.7818608E-02  0.1330747E+00
          2   -1    0    0  501    0  0.00000000000E+00  0.00000000000E+00  0.21308293254E+02  0.21308293406E+02  0.25500000000E-02 0. -1.
         -1   -1    0    0    0  501 -0.00000000000E+00 -0.00000000000E+00 -0.73976586697E+02  0.73976586868E+02  0.50400000000E-02 0.  1.
         24    2    1    2    0    0  0.00000000000E+00  0.00000000000E+00 -0.52668293443E+02  0.95284880275E+02  0.79405662738E+02 0.  0.
         66    2    3    3    0    0  0.70849271254E+01 -0.37994914335E+02 -0.15584396804E+02  0.41721494818E+02  0.19999995841E+01 0.  0.
        -13    1    3    3    0    0 -0.70849271254E+01  0.37994914335E+02 -0.37083896638E+02  0.53563385457E+02  0.10566000000E+00 0.  1.
         13    1    4    4    0    0  0.90181348329E+00 -0.34481646078E+01 -0.11095629858E+01  0.37343541311E+01  0.10566000000E+00 0. -1.
        -13    1    4    4    0    0  0.22180868696E+01 -0.13701540102E+02 -0.50692150369E+01  0.14777016466E+02  0.10566000000E+00 0.  1.
        -14    1    4    4    0    0  0.39650267725E+01 -0.20845209626E+02 -0.94056187818E+01  0.23210124220E+02  0.00000000000E+00 0.  1.
<mgrwt>
<rscale>  0 0.79405663E+02</rscale>
<asrwt>0</asrwt>
<pdfrwt beam="1">  1        2 0.32781990E-02 0.79405663E+02</pdfrwt>
<pdfrwt beam="2">  1       -1 0.11381013E-01 0.79405663E+02</pdfrwt>
<totfact> 0.12845929E+05</totfact>
</mgrwt>
</event>
<event>
 8    1  0.2389776E-024  0.7372183E+02  0.7818608E-02  0.1347875E+00
          2   -1    0    0  501    0  0.00000000000E+00  0.00000000000E+00  0.45124231315E+02  0.45124231387E+02  0.25500000000E-02 0. -1.
         -1   -1    0    0    0  501 -0.00000000000E+00 -0.00000000000E+00 -0.30110804216E+02  0.30110804638E+02  0.50400000000E-02 0.  1.
         24    2    1    2    0    0  0.00000000000E+00  0.00000000000E+00  0.15013427099E+02  0.75235036025E+02  0.73721826161E+02 0.  0.
         66    2    3    3    0    0 -0.32484718456E+02 -0.11122841977E+02  0.21118077245E+02  0.40360224710E+02  0.20000013251E+01 0.  0.
        -13    1    3    3    0    0  0.32484718456E+02  0.11122841977E+02 -0.61046501463E+01  0.34874811315E+02  0.10566000000E+00 0.  1.
         13    1    4    4    0    0 -0.33264527888E+01 -0.14677914318E+01  0.16822846403E+01  0.40076109454E+01  0.10566000000E+00 0. -1.
        -13    1    4    4    0    0 -0.96927149071E+01 -0.34549540383E+01  0.66488057635E+01  0.12251661593E+02  0.10566000000E+00 0.  1.
         14    1    4    4    0    0 -0.19465550760E+02 -0.62000965071E+01  0.12786986841E+02  0.24100952172E+02  0.00000000000E+00 0. -1.
<mgrwt>
<rscale>  0 0.73721826E+02</rscale>
<asrwt>0</asrwt>
<pdfrwt beam="1">  1        2 0.69421894E-02 0.73721826E+02</pdfrwt>
<pdfrwt beam="2">  1       -1 0.46324315E-02 0.73721826E+02</pdfrwt>
<totfact> 0.18275120E+05</totfact>
</mgrwt>
</event>
<event>
 8    1  0.2389776E-024  0.8039235E+02  0.7818608E-02  0.1327942E+00
          2   -1    0    0  501    0  0.00000000000E+00  0.00000000000E+00  0.61511677522E+03  0.61511677522E+03  0.25500000000E-02 0. -1.
         -1   -1    0    0    0  501 -0.00000000000E+00 -0.00000000000E+00 -0.26267061411E+01  0.26267109763E+01  0.50400000000E-02 0.  1.
         24    2    1    2    0    0  0.00000000000E+00  0.00000000000E+00  0.61249006908E+03  0.61774348620E+03  0.80392350533E+02 0.  0.
         66    2    3    3    0    0 -0.26909277973E+01 -0.32975729260E+02  0.48150489038E+03  0.48264438178E+03  0.19999978469E+01 0.  0.
        -13    1    3    3    0    0  0.26909277973E+01  0.32975729260E+02  0.13098517870E+03  0.13509910442E+03  0.10566000000E+00 0.  1.
         13    1    4    4    0    0 -0.59801535178E+00 -0.11761132357E+02  0.16038533829E+03  0.16081713142E+03  0.10566000000E+00 0.  1.
        -13    1    4    4    0    0 -0.13208587173E+01 -0.15308680241E+02  0.22717944759E+03  0.22769851323E+03  0.10566000000E+00 0. -1.
        -14    1    4    4    0    0 -0.77205372820E+00 -0.59059166624E+01  0.93940104507E+02  0.94128737128E+02  0.00000000000E+00 0.  1.
<mgrwt>
<rscale>  0 0.80392351E+02</rscale>
<asrwt>0</asrwt>
<pdfrwt beam="1">  1        2 0.94633334E-01 0.80392351E+02</pdfrwt>
<pdfrwt beam="2">  1       -1 0.40410908E-03 0.80392351E+02</pdfrwt>
<totfact> 0.31974518E+05</totfact>
</mgrwt>
</event>
<event>
 8    1  0.2389776E-024  0.7944937E+02  0.7818608E-02  0.1330621E+00
          2   -1    0    0  501    0  0.00000000000E+00  0.00000000000E+00  0.11752202301E+02  0.11752202578E+02  0.25500000000E-02 0. -1.
         -1   -1    0    0    0  501 -0.00000000000E+00 -0.00000000000E+00 -0.13427702011E+03  0.13427702021E+03  0.50400000000E-02 0.  1.
         24    2    1    2    0    0  0.00000000000E+00  0.00000000000E+00 -0.12252481781E+03  0.14602922278E+03  0.79449373362E+02 0.  0.
         66    2    3    3    0    0 -0.31116062166E+02  0.24647202933E+02 -0.60210879653E+02  0.72145990655E+02  0.20000004681E+01 0.  0.
        -13    1    3    3    0    0  0.31116062166E+02 -0.24647202933E+02 -0.62313938157E+02  0.73883232129E+02  0.10566000000E+00 0.  1.
         13    1    4    4    0    0 -0.25890903637E+01  0.18151435996E+01 -0.43151908223E+01  0.53507168741E+01  0.10566000000E+00 0. -1.
        -13    1    4    4    0    0 -0.63247919505E+01  0.54307077101E+01 -0.13761049780E+02  0.16089538046E+02  0.10566000000E+00 0.  1.
         14    1    4    4    0    0 -0.22202179852E+02  0.17401351624E+02 -0.42134639050E+02  0.50705735735E+02  0.00000000000E+00 0. -1.
<mgrwt>
<rscale>  0 0.79449373E+02</rscale>
<asrwt>0</asrwt>
<pdfrwt beam="1">  1        2 0.18080312E-02 0.79449373E+02</pdfrwt>
<pdfrwt beam="2">  1       -1 0.20658002E-01 0.79449373E+02</pdfrwt>
<totfact> 0.11282061E+05</totfact>
</mgrwt>
</event>
<event>
 8    1  0.2389776E-024  0.8012815E+02  0.7818608E-02  0.1328688E+00
          2   -1    0    0  501    0  0.00000000000E+00  0.00000000000E+00  0.48960631334E+03  0.48960631335E+03  0.25500000000E-02 0. -1.
         -1   -1    0    0    0  501 -0.00000000000E+00 -0.00000000000E+00 -0.32784079645E+01  0.32784118385E+01  0.50400000000E-02 0.  1.
         24    2    1    2    0    0 -0.35527136788E-14  0.00000000000E+00  0.48632790538E+03  0.49288472519E+03  0.80128152193E+02 0.  0.
         66    2    3    3    0    0 -0.30707721140E+02 -0.22052632905E+02  0.32441825742E+03  0.32661979196E+03  0.19999990769E+01 0.  0.
        -13    1    3    3    0    0  0.30707721140E+02  0.22052632905E+02  0.16190964796E+03  0.16626493323E+03  0.10566000000E+00 0.  1.
         13    1    4    4    0    0 -0.62359371001E+00 -0.57235150758E+00  0.73564014909E+01  0.74056912098E+01  0.10566000000E+00 0. -1.
        -13    1    4    4    0    0 -0.50364423225E+01 -0.43776792010E+01  0.58528661792E+02  0.58907938698E+02  0.10566000000E+00 0. -1.
        -14    1    4    4    0    0 -0.25047685107E+02 -0.17102602196E+02  0.25853319414E+03  0.26030616205E+03  0.00000000000E+00 0.  1.
<mgrwt>
<rscale>  0 0.80128152E+02</rscale>
<asrwt>0</asrwt>
<pdfrwt beam="1">  1        2 0.75324076E-01 0.80128152E+02</pdfrwt>
<pdfrwt beam="2">  1       -1 0.50437057E-03 0.80128152E+02</pdfrwt>
<totfact> 0.30121047E+05</totfact>
</mgrwt>
</event>
<event>
 8    1  0.2389776E-024  0.7936540E+02  0.7818608E-02  0.1330862E+00
          2   -1    0    0  501    0  0.00000000000E+00  0.00000000000E+00  0.89184148833E+02  0.89184148870E+02  0.25500000000E-02 0. -1.
         -1   -1    0    0    0  501 -0.00000000000E+00 -0.00000000000E+00 -0.17656909949E+02  0.17656910668E+02  0.50400000000E-02 0.  1.
         24    2    1    2    0    0  0.00000000000E+00  0.00000000000E+00  0.71527238884E+02  0.10684105954E+03  0.79365396117E+02 0.  0.
         66    2    3    3    0    0 -0.37583535373E+02 -0.20277489071E+01  0.52604385151E+02  0.64713640270E+02  0.20000007759E+01 0.  0.
        -13    1    3    3    0    0  0.37583535373E+02  0.20277489071E+01  0.18922853733E+02  0.42127419268E+02  0.10566000000E+00 0.  1.
         13    1    4    4    0    0 -0.20695906126E+02 -0.14510630202E+01  0.29233712864E+02  0.35847555651E+02  0.10566000000E+00 0. -1.
        -13    1    4    4    0    0 -0.11676062320E+01  0.25566262159E+00  0.15780957166E+01  0.19824776961E+01  0.10566000000E+00 0.  1.
        -14    1    4    4    0    0 -0.15720023015E+02 -0.83234850855E+00  0.21792576571E+02  0.26883606923E+02  0.00000000000E+00 0.  1.
<mgrwt>
<rscale>  0 0.79365396E+02</rscale>
<asrwt>0</asrwt>
<pdfrwt beam="1">  1        2 0.13720638E-01 0.79365396E+02</pdfrwt>
<pdfrwt beam="2">  1       -1 0.27164478E-02 0.79365396E+02</pdfrwt>
<totfact> 0.17550067E+05</totfact>
</mgrwt>
</event>
<event>
 8    1  0.2389776E-024  0.8035926E+02  0.7818608E-02  0.1328035E+00
          2   -1    0    0  501    0  0.00000000000E+00  0.00000000000E+00  0.16043122466E+04  0.16043122466E+04  0.25500000000E-02 0. -1.
         -1   -1    0    0    0  501 -0.00000000000E+00 -0.00000000000E+00 -0.10062833700E+01  0.10062959914E+01  0.50400000000E-02 0.  1.
         24    2    1    2    0    0  0.00000000000E+00  0.17763568394E-14  0.16033059633E+04  0.16053185426E+04  0.80359264963E+02 0.  0.
         66    2    3    3    0    0 -0.48897585231E+01  0.11658575439E+02  0.15635136193E+04  0.15635660107E+04  0.19999941657E+01 0.  0.
        -13    1    3    3    0    0  0.48897585231E+01 -0.11658575439E+02  0.39792343952E+02  0.41752531911E+02  0.10566000000E+00 0.  1.
         13    1    4    4    0    0 -0.10289430260E+01  0.19974203668E+01  0.22972802607E+03  0.22973903790E+03  0.10566000000E+00 0. -1.
        -13    1    4    4    0    0  0.15748727778E-01  0.96682106544E+00  0.10490399883E+03  0.10490850836E+03  0.10566000000E+00 0. -1.
        -14    1    4    4    0    0 -0.38765642248E+01  0.86943340064E+01  0.12288815944E+04  0.12289184644E+04  0.00000000000E+00 0.  1.
<mgrwt>
<rscale>  0 0.80359265E+02</rscale>
<asrwt>0</asrwt>
<pdfrwt beam="1">  1        2 0.24681847E+00 0.80359265E+02</pdfrwt>
<pdfrwt beam="2">  1       -1 0.15481304E-03 0.80359265E+02</pdfrwt>
<totfact> 0.31935794E+05</totfact>
</mgrwt>
</event>
<event>
 8    1  0.2389776E-024  0.7977062E+02  0.7818608E-02  0.1329704E+00
          2   -1    0    0  501    0  0.00000000000E+00  0.00000000000E+00  0.18435295493E+02  0.18435295669E+02  0.25500000000E-02 0. -1.
         -1   -1    0    0    0  501 -0.00000000000E+00 -0.00000000000E+00 -0.86293062814E+02  0.86293062961E+02  0.50400000000E-02 0.  1.
         24    2    1    2    0    0  0.00000000000E+00  0.00000000000E+00 -0.67857767321E+02  0.10472835863E+03  0.79770624391E+02 0.  0.
         66    2    3    3    0    0  0.29881287583E+02  0.16480566414E+02 -0.69059243563E+01  0.34873947590E+02  0.20000030849E+01 0.  0.
        -13    1    3    3    0    0 -0.29881287583E+02 -0.16480566414E+02 -0.60951842965E+02  0.69854411040E+02  0.10566000000E+00 0.  1.
         13    1    4    4    0    0  0.70022816596E+01  0.43775550147E+01 -0.16400420834E+01  0.84199666519E+01  0.10566000000E+00 0. -1.
        -13    1    4    4    0    0  0.13490883393E+02  0.79368619413E+01 -0.30774950181E+01  0.15952424638E+02  0.10566000000E+00 0.  1.
        -14    1    4    4    0    0  0.93881225304E+01  0.41661494581E+01 -0.21883872547E+01  0.10501556300E+02  0.00000000000E+00 0.  1.
<mgrwt>
<rscale>  0 0.79770624E+02</rscale>
<asrwt>0</asrwt>
<pdfrwt beam="1">  1        2 0.28361994E-02 0.79770624E+02</pdfrwt>
<pdfrwt beam="2">  1       -1 0.13275856E-01 0.79770624E+02</pdfrwt>
<totfact> 0.12312665E+05</totfact>
</mgrwt>
</event>
<event>
 8    1  0.2389776E-024  0.8171895E+02  0.7818608E-02  0.1324243E+00
         -1   -1    0    0    0  501 -0.00000000000E+00  0.00000000000E+00  0.42536318634E+01  0.42536348493E+01  0.50400000000E-02 0.  1.
          2   -1    0    0  501    0  0.00000000000E+00 -0.00000000000E+00 -0.39248724408E+03  0.39248724408E+03  0.25500000000E-02 0. -1.
         24    2    1    2    0    0  0.00000000000E+00 -0.17763568394E-14 -0.38823361221E+03  0.39674087893E+03  0.81718953526E+02 0.  0.
         66    2    3    3    0    0  0.32114288016E+02 -0.14286880494E+02 -0.29514662365E+03  0.29723891386E+03  0.20000034894E+01 0.  0.
        -13    1    3    3    0    0 -0.32114288016E+02  0.14286880494E+02 -0.93086988562E+02  0.99501965069E+02  0.10566000000E+00 0.  1.
         13    1    4    4    0    0  0.17930343579E+02 -0.84785345501E+01 -0.17044535406E+03  0.17159549135E+03  0.10566000000E+00 0. -1.
        -13    1    4    4    0    0  0.42522490228E+01 -0.17818648026E+01 -0.41168668591E+02  0.41426164456E+02  0.10566000000E+00 0. -1.
         14    1    4    4    0    0  0.99316954142E+01 -0.40264811413E+01 -0.83532601002E+02  0.84217258055E+02  0.00000000000E+00 0. -1.
<mgrwt>
<rscale>  0 0.81718954E+02</rscale>
<asrwt>0</asrwt>
<pdfrwt beam="1">  1        2 0.60382625E-01 0.81718954E+02</pdfrwt>
<pdfrwt beam="2">  1       -1 0.65440544E-03 0.81718954E+02</pdfrwt>
<totfact> 0.26548506E+05</totfact>
</mgrwt>
</event>
<event>
 8    1  0.2389776E-024  0.7996745E+02  0.7818608E-02  0.1329144E+00
          2   -1    0    0  501    0  0.00000000000E+00  0.00000000000E+00  0.10153778222E+04  0.10153778222E+04  0.25500000000E-02 0. -1.
         -1   -1    0    0    0  501 -0.00000000000E+00 -0.00000000000E+00 -0.15744821620E+01  0.15744902286E+01  0.50400000000E-02 0.  1.
         24    2    1    2    0    0  0.00000000000E+00  0.00000000000E+00  0.10138033401E+04  0.10169523125E+04  0.79967452682E+02 0.  0.
         66    2    3    3    0    0 -0.21557095426E+02  0.16757130418E+02  0.87823925446E+03  0.87866586246E+03  0.19999992873E+01 0.  0.
        -13    1    3    3    0    0  0.21557095426E+02 -0.16757130418E+02  0.13556408561E+03  0.13828645000E+03  0.10566000000E+00 0.  1.
         13    1    4    4    0    0 -0.20472616493E+01  0.13191306276E+01  0.77353096574E+02  0.77391498884E+02  0.10566000000E+00 0.  1.
        -13    1    4    4    0    0 -0.12741180134E+02  0.90397387844E+01  0.49614842665E+03  0.49639432610E+03  0.10566000000E+00 0. -1.
        -14    1    4    4    0    0 -0.67686536424E+01  0.63982610056E+01  0.30473773123E+03  0.30488003748E+03  0.00000000000E+00 0.  1.
<mgrwt>
<rscale>  0 0.79967453E+02</rscale>
<asrwt>0</asrwt>
<pdfrwt beam="1">  1        2 0.15621241E+00 0.79967453E+02</pdfrwt>
<pdfrwt beam="2">  1       -1 0.24222796E-03 0.79967453E+02</pdfrwt>
<totfact> 0.35288031E+05</totfact>
</mgrwt>
</event>
<event>
 8    1  0.2389776E-024  0.7974803E+02  0.7818608E-02  0.1329768E+00
         -1   -1    0    0    0  501 -0.00000000000E+00  0.00000000000E+00  0.22530324956E+01  0.22530381328E+01  0.50400000000E-02 0.  1.
          2   -1    0    0  501    0  0.00000000000E+00 -0.00000000000E+00 -0.70568662184E+03  0.70568662184E+03  0.25500000000E-02 0. -1.
         24    2    1    2    0    0 -0.35527136788E-14 -0.22204460493E-15 -0.70343358934E+03  0.70793965998E+03  0.79748025374E+02 0.  0.
         66    2    3    3    0    0  0.17430669562E+02  0.14567522594E+01 -0.66978371639E+03  0.67001505738E+03  0.20000005299E+01 0.  0.
        -13    1    3    3    0    0 -0.17430669562E+02 -0.14567522594E+01 -0.33649872955E+02  0.37924602601E+02  0.10566000000E+00 0.  1.
         13    1    4    4    0    0  0.48192203290E+01  0.15533132182E+00 -0.20555699101E+03  0.20561356164E+03  0.10566000000E+00 0. -1.
        -13    1    4    4    0    0  0.93704938924E+01  0.14135928333E+01 -0.35674482398E+03  0.35687068386E+03  0.10566000000E+00 0. -1.
         14    1    4    4    0    0  0.32409553406E+01 -0.11217189574E+00 -0.10748190140E+03  0.10753081188E+03  0.00000000000E+00 0. -1.
<mgrwt>
<rscale>  0 0.79748025E+02</rscale>
<asrwt>0</asrwt>
<pdfrwt beam="1">  1        2 0.10856700E+00 0.79748025E+02</pdfrwt>
<pdfrwt beam="2">  1       -1 0.34662138E-03 0.79748025E+02</pdfrwt>
<totfact> 0.33789177E+05</totfact>
</mgrwt>
</event>
<event>
 8    1  0.2389776E-024  0.8052122E+02  0.7818608E-02  0.1327579E+00
         -1   -1    0    0    0  501 -0.00000000000E+00  0.00000000000E+00  0.14841375532E+02  0.14841376388E+02  0.50400000000E-02 0.  1.
          2   -1    0    0  501    0  0.00000000000E+00 -0.00000000000E+00 -0.10921606829E+03  0.10921606832E+03  0.25500000000E-02 0. -1.
         24    2    1    2    0    0  0.00000000000E+00  0.00000000000E+00 -0.94374692759E+02  0.12405744471E+03  0.80521220521E+02 0.  0.
         66    2    3    3    0    0  0.36357497552E+02  0.13525120269E+01 -0.73688061493E+02  0.82204788948E+02  0.20000005818E+01 0.  0.
        -13    1    3    3    0    0 -0.36357497552E+02 -0.13525120269E+01 -0.20686631266E+02  0.41852655761E+02  0.10566000000E+00 0.  1.
         13    1    4    4    0    0  0.27315837011E+02  0.15173016221E+01 -0.54649972834E+02  0.61115365094E+02  0.10566000000E+00 0. -1.
        -13    1    4    4    0    0  0.52719861359E+01 -0.42453136119E+00 -0.10793884076E+02  0.12020530861E+02  0.10566000000E+00 0.  1.
         14    1    4    4    0    0  0.37696744051E+01  0.25974176596E+00 -0.82442045824E+01  0.90688929921E+01  0.00000000000E+00 0. -1.
<mgrwt>
<rscale>  0 0.80521221E+02</rscale>
<asrwt>0</asrwt>
<pdfrwt beam="1">  1        2 0.16802472E-01 0.80521221E+02</pdfrwt>
<pdfrwt beam="2">  1       -1 0.22832887E-02 0.80521221E+02</pdfrwt>
<totfact> 0.17863199E+05</totfact>
</mgrwt>
</event>
<event>
 8    1  0.2389776E-024  0.8031788E+02  0.7818608E-02  0.1328152E+00
          2   -1    0    0  501    0  0.00000000000E+00  0.00000000000E+00  0.41445883119E+03  0.41445883120E+03  0.25500000000E-02 0. -1.
         -1   -1    0    0    0  501 -0.00000000000E+00 -0.00000000000E+00 -0.38911942620E+01  0.38911975260E+01  0.50400000000E-02 0.  1.
         24    2    1    2    0    0  0.00000000000E+00  0.22204460493E-15  0.41056763693E+03  0.41835002873E+03  0.80317881202E+02 0.  0.
         66    2    3    3    0    0 -0.14396459700E+02  0.12478265002E+01  0.40043528253E+03  0.40070092414E+03  0.19999979553E+01 0.  0.
        -13    1    3    3    0    0  0.14396459700E+02 -0.12478265002E+01  0.10132354402E+02  0.17649104584E+02  0.10566000000E+00 0.  1.
         13    1    4    4    0    0 -0.75688259297E+01  0.98881935004E+00  0.23327698492E+03  0.23340185892E+03  0.10566000000E+00 0. -1.
        -13    1    4    4    0    0 -0.33598160686E+01  0.27317907857E+00  0.88982133492E+02  0.89046023132E+02  0.10566000000E+00 0.  1.
        -14    1    4    4    0    0 -0.34678177016E+01 -0.14171928412E-01  0.78176164118E+02  0.78253042092E+02  0.00000000000E+00 0.  1.
<mgrwt>
<rscale>  0 0.80317881E+02</rscale>
<asrwt>0</asrwt>
<pdfrwt beam="1">  1        2 0.63762912E-01 0.80317881E+02</pdfrwt>
<pdfrwt beam="2">  1       -1 0.59864538E-03 0.80317881E+02</pdfrwt>
<totfact> 0.28309937E+05</totfact>
</mgrwt>
</event>
<event>
 8    1  0.2389776E-024  0.8148060E+02  0.7818608E-02  0.1324901E+00
         -1   -1    0    0    0  501 -0.00000000000E+00  0.00000000000E+00  0.63537252902E+01  0.63537272891E+01  0.50400000000E-02 0.  1.
          2   -1    0    0  501    0  0.00000000000E+00 -0.00000000000E+00 -0.26122811217E+03  0.26122811218E+03  0.25500000000E-02 0. -1.
         24    2    1    2    0    0  0.00000000000E+00  0.00000000000E+00 -0.25487438688E+03  0.26758183947E+03  0.81480597247E+02 0.  0.
         66    2    3    3    0    0 -0.21906742342E+02 -0.23141668414E+02 -0.21074373460E+03  0.21314868954E+03  0.20000003522E+01 0.  0.
        -13    1    3    3    0    0  0.21906742342E+02  0.23141668414E+02 -0.44130652279E+02  0.54433149933E+02  0.10566000000E+00 0.  1.
         13    1    4    4    0    0 -0.87155610337E+01 -0.96801491361E+01 -0.88841364464E+02  0.89791232842E+02  0.10566000000E+00 0. -1.
        -13    1    4    4    0    0 -0.10055889392E+01 -0.10330532316E+01 -0.11711136945E+02  0.11800012740E+02  0.10566000000E+00 0.  1.
         14    1    4    4    0    0 -0.12185592370E+02 -0.12428466046E+02 -0.11019123319E+03  0.11155744396E+03  0.00000000000E+00 0. -1.
<mgrwt>
<rscale>  0 0.81480597E+02</rscale>
<asrwt>0</asrwt>
<pdfrwt beam="1">  1        2 0.40188932E-01 0.81480597E+02</pdfrwt>
<pdfrwt beam="2">  1       -1 0.97749656E-03 0.81480597E+02</pdfrwt>
<totfact> 0.23106936E+05</totfact>
</mgrwt>
</event>
<event>
 8    1  0.2389776E-024  0.8098770E+02  0.7818608E-02  0.1326272E+00
         -1   -1    0    0    0  501 -0.00000000000E+00  0.00000000000E+00  0.18031508597E+01  0.18031579034E+01  0.50400000000E-02 0.  1.
          2   -1    0    0  501    0  0.00000000000E+00 -0.00000000000E+00 -0.90937956657E+03  0.90937956657E+03  0.25500000000E-02 0. -1.
         24    2    1    2    0    0  0.88817841970E-15  0.35527136788E-14 -0.90757641571E+03  0.91118272447E+03  0.80987696792E+02 0.  0.
         66    2    3    3    0    0  0.46168029015E+01  0.27615131190E+02 -0.78282024139E+03  0.78332333087E+03  0.20000020166E+01 0.  0.
        -13    1    3    3    0    0 -0.46168029015E+01 -0.27615131190E+02 -0.12475617432E+03  0.12785939361E+03  0.10566000000E+00 0.  1.
         13    1    4    4    0    0  0.16272396775E+01  0.90120252351E+01 -0.26488359639E+03  0.26504187463E+03  0.10566000000E+00 0. -1.
        -13    1    4    4    0    0  0.13207415442E+01  0.55189016036E+01 -0.14145613027E+03  0.14156994946E+03  0.10566000000E+00 0.  1.
         14    1    4    4    0    0  0.16688216797E+01  0.13084204351E+02 -0.37648051473E+03  0.37671150678E+03  0.00000000000E+00 0. -1.
<mgrwt>
<rscale>  0 0.80987697E+02</rscale>
<asrwt>0</asrwt>
<pdfrwt beam="1">  1        2 0.13990418E+00 0.80987697E+02</pdfrwt>
<pdfrwt beam="2">  1       -1 0.27740909E-03 0.80987697E+02</pdfrwt>
<totfact> 0.33887537E+05</totfact>
</mgrwt>
</event>
<event>
 8    1  0.2389776E-024  0.8052730E+02  0.7818608E-02  0.1327562E+00
          2   -1    0    0  501    0  0.00000000000E+00  0.00000000000E+00  0.20893253769E+02  0.20893253925E+02  0.25500000000E-02 0. -1.
         -1   -1    0    0    0  501 -0.00000000000E+00 -0.00000000000E+00 -0.77592589589E+02  0.77592589753E+02  0.50400000000E-02 0.  1.
         24    2    1    2    0    0  0.00000000000E+00 -0.71054273576E-14 -0.56699335820E+02  0.98485843678E+02  0.80527304205E+02 0.  0.
         66    2    3    3    0    0  0.15396572387E+02  0.37176629414E+02 -0.28339863926E+02  0.49257528391E+02  0.20000000238E+01 0.  0.
        -13    1    3    3    0    0 -0.15396572387E+02 -0.37176629414E+02 -0.28359471894E+02  0.49228315287E+02  0.10566000000E+00 0.  1.
         13    1    4    4    0    0  0.41957372830E+01  0.10718382454E+02 -0.87380864883E+01  0.14451756062E+02  0.10566000000E+00 0. -1.
        -13    1    4    4    0    0  0.40594466521E+01  0.91792623669E+01 -0.75759759070E+01  0.12575553256E+02  0.10566000000E+00 0.  1.
         14    1    4    4    0    0  0.71413884515E+01  0.17278984593E+02 -0.12025801530E+02  0.22230219073E+02  0.00000000000E+00 0. -1.
<mgrwt>
<rscale>  0 0.80527304E+02</rscale>
<asrwt>0</asrwt>
<pdfrwt beam="1">  1        2 0.32143468E-02 0.80527304E+02</pdfrwt>
<pdfrwt beam="2">  1       -1 0.11937321E-01 0.80527304E+02</pdfrwt>
<totfact> 0.12291955E+05</totfact>
</mgrwt>
</event>
<event>
 8    1  0.2389776E-024  0.7805270E+02  0.7818608E-02  0.1334670E+00
          2   -1    0    0  501    0  0.00000000000E+00  0.00000000000E+00  0.89472903373E+02  0.89472903409E+02  0.25500000000E-02 0. -1.
         -1   -1    0    0    0  501 -0.00000000000E+00 -0.00000000000E+00 -0.17022538907E+02  0.17022539653E+02  0.50400000000E-02 0.  1.
         24    2    1    2    0    0  0.00000000000E+00  0.00000000000E+00  0.72450364466E+02  0.10649544306E+03  0.78052700669E+02 0.  0.
         66    2    3    3    0    0  0.26172699997E+02  0.85724064651E+01  0.73926098241E+02  0.78914918557E+02  0.19999980054E+01 0.  0.
        -13    1    3    3    0    0 -0.26172699997E+02 -0.85724064651E+01 -0.14757337751E+01  0.27580524505E+02  0.10566000000E+00 0.  1.
         13    1    4    4    0    0  0.49843244342E+01  0.13541405758E+01  0.14594721128E+02  0.15482061737E+02  0.10566000000E+00 0. -1.
        -13    1    4    4    0    0  0.24749048919E+00  0.34507633793E-01  0.43145270515E+00  0.50966439096E+00  0.10566000000E+00 0. -1.
         14    1    4    4    0    0  0.20940885074E+02  0.71837582555E+01  0.58899924408E+02  0.62923192430E+02  0.00000000000E+00 0. -1.
<mgrwt>
<rscale>  0 0.78052701E+02</rscale>
<asrwt>0</asrwt>
<pdfrwt beam="1">  1        2 0.13765062E-01 0.78052701E+02</pdfrwt>
<pdfrwt beam="2">  1       -1 0.26188522E-02 0.78052701E+02</pdfrwt>
<totfact> 0.18368654E+05</totfact>
</mgrwt>
</event>
<event>
 8    1  0.2389776E-024  0.7950310E+02  0.7818608E-02  0.1330467E+00
          2   -1    0    0  501    0  0.00000000000E+00  0.00000000000E+00  0.22409770207E+02  0.22409770352E+02  0.25500000000E-02 0. -1.
         -1   -1    0    0    0  501 -0.00000000000E+00 -0.00000000000E+00 -0.70513257142E+02  0.70513257322E+02  0.50400000000E-02 0.  1.
         24    2    1    2    0    0  0.27755575616E-16  0.00000000000E+00 -0.48103486935E+02  0.92923027674E+02  0.79503104447E+02 0.  0.
         66    2    3    3    0    0  0.24660416038E+00 -0.16975738451E+02  0.17911370464E+02  0.24759921296E+02  0.20000002724E+01 0.  0.
        -13    1    3    3    0    0 -0.24660416038E+00  0.16975738451E+02 -0.66014857400E+02  0.68163106378E+02  0.10566000000E+00 0.  1.
         13    1    4    4    0    0  0.37821552890E+00 -0.13303078017E+02  0.14951922408E+02  0.20017144637E+02  0.10566000000E+00 0. -1.
        -13    1    4    4    0    0 -0.14777817445E-01 -0.15682129380E+01  0.98652942266E+00  0.18557786884E+01  0.10566000000E+00 0.  1.
         14    1    4    4    0    0 -0.11683355107E+00 -0.21044474964E+01  0.19729186339E+01  0.28869979702E+01  0.00000000000E+00 0. -1.
<mgrwt>
<rscale>  0 0.79503104E+02</rscale>
<asrwt>0</asrwt>
<pdfrwt beam="1">  1        2 0.34476570E-02 0.79503104E+02</pdfrwt>
<pdfrwt beam="2">  1       -1 0.10848193E-01 0.79503104E+02</pdfrwt>
<totfact> 0.12929699E+05</totfact>
</mgrwt>
</event>
<event>
 8    1  0.2389776E-024  0.8366034E+02  0.7818608E-02  0.1318974E+00
         -1   -1    0    0    0  501 -0.00000000000E+00  0.00000000000E+00  0.47562046367E+01  0.47562073070E+01  0.50400000000E-02 0.  1.
          2   -1    0    0  501    0  0.00000000000E+00 -0.00000000000E+00 -0.36789051026E+03  0.36789051027E+03  0.25500000000E-02 0. -1.
         24    2    1    2    0    0  0.35527136788E-14 -0.35527136788E-14 -0.36313430562E+03  0.37264671757E+03  0.83660338270E+02 0.  0.
         66    2    3    3    0    0  0.23985909648E+02 -0.27852219293E+02 -0.27038668927E+03  0.27288098456E+03  0.20000045391E+01 0.  0.
        -13    1    3    3    0    0 -0.23985909648E+02  0.27852219293E+02 -0.92747616352E+02  0.99765733016E+02  0.10566000000E+00 0.  1.
         13    1    4    4    0    0  0.26388140978E+01 -0.27327261138E+01 -0.30677876607E+02  0.30912366603E+02  0.10566000000E+00 0. -1.
        -13    1    4    4    0    0  0.51630927131E+01 -0.53728207548E+01 -0.56521615754E+02  0.57010779162E+02  0.10566000000E+00 0.  1.
         14    1    4    4    0    0  0.16184002837E+02 -0.19746672424E+02 -0.18318719691E+03  0.18495783879E+03  0.00000000000E+00 0. -1.
<mgrwt>
<rscale>  0 0.83660338E+02</rscale>
<asrwt>0</asrwt>
<pdfrwt beam="1">  1        2 0.56598518E-01 0.83660338E+02</pdfrwt>
<pdfrwt beam="2">  1       -1 0.73172429E-03 0.83660338E+02</pdfrwt>
<totfact> 0.24396835E+05</totfact>
</mgrwt>
</event>
<event>
 8    1  0.2389776E-024  0.7806308E+02  0.7818608E-02  0.1334640E+00
         -1   -1    0    0    0  501 -0.00000000000E+00  0.00000000000E+00  0.16391617909E+02  0.16391618684E+02  0.50400000000E-02 0.  1.
          2   -1    0    0  501    0  0.00000000000E+00 -0.00000000000E+00 -0.92941468046E+02  0.92941468081E+02  0.25500000000E-02 0. -1.
         24    2    1    2    0    0  0.35527136788E-14 -0.35527136788E-14 -0.76549850137E+02  0.10933308677E+03  0.78063079017E+02 0.  0.
         66    2    3    3    0    0 -0.22848394188E+02  0.16408708368E+02 -0.76145574161E+02  0.81200020271E+02  0.20000001269E+01 0.  0.
        -13    1    3    3    0    0  0.22848394188E+02 -0.16408708368E+02 -0.40427597642E+00  0.28133066494E+02  0.10566000000E+00 0.  1.
         13    1    4    4    0    0 -0.12737971166E+02  0.84876509144E+01 -0.42656404442E+02  0.45319710187E+02  0.10566000000E+00 0. -1.
        -13    1    4    4    0    0 -0.57753214513E+00  0.72182293543E+00 -0.22333716597E+01  0.24194389298E+01  0.10566000000E+00 0.  1.
        -14    1    4    4    0    0 -0.95328908771E+01  0.71992345180E+01 -0.31255798059E+02  0.33460871154E+02  0.00000000000E+00 0.  1.
<mgrwt>
<rscale>  0 0.78063079E+02</rscale>
<asrwt>0</asrwt>
<pdfrwt beam="1">  1        2 0.14298687E-01 0.78063079E+02</pdfrwt>
<pdfrwt beam="2">  1       -1 0.25217875E-02 0.78063079E+02</pdfrwt>
<totfact> 0.18550616E+05</totfact>
</mgrwt>
</event>
<event>
 8    1  0.2389776E-024  0.8040007E+02  0.7818608E-02  0.1327920E+00
          2   -1    0    0  501    0  0.00000000000E+00  0.00000000000E+00  0.23942702194E+03  0.23942702195E+03  0.25500000000E-02 0. -1.
         -1   -1    0    0    0  501 -0.00000000000E+00 -0.00000000000E+00 -0.67496253351E+01  0.67496272168E+01  0.50400000000E-02 0.  1.
         24    2    1    2    0    0  0.00000000000E+00  0.00000000000E+00  0.23267739660E+03  0.24617664917E+03  0.80400072797E+02 0.  0.
         66    2    3    3    0    0  0.32077764228E+02  0.14416612226E+02  0.17587880266E+03  0.17937161116E+03  0.19999993338E+01 0.  0.
        -13    1    3    3    0    0 -0.32077764228E+02 -0.14416612226E+02  0.56798593938E+02  0.66805038008E+02  0.10566000000E+00 0.  1.
         13    1    4    4    0    0  0.15088376045E+02  0.73830884662E+01  0.80985270622E+02  0.82709094474E+02  0.10566000000E+00 0. -1.
        -13    1    4    4    0    0  0.77759412896E+01  0.35082570629E+01  0.45747112723E+02  0.46535820796E+02  0.10566000000E+00 0.  1.
         14    1    4    4    0    0  0.92134468935E+01  0.35252666971E+01  0.49146419318E+02  0.50126695888E+02  0.00000000000E+00 0. -1.
<mgrwt>
<rscale>  0 0.80400073E+02</rscale>
<asrwt>0</asrwt>
<pdfrwt beam="1">  1        2 0.36834918E-01 0.80400073E+02</pdfrwt>
<pdfrwt beam="2">  1       -1 0.10384043E-02 0.80400073E+02</pdfrwt>
<totfact> 0.23196011E+05</totfact>
</mgrwt>
</event>
<event>
 8    1  0.2389776E-024  0.8178160E+02  0.7818608E-02  0.1324070E+00
          2   -1    0    0  501    0  0.00000000000E+00  0.00000000000E+00  0.58234212015E+03  0.58234212016E+03  0.25500000000E-02 0. -1.
         -1   -1    0    0    0  501 -0.00000000000E+00 -0.00000000000E+00 -0.28712612042E+01  0.28712656276E+01  0.50400000000E-02 0.  1.
         24    2    1    2    0    0  0.00000000000E+00  0.00000000000E+00  0.57947085895E+03  0.58521338578E+03  0.81781602653E+02 0.  0.
         66    2    3    3    0    0  0.99322301714E+01 -0.38285638954E+02  0.36344726322E+03  0.36559862211E+03  0.20000011781E+01 0.  0.
        -13    1    3    3    0    0 -0.99322301714E+01  0.38285638954E+02  0.21602359573E+03  0.21961476367E+03  0.10566000000E+00 0.  1.
         13    1    4    4    0    0  0.58105171332E+01 -0.20864755956E+02  0.19055096372E+03  0.19177794735E+03  0.10566000000E+00 0.  1.
        -13    1    4    4    0    0  0.23486504300E+01 -0.99808545540E+01  0.98895376398E+02  0.99425551311E+02  0.10566000000E+00 0. -1.
        -14    1    4    4    0    0  0.17730626082E+01 -0.74400284440E+01  0.74000923097E+02  0.74395123452E+02  0.00000000000E+00 0.  1.
<mgrwt>
<rscale>  0 0.81781603E+02</rscale>
<asrwt>0</asrwt>
<pdfrwt beam="1">  1        2 0.89591200E-01 0.81781603E+02</pdfrwt>
<pdfrwt beam="2">  1       -1 0.44173232E-03 0.81781603E+02</pdfrwt>
<totfact> 0.30114590E+05</totfact>
</mgrwt>
</event>
<event>
 8    1  0.2389776E-024  0.7827305E+02  0.7818608E-02  0.1334025E+00
          2   -1    0    0  501    0  0.00000000000E+00  0.00000000000E+00  0.11170112437E+03  0.11170112440E+03  0.25500000000E-02 0. -1.
         -1   -1    0    0    0  501 -0.00000000000E+00 -0.00000000000E+00 -0.13712195846E+02  0.13712196773E+02  0.50400000000E-02 0.  1.
         24    2    1    2    0    0 -0.35527136788E-14  0.35527136788E-14  0.97988928528E+02  0.12541332118E+03  0.78273054203E+02 0.  0.
         66    2    3    3    0    0 -0.22455846417E+02  0.31940433973E+02  0.52682332793E+02  0.65603997975E+02  0.20000002639E+01 0.  0.
        -13    1    3    3    0    0  0.22455846417E+02 -0.31940433973E+02  0.45306595734E+02  0.59809323201E+02  0.10566000000E+00 0.  1.
         13    1    4    4    0    0 -0.61915048481E+01  0.96686639998E+01  0.15004411090E+02  0.18893419807E+02  0.10566000000E+00 0. -1.
        -13    1    4    4    0    0 -0.12143104412E+02  0.16144638909E+02  0.26736373497E+02  0.33510433928E+02  0.10566000000E+00 0.  1.
         14    1    4    4    0    0 -0.41212371567E+01  0.61271310642E+01  0.10941548207E+02  0.13200144239E+02  0.00000000000E+00 0. -1.
<mgrwt>
<rscale>  0 0.78273054E+02</rscale>
<asrwt>0</asrwt>
<pdfrwt beam="1">  1        2 0.17184788E-01 0.78273054E+02</pdfrwt>
<pdfrwt beam="2">  1       -1 0.21095687E-02 0.78273054E+02</pdfrwt>
<totfact> 0.19392111E+05</totfact>
</mgrwt>
</event>
<event>
 8    1  0.2389776E-024  0.8015849E+02  0.7818608E-02  0.1328602E+00
          2   -1    0    0  501    0  0.00000000000E+00  0.00000000000E+00  0.22828298910E+03  0.22828298911E+03  0.25500000000E-02 0. -1.
         -1   -1    0    0    0  501 -0.00000000000E+00 -0.00000000000E+00 -0.70366423999E+01  0.70366442049E+01  0.50400000000E-02 0.  1.
         24    2    1    2    0    0  0.00000000000E+00  0.17763568394E-14  0.22124634670E+03  0.23531963332E+03  0.80158492359E+02 0.  0.
         66    2    3    3    0    0 -0.37754803723E+02  0.93850099680E+01  0.13867141244E+03  0.14403910665E+03  0.20000002773E+01 0.  0.
        -13    1    3    3    0    0  0.37754803723E+02 -0.93850099680E+01  0.82574934260E+02  0.91280526666E+02  0.10566000000E+00 0.  1.
         13    1    4    4    0    0 -0.12369475096E+02  0.33884292043E+01  0.46381176883E+02  0.48121825607E+02  0.10566000000E+00 0. -1.
        -13    1    4    4    0    0 -0.37488055609E+01  0.11709599229E+01  0.15623754793E+02  0.16110169712E+02  0.10566000000E+00 0.  1.
         14    1    4    4    0    0 -0.21636523066E+02  0.48256208408E+01  0.76666480761E+02  0.79807111332E+02  0.00000000000E+00 0. -1.
<mgrwt>
<rscale>  0 0.80158492E+02</rscale>
<asrwt>0</asrwt>
<pdfrwt beam="1">  1        2 0.35120454E-01 0.80158492E+02</pdfrwt>
<pdfrwt beam="2">  1       -1 0.10825607E-02 0.80158492E+02</pdfrwt>
<totfact> 0.22987292E+05</totfact>
</mgrwt>
</event>
<event>
 8    1  0.2389776E-024  0.7917159E+02  0.7818608E-02  0.1331419E+00
         -1   -1    0    0    0  501 -0.00000000000E+00  0.00000000000E+00  0.11145330785E+03  0.11145330797E+03  0.50400000000E-02 0.  1.
          2   -1    0    0  501    0  0.00000000000E+00 -0.00000000000E+00 -0.14060013823E+02  0.14060014054E+02  0.25500000000E-02 0. -1.
         24    2    1    2    0    0  0.00000000000E+00 -0.71054273576E-14  0.97393294031E+02  0.12551332202E+03  0.79171587598E+02 0.  0.
         66    2    3    3    0    0  0.55445679704E+01  0.37120350176E+02  0.28903525892E+02  0.47413884540E+02  0.20000017684E+01 0.  0.
        -13    1    3    3    0    0 -0.55445679704E+01 -0.37120350176E+02  0.68489768140E+02  0.78099437482E+02  0.10566000000E+00 0.  1.
         13    1    4    4    0    0  0.35464361425E+01  0.20177429934E+02  0.16724055791E+02  0.26446381496E+02  0.10566000000E+00 0. -1.
        -13    1    4    4    0    0  0.15542125229E+01  0.12862340634E+02  0.94928627763E+01  0.16061786666E+02  0.10566000000E+00 0.  1.
         14    1    4    4    0    0  0.44391930490E+00  0.40805796070E+01  0.26866073244E+01  0.49057163793E+01  0.00000000000E+00 0. -1.
<mgrwt>
<rscale>  0 0.79171588E+02</rscale>
<asrwt>0</asrwt>
<pdfrwt beam="1">  1        2 0.21630791E-02 0.79171588E+02</pdfrwt>
<pdfrwt beam="2">  1       -1 0.17146663E-01 0.79171588E+02</pdfrwt>
<totfact> 0.11881433E+05</totfact>
</mgrwt>
</event>
<event>
 8    1  0.2389776E-024  0.7781677E+02  0.7818608E-02  0.1335364E+00
          2   -1    0    0  501    0  0.00000000000E+00  0.00000000000E+00  0.21569032973E+03  0.21569032975E+03  0.25500000000E-02 0. -1.
         -1   -1    0    0    0  501 -0.00000000000E+00 -0.00000000000E+00 -0.70186830988E+01  0.70186849083E+01  0.50400000000E-02 0.  1.
         24    2    1    2    0    0  0.35527136788E-14  0.00000000000E+00  0.20867164663E+03  0.22270901465E+03  0.77816766189E+02 0.  0.
         66    2    3    3    0    0 -0.22298309449E+02  0.19595651875E+01  0.19539542731E+03  0.19668357204E+03  0.19999985810E+01 0.  0.
        -13    1    3    3    0    0  0.22298309449E+02 -0.19595651875E+01  0.13276219320E+02  0.26025442618E+02  0.10566000000E+00 0.  1.
         13    1    4    4    0    0 -0.12076069119E+02  0.79254602185E+00  0.10228831922E+03  0.10300180090E+03  0.10566000000E+00 0. -1.
        -13    1    4    4    0    0 -0.30162545589E+01  0.89571415311E+00  0.28963055984E+02  0.29133655304E+02  0.10566000000E+00 0.  1.
         14    1    4    4    0    0 -0.72059857710E+01  0.27130501250E+00  0.64144052103E+02  0.64548115833E+02  0.00000000000E+00 0. -1.
<mgrwt>
<rscale>  0 0.77816766E+02</rscale>
<asrwt>0</asrwt>
<pdfrwt beam="1">  1        2 0.33183126E-01 0.77816766E+02</pdfrwt>
<pdfrwt beam="2">  1       -1 0.10797976E-02 0.77816766E+02</pdfrwt>
<totfact> 0.24359444E+05</totfact>
</mgrwt>
</event>
<event>
 8    1  0.2389776E-024  0.7902774E+02  0.7818608E-02  0.1331833E+00
          2   -1    0    0  501    0  0.00000000000E+00  0.00000000000E+00  0.14564059635E+02  0.14564059858E+02  0.25500000000E-02 0. -1.
         -1   -1    0    0    0  501 -0.00000000000E+00 -0.00000000000E+00 -0.10720541106E+03  0.10720541118E+03  0.50400000000E-02 0.  1.
         24    2    1    2    0    0  0.71054273576E-14  0.00000000000E+00 -0.92641351429E+02  0.12176947104E+03  0.79027742490E+02 0.  0.
         66    2    3    3    0    0  0.35303969416E+02  0.10064924227E+02 -0.23932791758E+02  0.43868570582E+02  0.20000018329E+01 0.  0.
        -13    1    3    3    0    0 -0.35303969416E+02 -0.10064924227E+02 -0.68708559671E+02  0.77900900459E+02  0.10566000000E+00 0.  1.
         13    1    4    4    0    0  0.64541428523E+01  0.18914617367E+01 -0.43564921873E+01  0.80139737754E+01  0.10566000000E+00 0. -1.
        -13    1    4    4    0    0  0.23853931161E+02  0.62428117473E+01 -0.15510311315E+02  0.29130115885E+02  0.10566000000E+00 0.  1.
        -14    1    4    4    0    0  0.49958954027E+01  0.19306507430E+01 -0.40659882562E+01  0.67244809216E+01  0.00000000000E+00 0.  1.
<mgrwt>
<rscale>  0 0.79027742E+02</rscale>
<asrwt>0</asrwt>
<pdfrwt beam="1">  1        2 0.22406246E-02 0.79027742E+02</pdfrwt>
<pdfrwt beam="2">  1       -1 0.16493140E-01 0.79027742E+02</pdfrwt>
<totfact> 0.12037965E+05</totfact>
</mgrwt>
</event>
<event>
 8    1  0.2389776E-024  0.8029697E+02  0.7818608E-02  0.1328211E+00
          2   -1    0    0  501    0  0.00000000000E+00  0.00000000000E+00  0.29497628863E+03  0.29497628864E+03  0.25500000000E-02 0. -1.
         -1   -1    0    0    0  501 -0.00000000000E+00 -0.00000000000E+00 -0.54645092588E+01  0.54645115830E+01  0.50400000000E-02 0.  1.
         24    2    1    2    0    0  0.44408920985E-15  0.71054273576E-14  0.28951177937E+03  0.30044080022E+03  0.80296974069E+02 0.  0.
         66    2    3    3    0    0  0.29243116341E+01  0.39721612534E+02  0.16299825931E+03  0.16780581229E+03  0.20000002094E+01 0.  0.
        -13    1    3    3    0    0 -0.29243116341E+01 -0.39721612534E+02  0.12651352007E+03  0.13263498793E+03  0.10566000000E+00 0.  1.
         13    1    4    4    0    0  0.10266910659E+01  0.20356892636E+02  0.86478038253E+02  0.88847731746E+02  0.10566000000E+00 0. -1.
        -13    1    4    4    0    0  0.92014646375E+00  0.67012133554E+01  0.25968426484E+02  0.26835112596E+02  0.10566000000E+00 0.  1.
        -14    1    4    4    0    0  0.97747410447E+00  0.12663506542E+02  0.50551794569E+02  0.52122967948E+02  0.00000000000E+00 0.  1.
<mgrwt>
<rscale>  0 0.80296974E+02</rscale>
<asrwt>0</asrwt>
<pdfrwt beam="1">  1        2 0.45380985E-01 0.80296974E+02</pdfrwt>
<pdfrwt beam="2">  1       -1 0.84069359E-03 0.80296974E+02</pdfrwt>
<totfact> 0.25093986E+05</totfact>
</mgrwt>
</event>
<event>
 8    1  0.2389776E-024  0.8022779E+02  0.7818608E-02  0.1328406E+00
          2   -1    0    0  501    0  0.00000000000E+00  0.00000000000E+00  0.57094050704E+02  0.57094050761E+02  0.25500000000E-02 0. -1.
         -1   -1    0    0    0  501 -0.00000000000E+00 -0.00000000000E+00 -0.28183754971E+02  0.28183755422E+02  0.50400000000E-02 0.  1.
         24    2    1    2    0    0  0.88817841970E-15  0.00000000000E+00  0.28910295733E+02  0.85277806183E+02  0.80227794611E+02 0.  0.
         66    2    3    3    0    0  0.77078098439E+01  0.37938498453E+02  0.25529970089E+02  0.46416800497E+02  0.19999995485E+01 0.  0.
        -13    1    3    3    0    0 -0.77078098439E+01 -0.37938498453E+02  0.33803256440E+01  0.38861005686E+02  0.10566000000E+00 0.  1.
         13    1    4    4    0    0  0.46138270804E+01  0.26314955422E+02  0.17996324065E+02  0.32212468441E+02  0.10566000000E+00 0. -1.
        -13    1    4    4    0    0  0.13524613972E+01  0.43693440892E+01  0.30910635855E+01  0.55214271457E+01  0.10566000000E+00 0.  1.
         14    1    4    4    0    0  0.17415213662E+01  0.72541989423E+01  0.44425824383E+01  0.86829049104E+01  0.00000000000E+00 0. -1.
<mgrwt>
<rscale>  0 0.80227795E+02</rscale>
<asrwt>0</asrwt>
<pdfrwt beam="1">  1        2 0.87837000E-02 0.80227795E+02</pdfrwt>
<pdfrwt beam="2">  1       -1 0.43359624E-02 0.80227795E+02</pdfrwt>
<totfact> 0.15271368E+05</totfact>
</mgrwt>
</event>
<event>
 8    1  0.2389776E-024  0.8086407E+02  0.7818608E-02  0.1326617E+00
          2   -1    0    0  501    0  0.00000000000E+00  0.00000000000E+00  0.21906441367E+02  0.21906441515E+02  0.25500000000E-02 0. -1.
         -1   -1    0    0    0  501 -0.00000000000E+00 -0.00000000000E+00 -0.74624140805E+02  0.74624140975E+02  0.50400000000E-02 0.  1.
         24    2    1    2    0    0  0.00000000000E+00  0.00000000000E+00 -0.52717699438E+02  0.96530582491E+02  0.80864068176E+02 0.  0.
         66    2    3    3    0    0 -0.15127509467E+02  0.36845663435E+02 -0.34497613682E+02  0.52730729230E+02  0.19999996798E+01 0.  0.
        -13    1    3    3    0    0  0.15127509467E+02 -0.36845663435E+02 -0.18220085756E+02  0.43799853261E+02  0.10566000000E+00 0.  1.
         13    1    4    4    0    0 -0.28112395602E+01  0.69052655917E+01 -0.73006422658E+01  0.10435339107E+02  0.10566000000E+00 0.  1.
        -13    1    4    4    0    0 -0.79176115410E+01  0.20306465232E+02 -0.18665491008E+02  0.28695867670E+02  0.10566000000E+00 0. -1.
        -14    1    4    4    0    0 -0.43986583662E+01  0.96339326116E+01 -0.85314804083E+01  0.13599522453E+02  0.00000000000E+00 0.  1.
<mgrwt>
<rscale>  0 0.80864068E+02</rscale>
<asrwt>0</asrwt>
<pdfrwt beam="1">  1        2 0.33702218E-02 0.80864068E+02</pdfrwt>
<pdfrwt beam="2">  1       -1 0.11480637E-01 0.80864068E+02</pdfrwt>
<totfact> 0.12262528E+05</totfact>
</mgrwt>
</event>
<event>
 8    1  0.2389776E-024  0.7819340E+02  0.7818608E-02  0.1334258E+00
         -1   -1    0    0    0  501 -0.00000000000E+00  0.00000000000E+00  0.15190489849E+03  0.15190489857E+03  0.50400000000E-02 0.  1.
          2   -1    0    0  501    0  0.00000000000E+00 -0.00000000000E+00 -0.10062557648E+02  0.10062557971E+02  0.25500000000E-02 0. -1.
         24    2    1    2    0    0  0.35527136788E-14  0.00000000000E+00  0.14184234084E+03  0.16196745654E+03  0.78193396932E+02 0.  0.
         66    2    3    3    0    0 -0.26147975407E+02  0.23435700653E+02  0.35475118555E+02  0.49954306315E+02  0.19999999914E+01 0.  0.
        -13    1    3    3    0    0  0.26147975407E+02 -0.23435700653E+02  0.10636722229E+03  0.11201315023E+03  0.10566000000E+00 0.  1.
         13    1    4    4    0    0 -0.53635796823E+01  0.47742448349E+01  0.81265851655E+01  0.10844996599E+02  0.10566000000E+00 0. -1.
        -13    1    4    4    0    0 -0.10695828407E+02  0.10369019571E+02  0.14693818728E+02  0.20924549817E+02  0.10566000000E+00 0.  1.
         14    1    4    4    0    0 -0.10088567318E+02  0.82924362470E+01  0.12654714661E+02  0.18184759899E+02  0.00000000000E+00 0. -1.
<mgrwt>
<rscale>  0 0.78193397E+02</rscale>
<asrwt>0</asrwt>
<pdfrwt beam="1">  1        2 0.15480859E-02 0.78193397E+02</pdfrwt>
<pdfrwt beam="2">  1       -1 0.23369984E-01 0.78193397E+02</pdfrwt>
<totfact> 0.11391577E+05</totfact>
</mgrwt>
</event>
<event>
 8    1  0.2389776E-024  0.7981872E+02  0.7818608E-02  0.1329567E+00
         -1   -1    0    0    0  501 -0.00000000000E+00  0.00000000000E+00  0.44331167671E+01  0.44331196321E+01  0.50400000000E-02 0.  1.
          2   -1    0    0  501    0  0.00000000000E+00 -0.00000000000E+00 -0.35928596632E+03  0.35928596633E+03  0.25500000000E-02 0. -1.
         24    2    1    2    0    0  0.35527136788E-14  0.00000000000E+00 -0.35485284956E+03  0.36371908597E+03  0.79818723723E+02 0.  0.
         66    2    3    3    0    0  0.29648820475E+02 -0.26657090784E+02 -0.18231488119E+03  0.18663431888E+03  0.20000080982E+01 0.  0.
        -13    1    3    3    0    0 -0.29648820475E+02  0.26657090784E+02 -0.17253796836E+03  0.17708476709E+03  0.10566000000E+00 0.  1.
         13    1    4    4    0    0  0.13892481732E+02 -0.13385740285E+02 -0.90151402087E+02  0.92192546087E+02  0.10566000000E+00 0. -1.
        -13    1    4    4    0    0  0.80509146020E+01 -0.71924933752E+01 -0.49594088203E+02  0.50755629595E+02  0.10566000000E+00 0.  1.
        -14    1    4    4    0    0  0.77054241412E+01 -0.60788571235E+01 -0.42569390904E+02  0.43686143193E+02  0.00000000000E+00 0.  1.
<mgrwt>
<rscale>  0 0.79818724E+02</rscale>
<asrwt>0</asrwt>
<pdfrwt beam="1">  1        2 0.55274741E-01 0.79818724E+02</pdfrwt>
<pdfrwt beam="2">  1       -1 0.68201847E-03 0.79818724E+02</pdfrwt>
<totfact> 0.27364094E+05</totfact>
</mgrwt>
</event>
<event>
 8    1  0.2389776E-024  0.8174227E+02  0.7818608E-02  0.1324179E+00
         -1   -1    0    0    0  501 -0.00000000000E+00  0.00000000000E+00  0.10370703110E+02  0.10370704334E+02  0.50400000000E-02 0.  1.
          2   -1    0    0  501    0  0.00000000000E+00 -0.00000000000E+00 -0.16107390585E+03  0.16107390587E+03  0.25500000000E-02 0. -1.
         24    2    1    2    0    0  0.00000000000E+00  0.00000000000E+00 -0.15070320274E+03  0.17144461021E+03  0.81742272124E+02 0.  0.
         66    2    3    3    0    0 -0.80250841642E+01 -0.34418539126E+02 -0.11834972758E+03  0.12353014130E+03  0.19999950503E+01 0.  0.
        -13    1    3    3    0    0  0.80250841642E+01  0.34418539126E+02 -0.32353475164E+02  0.47914468907E+02  0.10566000000E+00 0.  1.
         13    1    4    4    0    0 -0.19812533249E+01 -0.87624855475E+01 -0.28665313941E+02  0.30040271388E+02  0.10566000000E+00 0. -1.
        -13    1    4    4    0    0 -0.24871507394E+01 -0.12906714894E+02 -0.42814664396E+02  0.44787005476E+02  0.10566000000E+00 0.  1.
        -14    1    4    4    0    0 -0.35566800999E+01 -0.12749338684E+02 -0.46869749242E+02  0.48702864436E+02  0.00000000000E+00 0.  1.
<mgrwt>
<rscale>  0 0.81742272E+02</rscale>
<asrwt>0</asrwt>
<pdfrwt beam="1">  1        2 0.24780599E-01 0.81742272E+02</pdfrwt>
<pdfrwt beam="2">  1       -1 0.15954930E-02 0.81742272E+02</pdfrwt>
<totfact> 0.19361111E+05</totfact>
</mgrwt>
</event>
<event>
 8    1  0.2389776E-024  0.7689128E+02  0.7818608E-02  0.1338112E+00
         -1   -1    0    0    0  501 -0.00000000000E+00  0.00000000000E+00  0.15883130907E+03  0.15883130915E+03  0.50400000000E-02 0.  1.
          2   -1    0    0  501    0  0.00000000000E+00 -0.00000000000E+00 -0.93058933704E+01  0.93058937197E+01  0.25500000000E-02 0. -1.
         24    2    1    2    0    0 -0.35527136788E-14  0.00000000000E+00  0.14952541570E+03  0.16813720287E+03  0.76891280707E+02 0.  0.
         66    2    3    3    0    0 -0.20688785318E+02 -0.16709858543E+02  0.14181658375E+02  0.30205375429E+02  0.20000150162E+01 0.  0.
        -13    1    3    3    0    0  0.20688785318E+02  0.16709858543E+02  0.13534375733E+03  0.13793182744E+03  0.10566000000E+00 0.  1.
         13    1    4    4    0    0 -0.91261723770E+01 -0.72538393161E+01  0.59869244298E+01  0.13105710024E+02  0.10566000000E+00 0. -1.
        -13    1    4    4    0    0 -0.66693509413E+01 -0.62492297128E+01  0.45920188829E+01  0.10228925429E+02  0.10566000000E+00 0.  1.
        -14    1    4    4    0    0 -0.48932619996E+01 -0.32067895144E+01  0.36027150627E+01  0.68707399753E+01  0.00000000000E+00 0.  1.
<mgrwt>
<rscale>  0 0.76891281E+02</rscale>
<asrwt>0</asrwt>
<pdfrwt beam="1">  1        2 0.14316760E-02 0.76891281E+02</pdfrwt>
<pdfrwt beam="2">  1       -1 0.24435585E-01 0.76891281E+02</pdfrwt>
<totfact> 0.11749826E+05</totfact>
</mgrwt>
</event>
<event>
 8    1  0.2389776E-024  0.7979088E+02  0.7818608E-02  0.1329646E+00
         -1   -1    0    0    0  501 -0.00000000000E+00  0.00000000000E+00  0.54955962348E+01  0.54955985458E+01  0.50400000000E-02 0.  1.
          2   -1    0    0  501    0  0.00000000000E+00 -0.00000000000E+00 -0.28962204573E+03  0.28962204574E+03  0.25500000000E-02 0. -1.
         24    2    1    2    0    0 -0.17763568394E-14  0.00000000000E+00 -0.28412644949E+03  0.29511764429E+03  0.79790880850E+02 0.  0.
         66    2    3    3    0    0  0.12505942852E+02 -0.11601807829E+02 -0.27543880792E+03  0.27597379849E+03  0.19999992605E+01 0.  0.
        -13    1    3    3    0    0 -0.12505942852E+02  0.11601807829E+02 -0.86876415785E+01  0.19143845793E+02  0.10566000000E+00 0.  1.
         13    1    4    4    0    0  0.28953052276E+01 -0.23169901887E+01 -0.51373587423E+02  0.51507357578E+02  0.10566000000E+00 0. -1.
        -13    1    4    4    0    0  0.74249606855E+00 -0.49253000285E+00 -0.11688468360E+02  0.11722855576E+02  0.10566000000E+00 0.  1.
         14    1    4    4    0    0  0.88681415563E+01 -0.87922876370E+01 -0.21237675213E+03  0.21274358534E+03  0.00000000000E+00 0. -1.
<mgrwt>
<rscale>  0 0.79790881E+02</rscale>
<asrwt>0</asrwt>
<pdfrwt beam="1">  1        2 0.44557226E-01 0.79790881E+02</pdfrwt>
<pdfrwt beam="2">  1       -1 0.84547675E-03 0.79790881E+02</pdfrwt>
<totfact> 0.25344839E+05</totfact>
</mgrwt>
</event>
<event>
 8    1  0.2389776E-024  0.7892909E+02  0.7818608E-02  0.1332118E+00
          2   -1    0    0  501    0  0.00000000000E+00  0.00000000000E+00  0.22593368331E+03  0.22593368333E+03  0.25500000000E-02 0. -1.
         -1   -1    0    0    0  501 -0.00000000000E+00 -0.00000000000E+00 -0.68933943327E+01  0.68933961752E+01  0.50400000000E-02 0.  1.
         24    2    1    2    0    0  0.17763568394E-14  0.27755575616E-16  0.21904028898E+03  0.23282707950E+03  0.78929086864E+02 0.  0.
         66    2    3    3    0    0  0.15303021571E+02  0.10949523983E+00  0.21681353688E+03  0.21736214991E+03  0.19999946754E+01 0.  0.
        -13    1    3    3    0    0 -0.15303021571E+02 -0.10949523983E+00  0.22267520974E+01  0.15464929594E+02  0.10566000000E+00 0.  1.
         13    1    4    4    0    0  0.85535975302E+01 -0.14603590075E+00  0.12985770519E+03  0.13013923359E+03  0.10566000000E+00 0.  1.
        -13    1    4    4    0    0  0.29299787076E+01 -0.35121394273E+00  0.37175540222E+02  0.37292627707E+02  0.10566000000E+00 0. -1.
         14    1    4    4    0    0  0.38194453333E+01  0.60674508331E+00  0.49780291469E+02  0.49930288613E+02  0.00000000000E+00 0. -1.
<mgrwt>
<rscale>  0 0.78929087E+02</rscale>
<asrwt>0</asrwt>
<pdfrwt beam="1">  1        2 0.34759032E-01 0.78929087E+02</pdfrwt>
<pdfrwt beam="2">  1       -1 0.10605222E-02 0.78929087E+02</pdfrwt>
<totfact> 0.23853947E+05</totfact>
</mgrwt>
</event>
<event>
 8    1  0.2389776E-024  0.8066017E+02  0.7818608E-02  0.1327188E+00
          2   -1    0    0  501    0  0.00000000000E+00  0.00000000000E+00  0.30444009244E+02  0.30444009351E+02  0.25500000000E-02 0. -1.
         -1   -1    0    0    0  501 -0.00000000000E+00 -0.00000000000E+00 -0.53426468981E+02  0.53426469218E+02  0.50400000000E-02 0.  1.
         24    2    1    2    0    0  0.00000000000E+00  0.00000000000E+00 -0.22982459737E+02  0.83870478569E+02  0.80660174311E+02 0.  0.
         66    2    3    3    0    0 -0.77551025242E+01 -0.14468025524E+02  0.26777757621E+02  0.31472427334E+02  0.20000003401E+01 0.  0.
        -13    1    3    3    0    0  0.77551025242E+01  0.14468025524E+02 -0.49760217358E+02  0.52398051235E+02  0.10566000000E+00 0.  1.
         13    1    4    4    0    0 -0.26846168606E+01 -0.51161786879E+01  0.79992588707E+01  0.98682196252E+01  0.10566000000E+00 0.  1.
        -13    1    4    4    0    0 -0.76497000320E+00 -0.22233667967E+01  0.42435195255E+01  0.48525417069E+01  0.10566000000E+00 0. -1.
        -14    1    4    4    0    0 -0.43055156604E+01 -0.71284800396E+01  0.14534979225E+02  0.16751666002E+02  0.00000000000E+00 0.  1.
<mgrwt>
<rscale>  0 0.80660174E+02</rscale>
<asrwt>0</asrwt>
<pdfrwt beam="1">  1        2 0.46836938E-02 0.80660174E+02</pdfrwt>
<pdfrwt beam="2">  1       -1 0.82194568E-02 0.80660174E+02</pdfrwt>
<totfact> 0.13187055E+05</totfact>
</mgrwt>
</event>
<event>
 8    1  0.2389776E-024  0.7829122E+02  0.7818608E-02  0.1333972E+00
         -1   -1    0    0    0  501 -0.00000000000E+00  0.00000000000E+00  0.33929054430E+01  0.33929091863E+01  0.50400000000E-02 0.  1.
          2   -1    0    0  501    0  0.00000000000E+00 -0.00000000000E+00 -0.45164175289E+03  0.45164175290E+03  0.25500000000E-02 0. -1.
         24    2    1    2    0    0  0.00000000000E+00  0.35527136788E-14 -0.44824884745E+03  0.45503466209E+03  0.78291215726E+02 0.  0.
         66    2    3    3    0    0  0.17138821319E+02  0.27552122396E+02 -0.35127648911E+03  0.35277759343E+03  0.19999945019E+01 0.  0.
        -13    1    3    3    0    0 -0.17138821319E+02 -0.27552122396E+02 -0.96972358335E+02  0.10225706865E+03  0.10566000000E+00 0.  1.
         13    1    4    4    0    0  0.88633309988E+01  0.12805468736E+02 -0.17104793583E+03  0.17175548370E+03  0.10566000000E+00 0. -1.
        -13    1    4    4    0    0  0.58177509571E+01  0.11068716348E+02 -0.13459587221E+03  0.13517552547E+03  0.10566000000E+00 0.  1.
        -14    1    4    4    0    0  0.24577393633E+01  0.36779373108E+01 -0.45632681080E+02  0.45846584259E+02  0.00000000000E+00 0.  1.
<mgrwt>
<rscale>  0 0.78291216E+02</rscale>
<asrwt>0</asrwt>
<pdfrwt beam="1">  1        2 0.69483299E-01 0.78291216E+02</pdfrwt>
<pdfrwt beam="2">  1       -1 0.52198610E-03 0.78291216E+02</pdfrwt>
<totfact> 0.31159286E+05</totfact>
</mgrwt>
</event>
<event>
 8    1  0.2389776E-024  0.7957448E+02  0.7818608E-02  0.1330263E+00
         -1   -1    0    0    0  501 -0.00000000000E+00  0.00000000000E+00  0.97358940630E+01  0.97358953675E+01  0.50400000000E-02 0.  1.
          2   -1    0    0  501    0  0.00000000000E+00 -0.00000000000E+00 -0.16259672547E+03  0.16259672549E+03  0.25500000000E-02 0. -1.
         24    2    1    2    0    0 -0.71054273576E-14  0.00000000000E+00 -0.15286083140E+03  0.17233262085E+03  0.79574483555E+02 0.  0.
         66    2    3    3    0    0  0.32523395255E+02  0.21691023658E+02 -0.92207388210E+02  0.10017222256E+03  0.19999966096E+01 0.  0.
        -13    1    3    3    0    0 -0.32523395255E+02 -0.21691023658E+02 -0.60653443195E+02  0.72160398292E+02  0.10566000000E+00 0.  1.
         13    1    4    4    0    0  0.20805111536E+02  0.13919824842E+02 -0.61061837047E+02  0.65993736803E+02  0.10566000000E+00 0. -1.
        -13    1    4    4    0    0  0.26660948240E+01  0.15130004594E+01 -0.64804325941E+01  0.71696863699E+01  0.10566000000E+00 0.  1.
         14    1    4    4    0    0  0.90521888952E+01  0.62581983566E+01 -0.24665118569E+02  0.27008799390E+02  0.00000000000E+00 0. -1.
<mgrwt>
<rscale>  0 0.79574484E+02</rscale>
<asrwt>0</asrwt>
<pdfrwt beam="1">  1        2 0.25014879E-01 0.79574484E+02</pdfrwt>
<pdfrwt beam="2">  1       -1 0.14978301E-02 0.79574484E+02</pdfrwt>
<totfact> 0.20855976E+05</totfact>
</mgrwt>
</event>
<event>
 8    1  0.2389776E-024  0.7931236E+02  0.7818608E-02  0.1331014E+00
          2   -1    0    0  501    0  0.00000000000E+00  0.00000000000E+00  0.46835841724E+03  0.46835841725E+03  0.25500000000E-02 0. -1.
         -1   -1    0    0    0  501 -0.00000000000E+00 -0.00000000000E+00 -0.33577095761E+01  0.33577133587E+01  0.50400000000E-02 0.  1.
         24    2    1    2    0    0 -0.11102230246E-15  0.17763568394E-14  0.46500070767E+03  0.47171613061E+03  0.79312355568E+02 0.  0.
         66    2    3    3    0    0  0.54983667486E+00 -0.15493321506E+02  0.44957223051E+03  0.44984390157E+03  0.20000011332E+01 0.  0.
        -13    1    3    3    0    0 -0.54983667486E+00  0.15493321506E+02  0.15428477161E+02  0.21872229041E+02  0.10566000000E+00 0.  1.
         13    1    4    4    0    0 -0.25194896202E+00 -0.16183102121E+01  0.56011325546E+02  0.56035365259E+02  0.10566000000E+00 0. -1.
        -13    1    4    4    0    0 -0.13305101993E+00 -0.57798749750E+01  0.15035103927E+03  0.15046219071E+03  0.10566000000E+00 0.  1.
         14    1    4    4    0    0  0.93483665681E+00 -0.80951363188E+01  0.24320986569E+03  0.24334634560E+03  0.00000000000E+00 0. -1.
<mgrwt>
<rscale>  0 0.79312356E+02</rscale>
<asrwt>0</asrwt>
<pdfrwt beam="1">  1        2 0.72055107E-01 0.79312356E+02</pdfrwt>
<pdfrwt beam="2">  1       -1 0.51657124E-03 0.79312356E+02</pdfrwt>
<totfact> 0.30490987E+05</totfact>
</mgrwt>
</event>
<event>
 8    1  0.2389776E-024  0.7767788E+02  0.7818608E-02  0.1335773E+00
         -1   -1    0    0    0  501 -0.00000000000E+00  0.00000000000E+00  0.17743459855E+02  0.17743460571E+02  0.50400000000E-02 0.  1.
          2   -1    0    0  501    0  0.00000000000E+00 -0.00000000000E+00 -0.85015178705E+02  0.85015178743E+02  0.25500000000E-02 0. -1.
         24    2    1    2    0    0  0.00000000000E+00  0.44408920985E-15 -0.67271718850E+02  0.10275863931E+03  0.77677884862E+02 0.  0.
         66    2    3    3    0    0 -0.19953077714E+02  0.37081182135E+01 -0.77424948039E+02  0.80065585796E+02  0.19999997837E+01 0.  0.
        -13    1    3    3    0    0  0.19953077714E+02 -0.37081182135E+01  0.10153229189E+02  0.22693053518E+02  0.10566000000E+00 0.  1.
         13    1    4    4    0    0 -0.31390103873E+01  0.74648290918E+00 -0.14247170779E+02  0.14608342212E+02  0.10566000000E+00 0.  1.
        -13    1    4    4    0    0 -0.12859988800E+02  0.17171294375E+01 -0.47283124299E+02  0.49030937713E+02  0.10566000000E+00 0.  1.
         14    1    4    4    0    0 -0.39540785268E+01  0.12445058668E+01 -0.15894652961E+02  0.16426305872E+02  0.00000000000E+00 0. -1.
<mgrwt>
<rscale>  0 0.77677885E+02</rscale>
<asrwt>0</asrwt>
<pdfrwt beam="1">  1        2 0.13079258E-01 0.77677885E+02</pdfrwt>
<pdfrwt beam="2">  1       -1 0.27297632E-02 0.77677885E+02</pdfrwt>
<totfact> 0.18358036E+05</totfact>
</mgrwt>
</event>
<event>
 8    1  0.2389776E-024  0.7797086E+02  0.7818608E-02  0.1334910E+00
          2   -1    0    0  501    0  0.00000000000E+00  0.00000000000E+00  0.46560657200E+03  0.46560657201E+03  0.25500000000E-02 0. -1.
         -1   -1    0    0    0  501 -0.00000000000E+00 -0.00000000000E+00 -0.32642637674E+01  0.32642676583E+01  0.50400000000E-02 0.  1.
         24    2    1    2    0    0 -0.35527136788E-14  0.00000000000E+00  0.46234230823E+03  0.46887083967E+03  0.77970855495E+02 0.  0.
         66    2    3    3    0    0 -0.18573684637E+02  0.32744278391E+02  0.29166378717E+03  0.29409001050E+03  0.19999999651E+01 0.  0.
        -13    1    3    3    0    0  0.18573684637E+02 -0.32744278391E+02  0.17067852106E+03  0.17478082916E+03  0.10566000000E+00 0.  1.
         13    1    4    4    0    0 -0.75488723897E+01  0.14166775990E+02  0.12431036957E+03  0.12534257921E+03  0.10566000000E+00 0. -1.
        -13    1    4    4    0    0 -0.10357089861E+02  0.16689971987E+02  0.15225664507E+03  0.15351847318E+03  0.10566000000E+00 0.  1.
        -14    1    4    4    0    0 -0.66772238665E+00  0.18875304141E+01  0.15096772527E+02  0.15228958105E+02  0.00000000000E+00 0.  1.
<mgrwt>
<rscale>  0 0.77970855E+02</rscale>
<asrwt>0</asrwt>
<pdfrwt beam="1">  1        2 0.71631757E-01 0.77970855E+02</pdfrwt>
<pdfrwt beam="2">  1       -1 0.50219489E-03 0.77970855E+02</pdfrwt>
<totfact> 0.31813834E+05</totfact>
</mgrwt>
</event>
<event>
 8    1  0.2389776E-024  0.7950763E+02  0.7818608E-02  0.1330455E+00
         -1   -1    0    0    0  501 -0.00000000000E+00  0.00000000000E+00  0.57392126538E+01  0.57392148668E+01  0.50400000000E-02 0.  1.
          2   -1    0    0  501    0  0.00000000000E+00 -0.00000000000E+00 -0.27536278857E+03  0.27536278858E+03  0.25500000000E-02 0. -1.
         24    2    1    2    0    0  0.00000000000E+00  0.35527136788E-14 -0.26962357592E+03  0.28110200345E+03  0.79507632672E+02 0.  0.
         66    2    3    3    0    0 -0.34455995024E+02  0.18605979081E+02 -0.11118953851E+03  0.11790043046E+03  0.19999949268E+01 0.  0.
        -13    1    3    3    0    0  0.34455995024E+02 -0.18605979081E+02 -0.15843403741E+03  0.16320157299E+03  0.10566000000E+00 0.  1.
         13    1    4    4    0    0 -0.63690473717E+00  0.62113339661E+00 -0.27066280083E+01  0.28510442914E+01  0.10566000000E+00 0.  1.
        -13    1    4    4    0    0 -0.14294184874E+02  0.74793074863E+01 -0.46802644375E+02  0.49505175954E+02  0.10566000000E+00 0. -1.
         14    1    4    4    0    0 -0.19524905412E+02  0.10505538198E+02 -0.61680266124E+02  0.65544210219E+02  0.00000000000E+00 0. -1.
<mgrwt>
<rscale>  0 0.79507633E+02</rscale>
<asrwt>0</asrwt>
<pdfrwt beam="1">  1        2 0.42363496E-01 0.79507633E+02</pdfrwt>
<pdfrwt beam="2">  1       -1 0.88295618E-03 0.79507633E+02</pdfrwt>
<totfact> 0.25118878E+05</totfact>
</mgrwt>
</event>
<event>
 8    1  0.2389776E-024  0.8101498E+02  0.7818608E-02  0.1326196E+00
         -1   -1    0    0    0  501 -0.00000000000E+00  0.00000000000E+00  0.10900080393E+01  0.10900196912E+01  0.50400000000E-02 0.  1.
          2   -1    0    0  501    0  0.00000000000E+00 -0.00000000000E+00 -0.15053539251E+04  0.15053539251E+04  0.25500000000E-02 0. -1.
         24    2    1    2    0    0 -0.17763568394E-14  0.00000000000E+00 -0.15042639170E+04  0.15064439448E+04  0.81014977836E+02 0.  0.
         66    2    3    3    0    0  0.14361215190E+02  0.98395616348E+01 -0.14321944026E+04  0.14323015982E+04  0.19999970469E+01 0.  0.
        -13    1    3    3    0    0 -0.14361215190E+02 -0.98395616348E+01 -0.72069514485E+02  0.74142346585E+02  0.10566000000E+00 0.  1.
         13    1    4    4    0    0  0.62097172184E+01  0.46997143240E+01 -0.59874913806E+03  0.59879979075E+03  0.10566000000E+00 0.  1.
        -13    1    4    4    0    0  0.64678932732E+01  0.36561766520E+01 -0.60915669016E+03  0.60920200722E+03  0.10566000000E+00 0. -1.
        -14    1    4    4    0    0  0.16836046981E+01  0.14836706588E+01 -0.22428857434E+03  0.22429980023E+03  0.00000000000E+00 0.  1.
<mgrwt>
<rscale>  0 0.81014978E+02</rscale>
<asrwt>0</asrwt>
<pdfrwt beam="1">  1        2 0.23159125E+00 0.81014978E+02</pdfrwt>
<pdfrwt beam="2">  1       -1 0.16769565E-03 0.81014978E+02</pdfrwt>
<totfact> 0.32135537E+05</totfact>
</mgrwt>
</event>
<event>
 8    1  0.2389776E-024  0.8002967E+02  0.7818608E-02  0.1328967E+00
          2   -1    0    0  501    0  0.00000000000E+00  0.00000000000E+00  0.81258106190E+02  0.81258106230E+02  0.25500000000E-02 0. -1.
         -1   -1    0    0    0  501 -0.00000000000E+00 -0.00000000000E+00 -0.19704951865E+02  0.19704952510E+02  0.50400000000E-02 0.  1.
         24    2    1    2    0    0 -0.88817841970E-15  0.00000000000E+00  0.61553154324E+02  0.10096305874E+03  0.80029672140E+02 0.  0.
         66    2    3    3    0    0 -0.66113596469E+01  0.17466281324E+02  0.75406146171E+02  0.77710153399E+02  0.20000003217E+01 0.  0.
        -13    1    3    3    0    0  0.66113596469E+01 -0.17466281324E+02 -0.13852991847E+02  0.23252905341E+02  0.10566000000E+00 0.  1.
         13    1    4    4    0    0 -0.82394141002E+00  0.23084689704E+01  0.11491474089E+02  0.11750448894E+02  0.10566000000E+00 0. -1.
        -13    1    4    4    0    0 -0.17574303116E+01  0.63353311286E+01  0.24143237988E+02  0.25022631484E+02  0.10566000000E+00 0.  1.
         14    1    4    4    0    0 -0.40299879253E+01  0.88224812246E+01  0.39771434094E+02  0.40937073021E+02  0.00000000000E+00 0. -1.
<mgrwt>
<rscale>  0 0.80029672E+02</rscale>
<asrwt>0</asrwt>
<pdfrwt beam="1">  1        2 0.12501247E-01 0.80029672E+02</pdfrwt>
<pdfrwt beam="2">  1       -1 0.30315311E-02 0.80029672E+02</pdfrwt>
<totfact> 0.16746165E+05</totfact>
</mgrwt>
</event>
<event>
 8    1  0.2389776E-024  0.7949304E+02  0.7818608E-02  0.1330496E+00
         -1   -1    0    0    0  501 -0.00000000000E+00  0.00000000000E+00  0.73902169965E+00  0.73903888541E+00  0.50400000000E-02 0.  1.
          2   -1    0    0  501    0  0.00000000000E+00 -0.00000000000E+00 -0.21376469444E+04  0.21376469444E+04  0.25500000000E-02 0. -1.
         24    2    1    2    0    0 -0.17763568394E-14 -0.88817841970E-15 -0.21369079227E+04  0.21383859833E+04  0.79493040062E+02 0.  0.
         66    2    3    3    0    0 -0.10660782935E+02 -0.53098675284E+01 -0.20884804967E+04  0.20885154134E+04  0.19999991690E+01 0.  0.
        -13    1    3    3    0    0  0.10660782935E+02  0.53098675284E+01 -0.48427425939E+02  0.49870569809E+02  0.10566000000E+00 0.  1.
         13    1    4    4    0    0 -0.14596708899E+01 -0.50129931785E+00 -0.26684988100E+03  0.26685436495E+03  0.10566000000E+00 0. -1.
        -13    1    4    4    0    0 -0.17883343105E+01 -0.29528014916E+00 -0.37581200632E+03  0.37581639212E+03  0.10566000000E+00 0.  1.
        -14    1    4    4    0    0 -0.74127777345E+01 -0.45132880614E+01 -0.14458186094E+04  0.14458446564E+04  0.00000000000E+00 0.  1.
<mgrwt>
<rscale>  0 0.79493040E+02</rscale>
<asrwt>0</asrwt>
<pdfrwt beam="1">  1        2 0.32886381E+00 0.79493040E+02</pdfrwt>
<pdfrwt beam="2">  1       -1 0.11369868E-03 0.79493040E+02</pdfrwt>
<totfact> 0.26383288E+05</totfact>
</mgrwt>
</event>
<event>
 8    1  0.2389776E-024  0.7640699E+02  0.7818608E-02  0.1339569E+00
          2   -1    0    0  501    0  0.00000000000E+00  0.00000000000E+00  0.59501515140E+02  0.59501515195E+02  0.25500000000E-02 0. -1.
         -1   -1    0    0    0  501 -0.00000000000E+00 -0.00000000000E+00 -0.24528906659E+02  0.24528907177E+02  0.50400000000E-02 0.  1.
         24    2    1    2    0    0  0.35527136788E-14  0.00000000000E+00  0.34972608481E+02  0.84030422372E+02  0.76406992743E+02 0.  0.
         66    2    3    3    0    0  0.25961016014E+02 -0.17260369176E+02  0.41733426168E+02  0.52130351582E+02  0.19999999561E+01 0.  0.
        -13    1    3    3    0    0 -0.25961016014E+02  0.17260369176E+02 -0.67608176869E+01  0.31900070790E+02  0.10566000000E+00 0.  1.
         13    1    4    4    0    0  0.17482192872E+02 -0.11061502856E+02  0.28086185659E+02  0.34883074720E+02  0.10566000000E+00 0. -1.
        -13    1    4    4    0    0  0.13720707877E+01 -0.72490246320E+00  0.24148825993E+01  0.28724351745E+01  0.10566000000E+00 0.  1.
        -14    1    4    4    0    0  0.71067523545E+01 -0.54739638564E+01  0.11232357910E+02  0.14374841688E+02  0.00000000000E+00 0.  1.
<mgrwt>
<rscale>  0 0.76406993E+02</rscale>
<asrwt>0</asrwt>
<pdfrwt beam="1">  1        2 0.91540793E-02 0.76406993E+02</pdfrwt>
<pdfrwt beam="2">  1       -1 0.37736780E-02 0.76406993E+02</pdfrwt>
<totfact> 0.17599106E+05</totfact>
</mgrwt>
</event>
<event>
 8    1  0.2389776E-024  0.8147298E+02  0.7818608E-02  0.1324923E+00
          2   -1    0    0  501    0  0.00000000000E+00  0.00000000000E+00  0.59852644181E+03  0.59852644181E+03  0.25500000000E-02 0. -1.
         -1   -1    0    0    0  501 -0.00000000000E+00 -0.00000000000E+00 -0.27725763084E+01  0.27725808893E+01  0.50400000000E-02 0.  1.
         24    2    1    2    0    0  0.35527136788E-14  0.00000000000E+00  0.59575386550E+03  0.60129902270E+03  0.81472979849E+02 0.  0.
         66    2    3    3    0    0  0.16028102447E+02  0.14469737934E+02  0.55277777507E+03  0.55320298444E+03  0.19999993996E+01 0.  0.
        -13    1    3    3    0    0 -0.16028102447E+02 -0.14469737934E+02  0.42976090429E+02  0.48096038262E+02  0.10566000000E+00 0.  1.
         13    1    4    4    0    0  0.15338645533E+01  0.98219099430E+00  0.41166362197E+02  0.41206771048E+02  0.10566000000E+00 0. -1.
        -13    1    4    4    0    0  0.77870685514E+01  0.70056410286E+01  0.25356833844E+03  0.25378461511E+03  0.10566000000E+00 0.  1.
         14    1    4    4    0    0  0.67071693425E+01  0.64819059116E+01  0.25804307443E+03  0.25821159828E+03  0.00000000000E+00 0. -1.
<mgrwt>
<rscale>  0 0.81472980E+02</rscale>
<asrwt>0</asrwt>
<pdfrwt beam="1">  1        2 0.92081031E-01 0.81472980E+02</pdfrwt>
<pdfrwt beam="2">  1       -1 0.42655037E-03 0.81472980E+02</pdfrwt>
<totfact> 0.30649874E+05</totfact>
</mgrwt>
</event>
<event>
 8    1  0.2389776E-024  0.8992112E+02  0.7818608E-02  0.1303043E+00
         -1   -1    0    0    0  501 -0.00000000000E+00  0.00000000000E+00  0.95163327378E+02  0.95163327511E+02  0.50400000000E-02 0.  1.
          2   -1    0    0  501    0  0.00000000000E+00 -0.00000000000E+00 -0.21241919613E+02  0.21241919766E+02  0.25500000000E-02 0. -1.
         24    2    1    2    0    0  0.00000000000E+00  0.00000000000E+00  0.73921407765E+02  0.11640524728E+03  0.89921115806E+02 0.  0.
         66    2    3    3    0    0 -0.24341606511E+02  0.15410035604E+01 -0.11880781915E+02  0.27203703472E+02  0.20000010464E+01 0.  0.
        -13    1    3    3    0    0  0.24341606511E+02 -0.15410035604E+01  0.85802189679E+02  0.89201543806E+02  0.10566000000E+00 0.  1.
         13    1    4    4    0    0 -0.13915716001E+02  0.13126420278E+01 -0.72621635420E+01  0.15751836854E+02  0.10566000000E+00 0. -1.
        -13    1    4    4    0    0 -0.17445412201E+01  0.94248527564E-01 -0.38422279723E+00  0.17919536955E+01  0.10566000000E+00 0.  1.
        -14    1    4    4    0    0 -0.86813492893E+01  0.13411300512E+00 -0.42343955755E+01  0.96599129226E+01  0.00000000000E+00 0.  1.
<mgrwt>
<rscale>  0 0.89921116E+02</rscale>
<asrwt>0</asrwt>
<pdfrwt beam="1">  1        2 0.32679876E-02 0.89921116E+02</pdfrwt>
<pdfrwt beam="2">  1       -1 0.14640512E-01 0.89921116E+02</pdfrwt>
<totfact> 0.89584637E+04</totfact>
</mgrwt>
</event>
<event>
 8    1  0.2389776E-024  0.8030036E+02  0.7818608E-02  0.1328201E+00
          2   -1    0    0  501    0  0.00000000000E+00  0.00000000000E+00  0.76542716881E+01  0.76542721128E+01  0.25500000000E-02 0. -1.
         -1   -1    0    0    0  501 -0.00000000000E+00 -0.00000000000E+00 -0.21060619079E+03  0.21060619085E+03  0.50400000000E-02 0.  1.
         24    2    1    2    0    0  0.00000000000E+00  0.00000000000E+00 -0.20295191910E+03  0.21826046296E+03  0.80300362550E+02 0.  0.
         66    2    3    3    0    0 -0.52505884915E+01  0.29245423788E+02 -0.28243601722E+02  0.41043446800E+02  0.19999987371E+01 0.  0.
        -13    1    3    3    0    0  0.52505884915E+01 -0.29245423788E+02 -0.17470831738E+03  0.17721701616E+03  0.10566000000E+00 0.  1.
         13    1    4    4    0    0 -0.51769316210E+01  0.27951314130E+02 -0.26562399063E+02  0.38905639574E+02  0.10566000000E+00 0. -1.
        -13    1    4    4    0    0 -0.12546745742E+00  0.53985821081E+00 -0.69734524940E+00  0.89701917656E+00  0.10566000000E+00 0.  1.
         14    1    4    4    0    0  0.51810586976E-01  0.75425144668E+00 -0.98385740936E+00  0.12407880495E+01  0.00000000000E+00 0. -1.
<mgrwt>
<rscale>  0 0.80300363E+02</rscale>
<asrwt>0</asrwt>
<pdfrwt beam="1">  1        2 0.11775805E-02 0.80300363E+02</pdfrwt>
<pdfrwt beam="2">  1       -1 0.32400948E-01 0.80300363E+02</pdfrwt>
<totfact> 0.97100857E+04</totfact>
</mgrwt>
</event>
<event>
 8    1  0.2389776E-024  0.8112851E+02  0.7818608E-02  0.1325879E+00
          2   -1    0    0  501    0  0.00000000000E+00  0.00000000000E+00  0.67210832116E+03  0.67210832116E+03  0.25500000000E-02 0. -1.
         -1   -1    0    0    0  501 -0.00000000000E+00 -0.00000000000E+00 -0.24482023642E+01  0.24482075520E+01  0.50400000000E-02 0.  1.
         24    2    1    2    0    0 -0.17763568394E-14  0.00000000000E+00  0.66966011880E+03  0.67455652872E+03  0.81128513662E+02 0.  0.
         66    2    3    3    0    0  0.12263186275E+02  0.11766097967E+02  0.64105643737E+03  0.64128479065E+03  0.20000059201E+01 0.  0.
        -13    1    3    3    0    0 -0.12263186275E+02 -0.11766097967E+02  0.28603681425E+02  0.33271738068E+02  0.10566000000E+00 0.  1.
         13    1    4    4    0    0  0.48771980955E+01  0.41139692943E+01  0.24230259506E+03  0.24238661378E+03  0.10566000000E+00 0. -1.
        -13    1    4    4    0    0  0.58309947115E+01  0.52496242397E+01  0.30294617621E+03  0.30304777824E+03  0.10566000000E+00 0.  1.
        -14    1    4    4    0    0  0.15549934679E+01  0.24025044332E+01  0.95807666104E+02  0.95850398625E+02  0.00000000000E+00 0.  1.
<mgrwt>
<rscale>  0 0.81128514E+02</rscale>
<asrwt>0</asrwt>
<pdfrwt beam="1">  1        2 0.10340131E+00 0.81128514E+02</pdfrwt>
<pdfrwt beam="2">  1       -1 0.37664682E-03 0.81128514E+02</pdfrwt>
<totfact> 0.31946176E+05</totfact>
</mgrwt>
</event>
<event>
 8    1  0.2389776E-024  0.7952986E+02  0.7818608E-02  0.1330391E+00
         -1   -1    0    0    0  501 -0.00000000000E+00  0.00000000000E+00  0.67521763081E+01  0.67521781891E+01  0.50400000000E-02 0.  1.
          2   -1    0    0  501    0  0.00000000000E+00 -0.00000000000E+00 -0.23418368975E+03  0.23418368977E+03  0.25500000000E-02 0. -1.
         24    2    1    2    0    0  0.71054273576E-14 -0.35527136788E-14 -0.22743151344E+03  0.24093586795E+03  0.79529863321E+02 0.  0.
         66    2    3    3    0    0 -0.32531132719E+02  0.21945440652E+02 -0.13279572442E+03  0.13848675527E+03  0.20000000295E+01 0.  0.
        -13    1    3    3    0    0  0.32531132719E+02 -0.21945440652E+02 -0.94635789027E+02  0.10244911269E+03  0.10566000000E+00 0.  1.
         13    1    4    4    0    0 -0.20404847899E+02  0.13396471162E+02 -0.81025794446E+02  0.84622773454E+02  0.10566000000E+00 0. -1.
        -13    1    4    4    0    0 -0.63476259957E+00  0.24157954833E+00 -0.20976830755E+01  0.22074244170E+01  0.10566000000E+00 0.  1.
        -14    1    4    4    0    0 -0.11491522220E+02  0.83073899415E+01 -0.49672246895E+02  0.51656557398E+02  0.00000000000E+00 0.  1.
<mgrwt>
<rscale>  0 0.79529863E+02</rscale>
<asrwt>0</asrwt>
<pdfrwt beam="1">  1        2 0.36028254E-01 0.79529863E+02</pdfrwt>
<pdfrwt beam="2">  1       -1 0.10387967E-02 0.79529863E+02</pdfrwt>
<totfact> 0.23682242E+05</totfact>
</mgrwt>
</event>
<event>
 8    1  0.2389776E-024  0.7904919E+02  0.7818608E-02  0.1331772E+00
         -1   -1    0    0    0  501 -0.00000000000E+00  0.00000000000E+00  0.36834960348E+02  0.36834960693E+02  0.50400000000E-02 0.  1.
          2   -1    0    0  501    0  0.00000000000E+00 -0.00000000000E+00 -0.42410625605E+02  0.42410625682E+02  0.25500000000E-02 0. -1.
         24    2    1    2    0    0  0.00000000000E+00  0.00000000000E+00 -0.55756652571E+01  0.79245586374E+02  0.79049193018E+02 0.  0.
         66    2    3    3    0    0  0.27806678953E+02  0.23216303828E+02 -0.18576136502E+02  0.40758814953E+02  0.19999978010E+01 0.  0.
        -13    1    3    3    0    0 -0.27806678953E+02 -0.23216303828E+02  0.13000471245E+02  0.38486771421E+02  0.10566000000E+00 0.  1.
         13    1    4    4    0    0  0.16819564140E+02  0.13807499150E+02 -0.11640188380E+02  0.24678936772E+02  0.10566000000E+00 0. -1.
        -13    1    4    4    0    0  0.97399267497E+01  0.86959631558E+01 -0.64478640209E+01  0.14562694214E+02  0.10566000000E+00 0.  1.
         14    1    4    4    0    0  0.12471880630E+01  0.71284152195E+00 -0.48808410144E+00  0.15171839671E+01  0.00000000000E+00 0. -1.
<mgrwt>
<rscale>  0 0.79049193E+02</rscale>
<asrwt>0</asrwt>
<pdfrwt beam="1">  1        2 0.65247116E-02 0.79049193E+02</pdfrwt>
<pdfrwt beam="2">  1       -1 0.56669170E-02 0.79049193E+02</pdfrwt>
<totfact> 0.14911976E+05</totfact>
</mgrwt>
</event>
<event>
 8    1  0.2389776E-024  0.7573691E+02  0.7818608E-02  0.1341604E+00
         -1   -1    0    0    0  501 -0.00000000000E+00  0.00000000000E+00  0.32216468615E+01  0.32216508038E+01  0.50400000000E-02 0.  1.
          2   -1    0    0  501    0  0.00000000000E+00 -0.00000000000E+00 -0.44511987602E+03  0.44511987602E+03  0.25500000000E-02 0. -1.
         24    2    1    2    0    0  0.00000000000E+00 -0.35527136788E-14 -0.44189822916E+03  0.44834152683E+03  0.75736911396E+02 0.  0.
         66    2    3    3    0    0  0.17609127513E+02  0.31502679423E+02 -0.28847192970E+03  0.29072762924E+03  0.19999998214E+01 0.  0.
        -13    1    3    3    0    0 -0.17609127513E+02 -0.31502679423E+02 -0.15342629946E+03  0.15761389758E+03  0.10566000000E+00 0.  1.
         13    1    4    4    0    0  0.68377033204E+01  0.11782312221E+02 -0.11491596122E+03  0.11572063936E+03  0.10566000000E+00 0. -1.
        -13    1    4    4    0    0  0.39247992057E+01  0.71753449962E+01 -0.66612790054E+02  0.67113073149E+02  0.10566000000E+00 0.  1.
        -14    1    4    4    0    0  0.68466249867E+01  0.12545022205E+02 -0.10694317843E+03  0.10789391673E+03  0.00000000000E+00 0.  1.
<mgrwt>
<rscale>  0 0.75736911E+02</rscale>
<asrwt>0</asrwt>
<pdfrwt beam="1">  1        2 0.68479932E-01 0.75736911E+02</pdfrwt>
<pdfrwt beam="2">  1       -1 0.49563864E-03 0.75736911E+02</pdfrwt>
<totfact> 0.33799685E+05</totfact>
</mgrwt>
</event>
<event>
 8    1  0.2389776E-024  0.7783726E+02  0.7818608E-02  0.1335303E+00
         -1   -1    0    0    0  501 -0.00000000000E+00  0.00000000000E+00  0.16982265532E+02  0.16982266280E+02  0.50400000000E-02 0.  1.
          2   -1    0    0  501    0  0.00000000000E+00 -0.00000000000E+00 -0.89190676729E+02  0.89190676766E+02  0.25500000000E-02 0. -1.
         24    2    1    2    0    0 -0.17763568394E-14 -0.71054273576E-14 -0.72208411197E+02  0.10617294305E+03  0.77837260919E+02 0.  0.
         66    2    3    3    0    0  0.92062218494E+01  0.35296754173E+02 -0.17724107375E+02  0.40604918042E+02  0.20000027564E+01 0.  0.
        -13    1    3    3    0    0 -0.92062218494E+01 -0.35296754173E+02 -0.54484303822E+02  0.65568025004E+02  0.10566000000E+00 0.  1.
         13    1    4    4    0    0  0.43493686752E+01  0.16731503922E+02 -0.81504258634E+01  0.19112844821E+02  0.10566000000E+00 0. -1.
        -13    1    4    4    0    0  0.32830218418E+01  0.14296443711E+02 -0.77513692598E+01  0.16591004329E+02  0.10566000000E+00 0.  1.
         14    1    4    4    0    0  0.15738313325E+01  0.42688065399E+01 -0.18223122521E+01  0.49010688918E+01  0.00000000000E+00 0. -1.
<mgrwt>
<rscale>  0 0.77837261E+02</rscale>
<asrwt>0</asrwt>
<pdfrwt beam="1">  1        2 0.13721642E-01 0.77837261E+02</pdfrwt>
<pdfrwt beam="2">  1       -1 0.26126564E-02 0.77837261E+02</pdfrwt>
<totfact> 0.18489586E+05</totfact>
</mgrwt>
</event>
<event>
 8    1  0.2389776E-024  0.7984534E+02  0.7818608E-02  0.1329491E+00
         -1   -1    0    0    0  501 -0.00000000000E+00  0.00000000000E+00  0.92059556106E+02  0.92059556244E+02  0.50400000000E-02 0.  1.
          2   -1    0    0  501    0  0.00000000000E+00 -0.00000000000E+00 -0.17312920280E+02  0.17312920467E+02  0.25500000000E-02 0. -1.
         24    2    1    2    0    0  0.00000000000E+00  0.00000000000E+00  0.74746635826E+02  0.10937247671E+03  0.79845344852E+02 0.  0.
         66    2    3    3    0    0 -0.16891426556E+02  0.31000747662E+02  0.11937199920E+02  0.37321084985E+02  0.19999989665E+01 0.  0.
        -13    1    3    3    0    0  0.16891426556E+02 -0.31000747662E+02  0.62809435906E+02  0.72051391726E+02  0.10566000000E+00 0.  1.
         13    1    4    4    0    0 -0.57821815805E+01  0.12123204517E+02  0.46431877479E+01  0.14211828457E+02  0.10566000000E+00 0. -1.
        -13    1    4    4    0    0 -0.12314918265E+01  0.20383334079E+01  0.47935854204E+00  0.24315270610E+01  0.10566000000E+00 0.  1.
        -14    1    4    4    0    0 -0.98777531484E+01  0.16839209738E+02  0.68146536298E+01  0.20677729468E+02  0.00000000000E+00 0.  1.
<mgrwt>
<rscale>  0 0.79845345E+02</rscale>
<asrwt>0</asrwt>
<pdfrwt beam="1">  1        2 0.26635261E-02 0.79845345E+02</pdfrwt>
<pdfrwt beam="2">  1       -1 0.14163009E-01 0.79845345E+02</pdfrwt>
<totfact> 0.12120522E+05</totfact>
</mgrwt>
</event>
<event>
 8    1  0.2389776E-024  0.7905173E+02  0.7818608E-02  0.1331764E+00
          2   -1    0    0  501    0  0.00000000000E+00  0.00000000000E+00  0.41470985230E+03  0.41470985231E+03  0.25500000000E-02 0. -1.
         -1   -1    0    0    0  501 -0.00000000000E+00 -0.00000000000E+00 -0.37671958709E+01  0.37671992423E+01  0.50400000000E-02 0.  1.
         24    2    1    2    0    0  0.00000000000E+00  0.00000000000E+00  0.41094265643E+03  0.41847705155E+03  0.79051728641E+02 0.  0.
         66    2    3    3    0    0  0.69086865362E+00  0.21501907007E+02  0.38097378122E+03  0.38158594219E+03  0.19999988274E+01 0.  0.
        -13    1    3    3    0    0 -0.69086865362E+00 -0.21501907007E+02  0.29968875205E+02  0.36891109356E+02  0.10566000000E+00 0.  1.
         13    1    4    4    0    0  0.22849127420E+00  0.10263065097E+02  0.19484499946E+03  0.19511526770E+03  0.10566000000E+00 0. -1.
        -13    1    4    4    0    0  0.12355381745E+00  0.45538272283E+00  0.10118283040E+02  0.10129829944E+02  0.10566000000E+00 0. -1.
         14    1    4    4    0    0  0.33882356196E+00  0.10783459188E+02  0.17601049872E+03  0.17634084454E+03  0.00000000000E+00 0. -1.
<mgrwt>
<rscale>  0 0.79051729E+02</rscale>
<asrwt>0</asrwt>
<pdfrwt beam="1">  1        2 0.63801518E-01 0.79051729E+02</pdfrwt>
<pdfrwt beam="2">  1       -1 0.57956884E-03 0.79051729E+02</pdfrwt>
<totfact> 0.29514952E+05</totfact>
</mgrwt>
</event>
<event>
 8    1  0.2389776E-024  0.8003177E+02  0.7818608E-02  0.1328961E+00
         -1   -1    0    0    0  501 -0.00000000000E+00  0.00000000000E+00  0.95084101622E+02  0.95084101756E+02  0.50400000000E-02 0.  1.
          2   -1    0    0  501    0  0.00000000000E+00 -0.00000000000E+00 -0.16840575811E+02  0.16840576004E+02  0.25500000000E-02 0. -1.
         24    2    1    2    0    0  0.00000000000E+00  0.00000000000E+00  0.78243525812E+02  0.11192467776E+03  0.80031769693E+02 0.  0.
         66    2    3    3    0    0  0.16976667185E+02  0.16433950155E+02 -0.59755771448E+01  0.24453823109E+02  0.19999990072E+01 0.  0.
        -13    1    3    3    0    0 -0.16976667185E+02 -0.16433950155E+02  0.84219102956E+02  0.87470854650E+02  0.10566000000E+00 0.  1.
         13    1    4    4    0    0  0.71811416577E+00  0.91114451992E+00 -0.47186395968E+00  0.12568579567E+01  0.10566000000E+00 0. -1.
        -13    1    4    4    0    0  0.16185761837E+02  0.15202065392E+02 -0.54204316025E+01  0.22857688449E+02  0.10566000000E+00 0.  1.
        -14    1    4    4    0    0  0.72791182679E-01  0.32074024323E+00 -0.83281582576E-01  0.33927670403E+00  0.00000000000E+00 0.  1.
<mgrwt>
<rscale>  0 0.80031770E+02</rscale>
<asrwt>0</asrwt>
<pdfrwt beam="1">  1        2 0.25908578E-02 0.80031770E+02</pdfrwt>
<pdfrwt beam="2">  1       -1 0.14628323E-01 0.80031770E+02</pdfrwt>
<totfact> 0.11968918E+05</totfact>
</mgrwt>
</event>
<event>
 8    1  0.2389776E-024  0.8042108E+02  0.7818608E-02  0.1327861E+00
         -1   -1    0    0    0  501 -0.00000000000E+00  0.00000000000E+00  0.21127462443E+01  0.21127522558E+01  0.50400000000E-02 0.  1.
          2   -1    0    0  501    0  0.00000000000E+00 -0.00000000000E+00 -0.76530016199E+03  0.76530016199E+03  0.25500000000E-02 0. -1.
         24    2    1    2    0    0  0.00000000000E+00  0.17763568394E-14 -0.76318741575E+03  0.76741291425E+03  0.80421075629E+02 0.  0.
         66    2    3    3    0    0 -0.11130152551E+02  0.11563222398E+02 -0.73338640834E+03  0.73356472945E+03  0.19999856170E+01 0.  0.
        -13    1    3    3    0    0  0.11130152551E+02 -0.11563222398E+02 -0.29801007404E+02  0.33848184802E+02  0.10566000000E+00 0.  1.
         13    1    4    4    0    0 -0.47387966894E+01  0.44293552105E+01 -0.31130193063E+03  0.31136952093E+03  0.10566000000E+00 0. -1.
        -13    1    4    4    0    0 -0.12770990633E+01  0.77246588259E+00 -0.58631342255E+02  0.58650431748E+02  0.10566000000E+00 0.  1.
         14    1    4    4    0    0 -0.51142567981E+01  0.63614013054E+01 -0.36345313545E+03  0.36354477678E+03  0.00000000000E+00 0. -1.
<mgrwt>
<rscale>  0 0.80421076E+02</rscale>
<asrwt>0</asrwt>
<pdfrwt beam="1">  1        2 0.11773827E+00 0.80421076E+02</pdfrwt>
<pdfrwt beam="2">  1       -1 0.32503896E-03 0.80421076E+02</pdfrwt>
<totfact> 0.33626337E+05</totfact>
</mgrwt>
</event>
<event>
 8    1  0.2389776E-024  0.7438509E+02  0.7818608E-02  0.1345786E+00
         -1   -1    0    0    0  501 -0.00000000000E+00  0.00000000000E+00  0.12876639634E+02  0.12876640620E+02  0.50400000000E-02 0.  1.
          2   -1    0    0  501    0  0.00000000000E+00 -0.00000000000E+00 -0.10742595184E+03  0.10742595187E+03  0.25500000000E-02 0. -1.
         24    2    1    2    0    0  0.00000000000E+00  0.00000000000E+00 -0.94549312205E+02  0.12030259249E+03  0.74385088030E+02 0.  0.
         66    2    3    3    0    0 -0.24063267221E+02  0.25802222961E+02 -0.66203064434E+02  0.75044262142E+02  0.20000002321E+01 0.  0.
        -13    1    3    3    0    0  0.24063267221E+02 -0.25802222961E+02 -0.28346247771E+02  0.45258330347E+02  0.10566000000E+00 0.  1.
         13    1    4    4    0    0 -0.27429161039E+01  0.31589389049E+01 -0.89864237493E+01  0.99130953590E+01  0.10566000000E+00 0.  1.
        -13    1    4    4    0    0 -0.18000485794E+01  0.22304872481E+01 -0.49215690539E+01  0.56963369142E+01  0.10566000000E+00 0. -1.
         14    1    4    4    0    0 -0.19520302537E+02  0.20412796808E+02 -0.52295071630E+02  0.59434829869E+02  0.00000000000E+00 0. -1.
<mgrwt>
<rscale>  0 0.74385088E+02</rscale>
<asrwt>0</asrwt>
<pdfrwt beam="1">  1        2 0.16527069E-01 0.74385088E+02</pdfrwt>
<pdfrwt beam="2">  1       -1 0.19810216E-02 0.74385088E+02</pdfrwt>
<totfact> 0.21955946E+05</totfact>
</mgrwt>
</event>
<event>
 8    1  0.2389776E-024  0.7917137E+02  0.7818608E-02  0.1331420E+00
          2   -1    0    0  501    0  0.00000000000E+00  0.00000000000E+00  0.14839053955E+04  0.14839053955E+04  0.25500000000E-02 0. -1.
         -1   -1    0    0    0  501 -0.00000000000E+00 -0.00000000000E+00 -0.10560090628E+01  0.10560210899E+01  0.50400000000E-02 0.  1.
         24    2    1    2    0    0  0.00000000000E+00  0.17763568394E-14  0.14828493864E+04  0.14849614166E+04  0.79171370520E+02 0.  0.
         66    2    3    3    0    0 -0.37494355793E+01  0.14463608862E+02  0.14289421815E+04  0.14290216976E+04  0.20000008961E+01 0.  0.
        -13    1    3    3    0    0  0.37494355793E+01 -0.14463608862E+02  0.53907204950E+02  0.55939718966E+02  0.10566000000E+00 0.  1.
         13    1    4    4    0    0 -0.13012442256E+01  0.42781818842E+01  0.48434086358E+03  0.48436151723E+03  0.10566000000E+00 0. -1.
        -13    1    4    4    0    0 -0.12577100040E+01  0.59757332256E+01  0.60033437606E+03  0.60036544326E+03  0.10566000000E+00 0.  1.
         14    1    4    4    0    0 -0.11904813498E+01  0.42096937517E+01  0.34426694185E+03  0.34429473713E+03  0.00000000000E+00 0. -1.
<mgrwt>
<rscale>  0 0.79171371E+02</rscale>
<asrwt>0</asrwt>
<pdfrwt beam="1">  1        2 0.22829342E+00 0.79171371E+02</pdfrwt>
<pdfrwt beam="2">  1       -1 0.16246366E-03 0.79171371E+02</pdfrwt>
<totfact> 0.34299327E+05</totfact>
</mgrwt>
</event>
<event>
 8    1  0.2389776E-024  0.8003491E+02  0.7818608E-02  0.1328952E+00
          2   -1    0    0  501    0  0.00000000000E+00  0.00000000000E+00  0.60615665053E+02  0.60615665107E+02  0.25500000000E-02 0. -1.
         -1   -1    0    0    0  501 -0.00000000000E+00 -0.00000000000E+00 -0.26418857168E+02  0.26418857649E+02  0.50400000000E-02 0.  1.
         24    2    1    2    0    0  0.00000000000E+00  0.00000000000E+00  0.34196807885E+02  0.87034522756E+02  0.80034907895E+02 0.  0.
         66    2    3    3    0    0  0.35491968811E+02  0.11160426604E+01  0.37115490342E+02  0.51405106923E+02  0.19999982923E+01 0.  0.
        -13    1    3    3    0    0 -0.35491968811E+02 -0.11160426604E+01 -0.29186824566E+01  0.35629415833E+02  0.10566000000E+00 0.  1.
         13    1    4    4    0    0  0.68492772571E+01  0.71199406407E+00  0.73499898801E+01  0.10072390469E+02  0.10566000000E+00 0. -1.
        -13    1    4    4    0    0  0.20659170806E+02  0.67223586840E+00  0.20780740520E+02  0.29310468779E+02  0.10566000000E+00 0.  1.
        -14    1    4    4    0    0  0.79835207482E+01 -0.26818727212E+00  0.89847599420E+01  0.12022247675E+02  0.00000000000E+00 0.  1.
<mgrwt>
<rscale>  0 0.80034908E+02</rscale>
<asrwt>0</asrwt>
<pdfrwt beam="1">  1        2 0.93254869E-02 0.80034908E+02</pdfrwt>
<pdfrwt beam="2">  1       -1 0.40644396E-02 0.80034908E+02</pdfrwt>
<totfact> 0.15584502E+05</totfact>
</mgrwt>
</event>
<event>
 8    1  0.2389776E-024  0.7810463E+02  0.7818608E-02  0.1334518E+00
          2   -1    0    0  501    0  0.00000000000E+00  0.00000000000E+00  0.19329757214E+03  0.19329757216E+03  0.25500000000E-02 0. -1.
         -1   -1    0    0    0  501 -0.00000000000E+00 -0.00000000000E+00 -0.78898207083E+01  0.78898223181E+01  0.50400000000E-02 0.  1.
         24    2    1    2    0    0  0.35527136788E-14  0.00000000000E+00  0.18540775143E+03  0.20118739448E+03  0.78104631135E+02 0.  0.
         66    2    3    3    0    0 -0.27451896588E+02  0.16235724755E+02  0.15069999056E+03  0.15405094135E+03  0.19999977504E+01 0.  0.
        -13    1    3    3    0    0  0.27451896588E+02 -0.16235724755E+02  0.34707760872E+02  0.47136453127E+02  0.10566000000E+00 0.  1.
         13    1    4    4    0    0 -0.10039800486E+02  0.55341015849E+01  0.54279678663E+02  0.55477189492E+02  0.10566000000E+00 0. -1.
        -13    1    4    4    0    0 -0.67497833691E+01  0.46014921395E+01  0.35612011692E+02  0.36537102324E+02  0.10566000000E+00 0.  1.
        -14    1    4    4    0    0 -0.10662312733E+02  0.61001310306E+01  0.60808300206E+02  0.62036649534E+02  0.00000000000E+00 0.  1.
<mgrwt>
<rscale>  0 0.78104631E+02</rscale>
<asrwt>0</asrwt>
<pdfrwt beam="1">  1        2 0.29738086E-01 0.78104631E+02</pdfrwt>
<pdfrwt beam="2">  1       -1 0.12138188E-02 0.78104631E+02</pdfrwt>
<totfact> 0.23222696E+05</totfact>
</mgrwt>
</event>
<event>
 8    1  0.2389776E-024  0.8043555E+02  0.7818608E-02  0.1327820E+00
         -1   -1    0    0    0  501 -0.00000000000E+00  0.00000000000E+00  0.20077969610E+01  0.20078032868E+01  0.50400000000E-02 0.  1.
          2   -1    0    0  501    0  0.00000000000E+00 -0.00000000000E+00 -0.80559285640E+03  0.80559285641E+03  0.25500000000E-02 0. -1.
         24    2    1    2    0    0  0.00000000000E+00  0.00000000000E+00 -0.80358505944E+03  0.80760065969E+03  0.80435550471E+02 0.  0.
         66    2    3    3    0    0  0.23760673357E+02  0.20602088468E+02 -0.65333963076E+03  0.65409914292E+03  0.20000002551E+01 0.  0.
        -13    1    3    3    0    0 -0.23760673357E+02 -0.20602088468E+02 -0.15024542868E+03  0.15350151677E+03  0.10566000000E+00 0.  1.
         13    1    4    4    0    0  0.12462265757E+02  0.11471765065E+02 -0.36331721612E+03  0.36371186419E+03  0.10566000000E+00 0.  1.
        -13    1    4    4    0    0  0.38962879051E+01  0.34391612129E+01 -0.11058146453E+03  0.11070356973E+03  0.10566000000E+00 0. -1.
        -14    1    4    4    0    0  0.74021196943E+01  0.56911621901E+01 -0.17944095011E+03  0.17968370900E+03  0.00000000000E+00 0.  1.
<mgrwt>
<rscale>  0 0.80435550E+02</rscale>
<asrwt>0</asrwt>
<pdfrwt beam="1">  1        2 0.12393711E+00 0.80435550E+02</pdfrwt>
<pdfrwt beam="2">  1       -1 0.30889297E-03 0.80435550E+02</pdfrwt>
<totfact> 0.33924560E+05</totfact>
</mgrwt>
</event>
<event>
 8    1  0.2389776E-024  0.7851539E+02  0.7818608E-02  0.1333318E+00
         -1   -1    0    0    0  501 -0.00000000000E+00  0.00000000000E+00  0.18039982508E+03  0.18039982515E+03  0.50400000000E-02 0.  1.
          2   -1    0    0  501    0  0.00000000000E+00 -0.00000000000E+00 -0.85430601191E+01  0.85430604997E+01  0.25500000000E-02 0. -1.
         24    2    1    2    0    0  0.00000000000E+00  0.00000000000E+00  0.17185676496E+03  0.18894288565E+03  0.78515389415E+02 0.  0.
         66    2    3    3    0    0 -0.38678678688E+02 -0.24508446296E+01  0.71323461003E+02  0.81197801339E+02  0.20000070966E+01 0.  0.
        -13    1    3    3    0    0  0.38678678688E+02  0.24508446296E+01  0.10053330396E+03  0.10774508431E+03  0.10566000000E+00 0.  1.
         13    1    4    4    0    0 -0.12759489732E+02 -0.50800757995E+00  0.24442748492E+02  0.27577559134E+02  0.10566000000E+00 0. -1.
        -13    1    4    4    0    0 -0.13357914239E+01  0.14874244275E+00  0.22009310652E+01  0.25810316991E+01  0.10566000000E+00 0.  1.
         14    1    4    4    0    0 -0.24583397533E+02 -0.20915794924E+01  0.44679781446E+02  0.51039210506E+02  0.00000000000E+00 0. -1.
<mgrwt>
<rscale>  0 0.78515389E+02</rscale>
<asrwt>0</asrwt>
<pdfrwt beam="1">  1        2 0.13143169E-02 0.78515389E+02</pdfrwt>
<pdfrwt beam="2">  1       -1 0.27753820E-01 0.78515389E+02</pdfrwt>
<totfact> 0.10765900E+05</totfact>
</mgrwt>
</event>
<event>
 8    1  0.2389776E-024  0.8009848E+02  0.7818608E-02  0.1328772E+00
         -1   -1    0    0    0  501 -0.00000000000E+00  0.00000000000E+00  0.23022130793E+01  0.23022185961E+01  0.50400000000E-02 0.  1.
          2   -1    0    0  501    0  0.00000000000E+00 -0.00000000000E+00 -0.69669480571E+03  0.69669480571E+03  0.25500000000E-02 0. -1.
         24    2    1    2    0    0  0.00000000000E+00  0.00000000000E+00 -0.69439259263E+03  0.69899702431E+03  0.80098484972E+02 0.  0.
         66    2    3    3    0    0 -0.47040143824E+00 -0.29975525226E+02 -0.57882387775E+03  0.57960317014E+03  0.19999987175E+01 0.  0.
        -13    1    3    3    0    0  0.47040143824E+00  0.29975525226E+02 -0.11556871488E+03  0.11939385417E+03  0.10566000000E+00 0.  1.
         13    1    4    4    0    0 -0.83084734160E-01 -0.35826496163E+01 -0.75970159743E+02  0.76054708051E+02  0.10566000000E+00 0. -1.
        -13    1    4    4    0    0 -0.82726295802E+00 -0.17805745872E+02 -0.33025568449E+03  0.33073638635E+03  0.10566000000E+00 0.  1.
         14    1    4    4    0    0  0.43994625394E+00 -0.85871297381E+01 -0.17259803351E+03  0.17281207574E+03  0.00000000000E+00 0. -1.
<mgrwt>
<rscale>  0 0.80098485E+02</rscale>
<asrwt>0</asrwt>
<pdfrwt beam="1">  1        2 0.10718365E+00 0.80098485E+02</pdfrwt>
<pdfrwt beam="2">  1       -1 0.35418761E-03 0.80098485E+02</pdfrwt>
<totfact> 0.33308638E+05</totfact>
</mgrwt>
</event>
<event>
 8    1  0.2389776E-024  0.7822463E+02  0.7818608E-02  0.1334167E+00
         -1   -1    0    0    0  501 -0.00000000000E+00  0.00000000000E+00  0.16349568875E+02  0.16349569652E+02  0.50400000000E-02 0.  1.
          2   -1    0    0  501    0  0.00000000000E+00 -0.00000000000E+00 -0.93566572527E+02  0.93566572562E+02  0.25500000000E-02 0. -1.
         24    2    1    2    0    0  0.00000000000E+00  0.00000000000E+00 -0.77217003652E+02  0.10991614221E+03  0.78224629538E+02 0.  0.
         66    2    3    3    0    0 -0.32353066695E+02 -0.15462093298E+02 -0.60491125212E+02  0.70348940805E+02  0.19999973308E+01 0.  0.
        -13    1    3    3    0    0  0.32353066695E+02  0.15462093298E+02 -0.16725878440E+02  0.39567201409E+02  0.10566000000E+00 0.  1.
         13    1    4    4    0    0 -0.14291289692E+02 -0.65419910941E+01 -0.27868912788E+02  0.31995719597E+02  0.10566000000E+00 0. -1.
        -13    1    4    4    0    0 -0.16458902978E+02 -0.81202574739E+01 -0.29160533063E+02  0.34455506399E+02  0.10566000000E+00 0.  1.
        -14    1    4    4    0    0 -0.16028740249E+01 -0.79984472963E+00 -0.34616793609E+01  0.38977148086E+01  0.00000000000E+00 0.  1.
<mgrwt>
<rscale>  0 0.78224630E+02</rscale>
<asrwt>0</asrwt>
<pdfrwt beam="1">  1        2 0.14394857E-01 0.78224630E+02</pdfrwt>
<pdfrwt beam="2">  1       -1 0.25153184E-02 0.78224630E+02</pdfrwt>
<totfact> 0.18481800E+05</totfact>
</mgrwt>
</event>
<event>
 8    1  0.2389776E-024  0.7738974E+02  0.7818608E-02  0.1336627E+00
         -1   -1    0    0    0  501 -0.00000000000E+00  0.00000000000E+00  0.60156695748E+02  0.60156695959E+02  0.50400000000E-02 0.  1.
          2   -1    0    0  501    0  0.00000000000E+00 -0.00000000000E+00 -0.24889883091E+02  0.24889883221E+02  0.25500000000E-02 0. -1.
         24    2    1    2    0    0 -0.17763568394E-14  0.00000000000E+00  0.35266812657E+02  0.85046579180E+02  0.77389744510E+02 0.  0.
         66    2    3    3    0    0  0.14822393171E+02 -0.31584997657E+02 -0.67692193892E+00  0.34953878744E+02  0.19999999014E+01 0.  0.
        -13    1    3    3    0    0 -0.14822393171E+02  0.31584997657E+02  0.35943734596E+02  0.50092700437E+02  0.10566000000E+00 0.  1.
         13    1    4    4    0    0  0.34335084819E+01 -0.85337728735E+01 -0.75819779335E+00  0.92304002016E+01  0.10566000000E+00 0. -1.
        -13    1    4    4    0    0  0.72222784573E+00 -0.12000338998E+01 -0.86173198157E-01  0.14072257380E+01  0.10566000000E+00 0.  1.
         14    1    4    4    0    0  0.10666656843E+02 -0.21851190884E+02  0.16744905259E+00  0.24316252804E+02  0.00000000000E+00 0. -1.
<mgrwt>
<rscale>  0 0.77389745E+02</rscale>
<asrwt>0</asrwt>
<pdfrwt beam="1">  1        2 0.38292128E-02 0.77389745E+02</pdfrwt>
<pdfrwt beam="2">  1       -1 0.92548763E-02 0.77389745E+02</pdfrwt>
<totfact> 0.14242652E+05</totfact>
</mgrwt>
</event>
<event>
 8    1  0.2389776E-024  0.7610446E+02  0.7818608E-02  0.1340485E+00
         -1   -1    0    0    0  501 -0.00000000000E+00  0.00000000000E+00  0.23199286950E+01  0.23199341696E+01  0.50400000000E-02 0.  1.
          2   -1    0    0  501    0  0.00000000000E+00 -0.00000000000E+00 -0.62414439803E+03  0.62414439803E+03  0.25500000000E-02 0. -1.
         24    2    1    2    0    0 -0.88817841970E-15  0.00000000000E+00 -0.62182446933E+03  0.62646433220E+03  0.76104460191E+02 0.  0.
         66    2    3    3    0    0  0.67014900134E+01  0.31587255317E+02 -0.47643736788E+03  0.47753453297E+03  0.19999996492E+01 0.  0.
        -13    1    3    3    0    0 -0.67014900134E+01 -0.31587255317E+02 -0.14538710145E+03  0.14892979923E+03  0.10566000000E+00 0.  1.
         13    1    4    4    0    0  0.25517750103E+01  0.13024110811E+02 -0.19500926884E+03  0.19546039271E+03  0.10566000000E+00 0. -1.
        -13    1    4    4    0    0  0.15054424121E+01  0.58363046220E+01 -0.79664854849E+02  0.79892609612E+02  0.10566000000E+00 0.  1.
        -14    1    4    4    0    0  0.26442725911E+01  0.12726839884E+02 -0.20176324419E+03  0.20218153065E+03  0.00000000000E+00 0.  1.
<mgrwt>
<rscale>  0 0.76104460E+02</rscale>
<asrwt>0</asrwt>
<pdfrwt beam="1">  1        2 0.96022081E-01 0.76104460E+02</pdfrwt>
<pdfrwt beam="2">  1       -1 0.35691303E-03 0.76104460E+02</pdfrwt>
<totfact> 0.37007853E+05</totfact>
</mgrwt>
</event>
<event>
 8    1  0.2389776E-024  0.8193224E+02  0.7818608E-02  0.1323656E+00
         -1   -1    0    0    0  501 -0.00000000000E+00  0.00000000000E+00  0.27774393273E+01  0.27774439002E+01  0.50400000000E-02 0.  1.
          2   -1    0    0  501    0  0.00000000000E+00 -0.00000000000E+00 -0.60423336614E+03  0.60423336614E+03  0.25500000000E-02 0. -1.
         24    2    1    2    0    0  0.00000000000E+00  0.00000000000E+00 -0.60145592681E+03  0.60701081004E+03  0.81932237941E+02 0.  0.
         66    2    3    3    0    0 -0.33410751568E+02  0.16463766213E+02 -0.42682916164E+03  0.42845591037E+03  0.19999973279E+01 0.  0.
        -13    1    3    3    0    0  0.33410751568E+02 -0.16463766213E+02 -0.17462676517E+03  0.17855489967E+03  0.10566000000E+00 0.  1.
         13    1    4    4    0    0 -0.96094938459E+01  0.45065652661E+01 -0.11909096997E+03  0.11956304527E+03  0.10566000000E+00 0. -1.
        -13    1    4    4    0    0 -0.11737891633E+02  0.67701850333E+01 -0.15786606761E+03  0.15844658397E+03  0.10566000000E+00 0.  1.
        -14    1    4    4    0    0 -0.12063366089E+02  0.51870159133E+01 -0.14987212406E+03  0.15044628113E+03  0.00000000000E+00 0.  1.
<mgrwt>
<rscale>  0 0.81932238E+02</rscale>
<asrwt>0</asrwt>
<pdfrwt beam="1">  1        2 0.92958875E-01 0.81932238E+02</pdfrwt>
<pdfrwt beam="2">  1       -1 0.42729919E-03 0.81932238E+02</pdfrwt>
<totfact> 0.30283705E+05</totfact>
</mgrwt>
</event>
<event>
 8    1  0.2389776E-024  0.7889891E+02  0.7818608E-02  0.1332206E+00
          2   -1    0    0  501    0  0.00000000000E+00  0.00000000000E+00  0.53895246846E+03  0.53895246847E+03  0.25500000000E-02 0. -1.
         -1   -1    0    0    0  501 -0.00000000000E+00 -0.00000000000E+00 -0.28875614791E+01  0.28875658776E+01  0.50400000000E-02 0.  1.
         24    2    1    2    0    0  0.35527136788E-14  0.00000000000E+00  0.53606490699E+03  0.54184003435E+03  0.78898912040E+02 0.  0.
         66    2    3    3    0    0 -0.28880976009E+02 -0.78227613020E+01  0.44449341305E+03  0.44550387273E+03  0.20000008747E+01 0.  0.
        -13    1    3    3    0    0  0.28880976009E+02  0.78227613020E+01  0.91571493935E+02  0.96336161618E+02  0.10566000000E+00 0.  1.
         13    1    4    4    0    0 -0.59277261809E+01 -0.88567917909E+00  0.88864556994E+02  0.89066508964E+02  0.10566000000E+00 0. -1.
        -13    1    4    4    0    0 -0.43753380861E+01 -0.15324934177E+01  0.72632318039E+02  0.72780195845E+02  0.10566000000E+00 0.  1.
         14    1    4    4    0    0 -0.18577911742E+02 -0.54045887053E+01  0.28299653802E+03  0.28365716792E+03  0.00000000000E+00 0. -1.
<mgrwt>
<rscale>  0 0.78898912E+02</rscale>
<asrwt>0</asrwt>
<pdfrwt beam="1">  1        2 0.82915726E-01 0.78898912E+02</pdfrwt>
<pdfrwt beam="2">  1       -1 0.44424077E-03 0.78898912E+02</pdfrwt>
<totfact> 0.32316005E+05</totfact>
</mgrwt>
</event>
<event>
 8    1  0.2389776E-024  0.8021477E+02  0.7818608E-02  0.1328443E+00
          2   -1    0    0  501    0  0.00000000000E+00  0.00000000000E+00  0.17403488838E+03  0.17403488840E+03  0.25500000000E-02 0. -1.
         -1   -1    0    0    0  501 -0.00000000000E+00 -0.00000000000E+00 -0.92429872279E+01  0.92429886020E+01  0.50400000000E-02 0.  1.
         24    2    1    2    0    0 -0.35527136788E-14  0.00000000000E+00  0.16479190115E+03  0.18327787700E+03  0.80214771163E+02 0.  0.
         66    2    3    3    0    0 -0.27714177885E+02  0.97125748680E+01  0.14477700084E+03  0.14773892422E+03  0.19999976848E+01 0.  0.
        -13    1    3    3    0    0  0.27714177885E+02 -0.97125748680E+01  0.20014900316E+02  0.35538952785E+02  0.10566000000E+00 0.  1.
         13    1    4    4    0    0 -0.10014474733E+02  0.32100404970E+01  0.50901387184E+02  0.51976498972E+02  0.10566000000E+00 0. -1.
        -13    1    4    4    0    0 -0.87790950703E+01  0.38174720329E+01  0.45057584864E+02  0.46063464056E+02  0.10566000000E+00 0.  1.
        -14    1    4    4    0    0 -0.89206080819E+01  0.26850623381E+01  0.48818028791E+02  0.49698961190E+02  0.00000000000E+00 0.  1.
<mgrwt>
<rscale>  0 0.80214771E+02</rscale>
<asrwt>0</asrwt>
<pdfrwt beam="1">  1        2 0.26774599E-01 0.80214771E+02</pdfrwt>
<pdfrwt beam="2">  1       -1 0.14219981E-02 0.80214771E+02</pdfrwt>
<totfact> 0.20885052E+05</totfact>
</mgrwt>
</event>
<event>
 8    1  0.2389776E-024  0.8085400E+02  0.7818608E-02  0.1326645E+00
          2   -1    0    0  501    0  0.00000000000E+00  0.00000000000E+00  0.48087830085E+02  0.48087830153E+02  0.25500000000E-02 0. -1.
         -1   -1    0    0    0  501 -0.00000000000E+00 -0.00000000000E+00 -0.33986605483E+02  0.33986605857E+02  0.50400000000E-02 0.  1.
         24    2    1    2    0    0  0.00000000000E+00  0.00000000000E+00  0.14101224602E+02  0.82074436010E+02  0.80853995022E+02 0.  0.
         66    2    3    3    0    0 -0.17478084432E+02  0.35928700453E+02  0.96585382301E+00  0.40016094611E+02  0.20000006486E+01 0.  0.
        -13    1    3    3    0    0  0.17478084432E+02 -0.35928700453E+02  0.13135370779E+02  0.42058341399E+02  0.10566000000E+00 0.  1.
         13    1    4    4    0    0 -0.46692717635E+01  0.11132651652E+02  0.68008081291E+00  0.12091803238E+02  0.10566000000E+00 0.  1.
        -13    1    4    4    0    0 -0.36331793035E+01  0.62225292285E+01  0.11288873742E+00  0.72072026303E+01  0.10566000000E+00 0. -1.
         14    1    4    4    0    0 -0.91756333653E+01  0.18573519573E+02  0.17288427269E+00  0.20717088742E+02  0.00000000000E+00 0. -1.
<mgrwt>
<rscale>  0 0.80853995E+02</rscale>
<asrwt>0</asrwt>
<pdfrwt beam="1">  1        2 0.73981276E-02 0.80853995E+02</pdfrwt>
<pdfrwt beam="2">  1       -1 0.52287086E-02 0.80853995E+02</pdfrwt>
<totfact> 0.14391689E+05</totfact>
</mgrwt>
</event>
<event>
 8    1  0.2389776E-024  0.7588704E+02  0.7818608E-02  0.1341146E+00
          2   -1    0    0  501    0  0.00000000000E+00  0.00000000000E+00  0.14814534175E+04  0.14814534175E+04  0.25500000000E-02 0. -1.
         -1   -1    0    0    0  501 -0.00000000000E+00 -0.00000000000E+00 -0.97181649012E+00  0.97182955917E+00  0.50400000000E-02 0.  1.
         24    2    1    2    0    0  0.35527136788E-14 -0.33306690739E-15  0.14804816010E+04  0.14824252470E+04  0.75887035757E+02 0.  0.
         66    2    3    3    0    0  0.20781032311E+02 -0.54514804735E+00  0.13602068617E+04  0.13603671766E+04  0.19999998119E+01 0.  0.
        -13    1    3    3    0    0 -0.20781032311E+02  0.54514804735E+00  0.12027473926E+03  0.12205807043E+03  0.10566000000E+00 0.  1.
         13    1    4    4    0    0  0.10740439656E+02  0.50350413857E+00  0.69426281261E+03  0.69434607704E+03  0.10566000000E+00 0. -1.
        -13    1    4    4    0    0  0.47973752798E+01 -0.66472438462E+00  0.34457972679E+03  0.34461377794E+03  0.10566000000E+00 0.  1.
         14    1    4    4    0    0  0.52432173758E+01 -0.38392780130E+00  0.32136432231E+03  0.32140732161E+03  0.00000000000E+00 0. -1.
<mgrwt>
<rscale>  0 0.75887036E+02</rscale>
<asrwt>0</asrwt>
<pdfrwt beam="1">  1        2 0.22791557E+00 0.75887036E+02</pdfrwt>
<pdfrwt beam="2">  1       -1 0.14951146E-03 0.75887036E+02</pdfrwt>
<totfact> 0.38300826E+05</totfact>
</mgrwt>
</event>
<event>
 8    1  0.2389776E-024  0.7977065E+02  0.7818608E-02  0.1329704E+00
         -1   -1    0    0    0  501 -0.00000000000E+00  0.00000000000E+00  0.71037834458E+01  0.71037852337E+01  0.50400000000E-02 0.  1.
          2   -1    0    0  501    0  0.00000000000E+00 -0.00000000000E+00 -0.22394247036E+03  0.22394247037E+03  0.25500000000E-02 0. -1.
         24    2    1    2    0    0  0.00000000000E+00  0.88817841970E-15 -0.21683868691E+03  0.23104625560E+03  0.79770646781E+02 0.  0.
         66    2    3    3    0    0 -0.29151272433E+02 -0.59258350180E+01 -0.18533273595E+03  0.18771557000E+03  0.20000001481E+01 0.  0.
        -13    1    3    3    0    0  0.29151272433E+02  0.59258350180E+01 -0.31505950965E+02  0.43330685609E+02  0.10566000000E+00 0.  1.
         13    1    4    4    0    0 -0.12879408316E+02 -0.25319747861E+01 -0.81676308895E+02  0.82724365538E+02  0.10566000000E+00 0. -1.
        -13    1    4    4    0    0 -0.70845333978E+01 -0.73432806408E+00 -0.44634334282E+02  0.45199168266E+02  0.10566000000E+00 0.  1.
        -14    1    4    4    0    0 -0.91873307190E+01 -0.26595321679E+01 -0.59022092768E+02  0.59792036191E+02  0.00000000000E+00 0.  1.
<mgrwt>
<rscale>  0 0.79770647E+02</rscale>
<asrwt>0</asrwt>
<pdfrwt beam="1">  1        2 0.34452682E-01 0.79770647E+02</pdfrwt>
<pdfrwt beam="2">  1       -1 0.10928901E-02 0.79770647E+02</pdfrwt>
<totfact> 0.23124968E+05</totfact>
</mgrwt>
</event>
<event>
 8    1  0.2389776E-024  0.8057709E+02  0.7818608E-02  0.1327422E+00
          2   -1    0    0  501    0  0.00000000000E+00  0.00000000000E+00  0.24419279720E+03  0.24419279721E+03  0.25500000000E-02 0. -1.
         -1   -1    0    0    0  501 -0.00000000000E+00 -0.00000000000E+00 -0.66470695205E+01  0.66470714312E+01  0.50400000000E-02 0.  1.
         24    2    1    2    0    0  0.71054273576E-14  0.35527136788E-14  0.23754572768E+03  0.25083986864E+03  0.80577087083E+02 0.  0.
         66    2    3    3    0    0 -0.35980403583E+02 -0.18053917492E+02  0.11637810552E+03  0.12316004564E+03  0.20000046717E+01 0.  0.
        -13    1    3    3    0    0  0.35980403583E+02  0.18053917492E+02  0.12116762216E+03  0.12767982301E+03  0.10566000000E+00 0.  1.
         13    1    4    4    0    0 -0.21343382221E+02 -0.10384582431E+02  0.67556312945E+02  0.71604791038E+02  0.10566000000E+00 0. -1.
        -13    1    4    4    0    0 -0.43511854904E+01 -0.19635807145E+01  0.12795572793E+02  0.13657463583E+02  0.10566000000E+00 0.  1.
         14    1    4    4    0    0 -0.10285835871E+02 -0.57057543470E+01  0.36026219778E+02  0.37897791014E+02  0.00000000000E+00 0. -1.
<mgrwt>
<rscale>  0 0.80577087E+02</rscale>
<asrwt>0</asrwt>
<pdfrwt beam="1">  1        2 0.37568124E-01 0.80577087E+02</pdfrwt>
<pdfrwt beam="2">  1       -1 0.10226262E-02 0.80577087E+02</pdfrwt>
<totfact> 0.23225118E+05</totfact>
</mgrwt>
</event>
<event>
 8    1  0.2389776E-024  0.7969554E+02  0.7818608E-02  0.1329918E+00
          2   -1    0    0  501    0  0.00000000000E+00  0.00000000000E+00  0.18544703858E+03  0.18544703860E+03  0.25500000000E-02 0. -1.
         -1   -1    0    0    0  501 -0.00000000000E+00 -0.00000000000E+00 -0.85622542857E+01  0.85622557690E+01  0.50400000000E-02 0.  1.
         24    2    1    2    0    0  0.00000000000E+00  0.00000000000E+00  0.17688478430E+03  0.19400929437E+03  0.79695541820E+02 0.  0.
         66    2    3    3    0    0  0.20063421371E+01  0.20782615222E+02  0.17104812150E+03  0.17232934278E+03  0.20000030495E+01 0.  0.
        -13    1    3    3    0    0 -0.20063421371E+01 -0.20782615222E+02  0.58366628038E+01  0.21679951590E+02  0.10566000000E+00 0.  1.
         13    1    4    4    0    0  0.27441895830E+00  0.79099738102E+01  0.67039626896E+02  0.67505301494E+02  0.10566000000E+00 0. -1.
        -13    1    4    4    0    0  0.12750514325E+01  0.11020589845E+02  0.85281496359E+02  0.86000139198E+02  0.10566000000E+00 0.  1.
        -14    1    4    4    0    0  0.45687174627E+00  0.18520515659E+01  0.18726998240E+02  0.18823902089E+02  0.00000000000E+00 0.  1.
<mgrwt>
<rscale>  0 0.79695542E+02</rscale>
<asrwt>0</asrwt>
<pdfrwt beam="1">  1        2 0.28530313E-01 0.79695542E+02</pdfrwt>
<pdfrwt beam="2">  1       -1 0.13172700E-02 0.79695542E+02</pdfrwt>
<totfact> 0.21709207E+05</totfact>
</mgrwt>
</event>
<event>
 8    1  0.2389776E-024  0.7813709E+02  0.7818608E-02  0.1334423E+00
          2   -1    0    0  501    0  0.00000000000E+00  0.00000000000E+00  0.18954620412E+03  0.18954620413E+03  0.25500000000E-02 0. -1.
         -1   -1    0    0    0  501 -0.00000000000E+00 -0.00000000000E+00 -0.80526599579E+01  0.80526615351E+01  0.50400000000E-02 0.  1.
         24    2    1    2    0    0  0.00000000000E+00  0.71054273576E-14  0.18149354416E+03  0.19759886567E+03  0.78137091975E+02 0.  0.
         66    2    3    3    0    0 -0.25020852965E+02  0.27856332463E+02  0.11877591109E+03  0.12455414647E+03  0.20000014119E+01 0.  0.
        -13    1    3    3    0    0  0.25020852965E+02 -0.27856332463E+02  0.62717633068E+02  0.73044719201E+02  0.10566000000E+00 0.  1.
         13    1    4    4    0    0 -0.19182204010E+02  0.21957929877E+02  0.90983163398E+02  0.95540854199E+02  0.10566000000E+00 0. -1.
        -13    1    4    4    0    0 -0.56724952507E+01  0.58521345728E+01  0.27086724244E+02  0.28286506955E+02  0.10566000000E+00 0.  1.
         14    1    4    4    0    0 -0.16615370401E+00  0.46268013776E-01  0.70602344764E+00  0.72678531291E+00  0.00000000000E+00 0. -1.
<mgrwt>
<rscale>  0 0.78137092E+02</rscale>
<asrwt>0</asrwt>
<pdfrwt beam="1">  1        2 0.29160954E-01 0.78137092E+02</pdfrwt>
<pdfrwt beam="2">  1       -1 0.12388709E-02 0.78137092E+02</pdfrwt>
<totfact> 0.23041825E+05</totfact>
</mgrwt>
</event>
<event>
 8    1  0.2389776E-024  0.7935092E+02  0.7818608E-02  0.1330904E+00
          2   -1    0    0  501    0  0.00000000000E+00  0.00000000000E+00  0.72935836633E+03  0.72935836634E+03  0.25500000000E-02 0. -1.
         -1   -1    0    0    0  501 -0.00000000000E+00 -0.00000000000E+00 -0.21582531035E+01  0.21582589883E+01  0.50400000000E-02 0.  1.
         24    2    1    2    0    0  0.17763568394E-14  0.00000000000E+00  0.72720011323E+03  0.73151662532E+03  0.79350919635E+02 0.  0.
         66    2    3    3    0    0  0.12258256310E+02 -0.24929224180E+02  0.62464230972E+03  0.62526294167E+03  0.20000164847E+01 0.  0.
        -13    1    3    3    0    0 -0.12258256310E+02  0.24929224180E+02  0.10255780351E+03  0.10625368366E+03  0.10566000000E+00 0.  1.
         13    1    4    4    0    0  0.24911323112E+01 -0.54443678279E+01  0.14973233835E+03  0.14985203099E+03  0.10566000000E+00 0. -1.
        -13    1    4    4    0    0  0.38849628820E+01 -0.70650148931E+01  0.16780182042E+03  0.16799544480E+03  0.10566000000E+00 0.  1.
        -14    1    4    4    0    0  0.58821611171E+01 -0.12419841459E+02  0.30710815095E+03  0.30741546588E+03  0.00000000000E+00 0.  1.
<mgrwt>
<rscale>  0 0.79350920E+02</rscale>
<asrwt>0</asrwt>
<pdfrwt beam="1">  1        2 0.11220906E+00 0.79350920E+02</pdfrwt>
<pdfrwt beam="2">  1       -1 0.33203915E-03 0.79350920E+02</pdfrwt>
<totfact> 0.34478902E+05</totfact>
</mgrwt>
</event>
<event>
 8    1  0.2389776E-024  0.7864391E+02  0.7818608E-02  0.1332944E+00
          2   -1    0    0  501    0  0.00000000000E+00  0.00000000000E+00  0.59188525148E+03  0.59188525149E+03  0.25500000000E-02 0. -1.
         -1   -1    0    0    0  501 -0.00000000000E+00 -0.00000000000E+00 -0.26123558314E+01  0.26123606932E+01  0.50400000000E-02 0.  1.
         24    2    1    2    0    0 -0.71054273576E-14 -0.35527136788E-14  0.58927289565E+03  0.59449761218E+03  0.78643914833E+02 0.  0.
         66    2    3    3    0    0  0.32764508857E+02  0.13918422073E+02  0.42063380973E+03  0.42214220038E+03  0.19999845342E+01 0.  0.
        -13    1    3    3    0    0 -0.32764508857E+02 -0.13918422073E+02  0.16863908592E+03  0.17235541180E+03  0.10566000000E+00 0.  1.
         13    1    4    4    0    0  0.18157267288E+02  0.67862579374E+01  0.23135802136E+03  0.23216865608E+03  0.10566000000E+00 0. -1.
        -13    1    4    4    0    0  0.93597220024E+01  0.48693941532E+01  0.12153433472E+03  0.12199147952E+03  0.10566000000E+00 0.  1.
        -14    1    4    4    0    0  0.52475195657E+01  0.22627699825E+01  0.67741453644E+02  0.67982064778E+02  0.00000000000E+00 0.  1.
<mgrwt>
<rscale>  0 0.78643915E+02</rscale>
<asrwt>0</asrwt>
<pdfrwt beam="1">  1        2 0.91059393E-01 0.78643915E+02</pdfrwt>
<pdfrwt beam="2">  1       -1 0.40190073E-03 0.78643915E+02</pdfrwt>
<totfact> 0.33497566E+05</totfact>
</mgrwt>
</event>
<event>
 8    1  0.2389776E-024  0.7974662E+02  0.7818608E-02  0.1329772E+00
         -1   -1    0    0    0  501 -0.00000000000E+00  0.00000000000E+00  0.10836792864E+03  0.10836792876E+03  0.50400000000E-02 0.  1.
          2   -1    0    0  501    0  0.00000000000E+00 -0.00000000000E+00 -0.14671137778E+02  0.14671138000E+02  0.25500000000E-02 0. -1.
         24    2    1    2    0    0  0.00000000000E+00 -0.35527136788E-14  0.93696790860E+02  0.12303906676E+03  0.79746619556E+02 0.  0.
         66    2    3    3    0    0 -0.31372890804E+02  0.14670550826E+02  0.16471297310E+02  0.38402955331E+02  0.20000010270E+01 0.  0.
        -13    1    3    3    0    0  0.31372890804E+02 -0.14670550826E+02  0.77225493550E+02  0.84636111425E+02  0.10566000000E+00 0.  1.
         13    1    4    4    0    0 -0.20379316044E+02  0.92237563843E+01  0.11347033497E+02  0.25083072728E+02  0.10566000000E+00 0. -1.
        -13    1    4    4    0    0 -0.88206749643E+01  0.44748982635E+01  0.38021529679E+01  0.10597006772E+02  0.10566000000E+00 0.  1.
        -14    1    4    4    0    0 -0.21728997958E+01  0.97189617847E+00  0.13221108448E+01  0.27228758308E+01  0.00000000000E+00 0.  1.
<mgrwt>
<rscale>  0 0.79746620E+02</rscale>
<asrwt>0</asrwt>
<pdfrwt beam="1">  1        2 0.22570982E-02 0.79746620E+02</pdfrwt>
<pdfrwt beam="2">  1       -1 0.16671988E-01 0.79746620E+02</pdfrwt>
<totfact> 0.11740738E+05</totfact>
</mgrwt>
</event>
<event>
 8    1  0.3006785E-024  0.8000047E+02  0.7818608E-02  0.1329050E+00
          2   -1    0    0  501    0  0.00000000000E+00  0.00000000000E+00  0.50488485474E+03  0.50488485474E+03  0.25500000000E-02 0. -1.
         -1   -1    0    0    0  501 -0.00000000000E+00 -0.00000000000E+00 -0.31690746635E+01  0.31690786712E+01  0.50400000000E-02 0.  1.
         24    2    1    2    0    0  0.00000000000E+00  0.35527136788E-14  0.50171578007E+03  0.50805393342E+03  0.80000470519E+02 0.  0.
         66    2    3    3    0    0  0.99768077493E+01  0.28528274496E+02  0.41717955888E+03  0.41827763924E+03  0.19999999338E+01 0.  0.
        -13    1    3    3    0    0 -0.99768077493E+01 -0.28528274496E+02  0.84536221194E+02  0.89776294179E+02  0.10566000000E+00 0.  1.
         13    1    4    4    0    0  0.37543543006E+01  0.11536231117E+02  0.17448079111E+03  0.17490207956E+03  0.10566000000E+00 0. -1.
        -13    1    4    4    0    0  0.92087633397E+00  0.38863435473E+01  0.51188893113E+02  0.51344577333E+02  0.10566000000E+00 0.  1.
         14    1    4    4    0    0  0.53015771147E+01  0.13105699831E+02  0.19150987466E+03  0.19203098234E+03  0.00000000000E+00 0. -1.
<mgrwt>
<rscale>  0 0.80000471E+02</rscale>
<asrwt>0</asrwt>
<pdfrwt beam="1">  1        2 0.77674592E-01 0.80000471E+02</pdfrwt>
<pdfrwt beam="2">  1       -1 0.48755027E-03 0.80000471E+02</pdfrwt>
<totfact> 0.30545090E+05</totfact>
</mgrwt>
</event>
<event>
 8    1  0.2389776E-024  0.7958525E+02  0.7818608E-02  0.1330233E+00
         -1   -1    0    0    0  501 -0.00000000000E+00  0.00000000000E+00  0.37038940671E+01  0.37038974961E+01  0.50400000000E-02 0.  1.
          2   -1    0    0  501    0  0.00000000000E+00 -0.00000000000E+00 -0.42751010632E+03  0.42751010633E+03  0.25500000000E-02 0. -1.
         24    2    1    2    0    0 -0.35527136788E-14  0.00000000000E+00 -0.42380621225E+03  0.43121400382E+03  0.79585247059E+02 0.  0.
         66    2    3    3    0    0  0.18629240187E+02  0.12488493213E+02 -0.38997002813E+03  0.39061955134E+03  0.19999985940E+01 0.  0.
        -13    1    3    3    0    0 -0.18629240187E+02 -0.12488493213E+02 -0.33836184125E+02  0.40594452489E+02  0.10566000000E+00 0.  1.
         13    1    4    4    0    0  0.45584233190E+01  0.26184070686E+01 -0.99350200584E+02  0.99489239613E+02  0.10566000000E+00 0. -1.
        -13    1    4    4    0    0  0.97705159532E+01  0.62649499339E+01 -0.19025905838E+03  0.19061278299E+03  0.10566000000E+00 0.  1.
         14    1    4    4    0    0  0.43003009150E+01  0.36051362104E+01 -0.10036076917E+03  0.10051752874E+03  0.00000000000E+00 0. -1.
<mgrwt>
<rscale>  0 0.79585247E+02</rscale>
<asrwt>0</asrwt>
<pdfrwt beam="1">  1        2 0.65770747E-01 0.79585247E+02</pdfrwt>
<pdfrwt beam="2">  1       -1 0.56983046E-03 0.79585247E+02</pdfrwt>
<totfact> 0.29306349E+05</totfact>
</mgrwt>
</event>
<event>
 8    1  0.2389776E-024  0.8045010E+02  0.7818608E-02  0.1327779E+00
          2   -1    0    0  501    0  0.00000000000E+00  0.00000000000E+00  0.50009197559E+03  0.50009197559E+03  0.25500000000E-02 0. -1.
         -1   -1    0    0    0  501 -0.00000000000E+00 -0.00000000000E+00 -0.32355122070E+01  0.32355161325E+01  0.50400000000E-02 0.  1.
         24    2    1    2    0    0  0.00000000000E+00  0.00000000000E+00  0.49685646338E+03  0.50332749173E+03  0.80450100837E+02 0.  0.
         66    2    3    3    0    0 -0.38445388423E+02  0.73867174058E+01  0.30573006664E+03  0.30823284244E+03  0.20000065172E+01 0.  0.
        -13    1    3    3    0    0  0.38445388423E+02 -0.73867174058E+01  0.19112639674E+03  0.19509464929E+03  0.10566000000E+00 0.  1.
         13    1    4    4    0    0 -0.16608004854E+02  0.27975768811E+01  0.12536623242E+03  0.12649251226E+03  0.10566000000E+00 0. -1.
        -13    1    4    4    0    0 -0.13867058245E+02  0.31277830453E+01  0.11273284088E+03  0.11362562611E+03  0.10566000000E+00 0.  1.
         14    1    4    4    0    0 -0.79703253237E+01  0.14613574794E+01  0.67630993334E+02  0.68114704072E+02  0.00000000000E+00 0. -1.
<mgrwt>
<rscale>  0 0.80450101E+02</rscale>
<asrwt>0</asrwt>
<pdfrwt beam="1">  1        2 0.76937272E-01 0.80450101E+02</pdfrwt>
<pdfrwt beam="2">  1       -1 0.49777112E-03 0.80450101E+02</pdfrwt>
<totfact> 0.30010959E+05</totfact>
</mgrwt>
</event>
<event>
 8    1  0.2389776E-024  0.7920578E+02  0.7818608E-02  0.1331321E+00
          2   -1    0    0  501    0  0.00000000000E+00  0.00000000000E+00  0.70071727166E+03  0.70071727167E+03  0.25500000000E-02 0. -1.
         -1   -1    0    0    0  501 -0.00000000000E+00 -0.00000000000E+00 -0.22382594309E+01  0.22382651053E+01  0.50400000000E-02 0.  1.
         24    2    1    2    0    0 -0.35527136788E-14  0.35527136788E-14  0.69847901223E+03  0.70295553677E+03  0.79205783570E+02 0.  0.
         66    2    3    3    0    0 -0.24263733228E+02 -0.15921464691E+02  0.58829157993E+03  0.58901036053E+03  0.20000012021E+01 0.  0.
        -13    1    3    3    0    0  0.24263733228E+02  0.15921464691E+02  0.11018743230E+03  0.11394517624E+03  0.10566000000E+00 0.  1.
         13    1    4    4    0    0 -0.22891491311E+01 -0.90053109021E+00  0.47296861501E+02  0.47360906156E+02  0.10566000000E+00 0.  1.
        -13    1    4    4    0    0 -0.97684367525E+01 -0.63562426771E+01  0.23840171782E+03  0.23868643531E+03  0.10566000000E+00 0. -1.
        -14    1    4    4    0    0 -0.12206147345E+02 -0.86646909241E+01  0.30259300060E+03  0.30296301906E+03  0.00000000000E+00 0.  1.
<mgrwt>
<rscale>  0 0.79205784E+02</rscale>
<asrwt>0</asrwt>
<pdfrwt beam="1">  1        2 0.10780268E+00 0.79205784E+02</pdfrwt>
<pdfrwt beam="2">  1       -1 0.34434796E-03 0.79205784E+02</pdfrwt>
<totfact> 0.34338254E+05</totfact>
</mgrwt>
</event>
<event>
 8    1  0.2389776E-024  0.8024094E+02  0.7818608E-02  0.1328369E+00
         -1   -1    0    0    0  501 -0.00000000000E+00  0.00000000000E+00  0.88359153639E+01  0.88359168013E+01  0.50400000000E-02 0.  1.
          2   -1    0    0  501    0  0.00000000000E+00 -0.00000000000E+00 -0.18217150361E+03  0.18217150363E+03  0.25500000000E-02 0. -1.
         24    2    1    2    0    0  0.71054273576E-14  0.35527136788E-14 -0.17333558825E+03  0.19100742043E+03  0.80240940338E+02 0.  0.
         66    2    3    3    0    0  0.34609544276E+02  0.18659681309E+02 -0.68032069332E+02  0.78602587253E+02  0.20000009408E+01 0.  0.
        -13    1    3    3    0    0 -0.34609544276E+02 -0.18659681309E+02 -0.10530351891E+03  0.11240483318E+03  0.10566000000E+00 0.  1.
         13    1    4    4    0    0  0.30684521586E+02  0.16453198898E+02 -0.59135527674E+02  0.68624116871E+02  0.10566000000E+00 0. -1.
        -13    1    4    4    0    0  0.69108055263E+00  0.33237410122E+00 -0.13235306044E+01  0.15332847647E+01  0.10566000000E+00 0.  1.
        -14    1    4    4    0    0  0.32339421372E+01  0.18741083103E+01 -0.75730110532E+01  0.84451856177E+01  0.00000000000E+00 0.  1.
<mgrwt>
<rscale>  0 0.80240940E+02</rscale>
<asrwt>0</asrwt>
<pdfrwt beam="1">  1        2 0.28026382E-01 0.80240940E+02</pdfrwt>
<pdfrwt beam="2">  1       -1 0.13593718E-02 0.80240940E+02</pdfrwt>
<totfact> 0.21192210E+05</totfact>
</mgrwt>
</event>
<event>
 8    1  0.2389776E-024  0.8203602E+02  0.7818608E-02  0.1323371E+00
          2   -1    0    0  501    0  0.00000000000E+00  0.00000000000E+00  0.85351669275E+03  0.85351669275E+03  0.25500000000E-02 0. -1.
         -1   -1    0    0    0  501 -0.00000000000E+00 -0.00000000000E+00 -0.19712259129E+01  0.19712323559E+01  0.50400000000E-02 0.  1.
         24    2    1    2    0    0  0.00000000000E+00  0.00000000000E+00  0.85154546684E+03  0.85548792511E+03  0.82036015979E+02 0.  0.
         66    2    3    3    0    0  0.68372106414E+01 -0.20768679074E+02  0.78762754513E+03  0.78793352215E+03  0.20000001586E+01 0.  0.
        -13    1    3    3    0    0 -0.68372106414E+01  0.20768679074E+02  0.63917921707E+02  0.67554402959E+02  0.10566000000E+00 0.  1.
         13    1    4    4    0    0  0.26345267706E+01 -0.73386321632E+01  0.26576195344E+03  0.26587633086E+03  0.10566000000E+00 0. -1.
        -13    1    4    4    0    0  0.22605637807E+01 -0.62561808664E+01  0.22310307582E+03  0.22320224809E+03  0.10566000000E+00 0.  1.
        -14    1    4    4    0    0  0.19421200901E+01 -0.71738660442E+01  0.29876251587E+03  0.29885494320E+03  0.00000000000E+00 0.  1.
<mgrwt>
<rscale>  0 0.82036016E+02</rscale>
<asrwt>0</asrwt>
<pdfrwt beam="1">  1        2 0.13131008E+00 0.82036016E+02</pdfrwt>
<pdfrwt beam="2">  1       -1 0.30326645E-03 0.82036016E+02</pdfrwt>
<totfact> 0.32519340E+05</totfact>
</mgrwt>
</event>
<event>
 8    1  0.2389776E-024  0.7093977E+02  0.7818608E-02  0.1356926E+00
          2   -1    0    0  501    0  0.00000000000E+00  0.00000000000E+00  0.18055644080E+02  0.18055644260E+02  0.25500000000E-02 0. -1.
         -1   -1    0    0    0  501 -0.00000000000E+00 -0.00000000000E+00 -0.69679751730E+02  0.69679751912E+02  0.50400000000E-02 0.  1.
         24    2    1    2    0    0  0.35527136788E-14  0.17763568394E-14 -0.51624107650E+02  0.87735396172E+02  0.70939771996E+02 0.  0.
         66    2    3    3    0    0 -0.23562977557E+02 -0.10579570856E+02  0.41819415158E+01  0.26241758140E+02  0.20000011510E+01 0.  0.
        -13    1    3    3    0    0  0.23562977557E+02  0.10579570856E+02 -0.55806049166E+02  0.61493638032E+02  0.10566000000E+00 0.  1.
         13    1    4    4    0    0 -0.68398187047E+01 -0.28312836067E+01  0.66942577120E+00  0.74336116170E+01  0.10566000000E+00 0. -1.
        -13    1    4    4    0    0 -0.21473298003E+01 -0.11171516909E+01  0.89187830711E+00  0.25817947482E+01  0.10566000000E+00 0.  1.
        -14    1    4    4    0    0 -0.14575829052E+02 -0.66311355581E+01  0.26206374375E+01  0.16226351775E+02  0.00000000000E+00 0.  1.
<mgrwt>
<rscale>  0 0.70939772E+02</rscale>
<asrwt>0</asrwt>
<pdfrwt beam="1">  1        2 0.27777915E-02 0.70939772E+02</pdfrwt>
<pdfrwt beam="2">  1       -1 0.10719962E-01 0.70939772E+02</pdfrwt>
<totfact> 0.17135157E+05</totfact>
</mgrwt>
</event>
<event>
 8    1  0.2389776E-024  0.7940700E+02  0.7818608E-02  0.1330743E+00
         -1   -1    0    0    0  501 -0.00000000000E+00  0.00000000000E+00  0.16503569569E+01  0.16503646527E+01  0.50400000000E-02 0.  1.
          2   -1    0    0  501    0  0.00000000000E+00 -0.00000000000E+00 -0.95516566465E+03  0.95516566465E+03  0.25500000000E-02 0. -1.
         24    2    1    2    0    0  0.35527136788E-14  0.35527136788E-14 -0.95351530769E+03  0.95681602930E+03  0.79407001782E+02 0.  0.
         66    2    3    3    0    0 -0.18048536364E+02 -0.16518500504E+02 -0.85345046879E+03  0.85380343943E+03  0.19999961103E+01 0.  0.
        -13    1    3    3    0    0  0.18048536364E+02  0.16518500504E+02 -0.10006483890E+03  0.10301258987E+03  0.10566000000E+00 0.  1.
         13    1    4    4    0    0 -0.80215600991E+01 -0.65655743819E+01 -0.36383594341E+03  0.36398359452E+03  0.10566000000E+00 0. -1.
        -13    1    4    4    0    0 -0.61322396412E+01 -0.55649750010E+01 -0.30264155702E+03  0.30275484556E+03  0.10566000000E+00 0.  1.
        -14    1    4    4    0    0 -0.38947366234E+01 -0.43879511210E+01 -0.18697296835E+03  0.18706499935E+03  0.00000000000E+00 0.  1.
<mgrwt>
<rscale>  0 0.79407002E+02</rscale>
<asrwt>0</asrwt>
<pdfrwt beam="1">  1        2 0.14694812E+00 0.79407002E+02</pdfrwt>
<pdfrwt beam="2">  1       -1 0.25390243E-03 0.79407002E+02</pdfrwt>
<totfact> 0.35823175E+05</totfact>
</mgrwt>
</event>
<event>
 8    1  0.2389776E-024  0.8088194E+02  0.7818608E-02  0.1326567E+00
          2   -1    0    0  501    0  0.00000000000E+00  0.00000000000E+00  0.83585056786E+02  0.83585056825E+02  0.25500000000E-02 0. -1.
         -1   -1    0    0    0  501 -0.00000000000E+00 -0.00000000000E+00 -0.19566558710E+02  0.19566559359E+02  0.50400000000E-02 0.  1.
         24    2    1    2    0    0  0.00000000000E+00 -0.35527136788E-14  0.64018498076E+02  0.10315161618E+03  0.80881937572E+02 0.  0.
         66    2    3    3    0    0 -0.31793990718E+02 -0.20541307941E+02  0.50094641741E+02  0.62819394363E+02  0.19999998178E+01 0.  0.
        -13    1    3    3    0    0  0.31793990718E+02  0.20541307941E+02  0.13923856335E+02  0.40332221820E+02  0.10566000000E+00 0.  1.
         13    1    4    4    0    0 -0.22393917667E+02 -0.14371298061E+02  0.35818579488E+02  0.44620662893E+02  0.10566000000E+00 0. -1.
        -13    1    4    4    0    0 -0.82737548034E+01 -0.56426589915E+01  0.12271055539E+02  0.15839336701E+02  0.10566000000E+00 0.  1.
         14    1    4    4    0    0 -0.11263182476E+01 -0.52735088856E+00  0.20050067137E+01  0.23593947691E+01  0.00000000000E+00 0. -1.
<mgrwt>
<rscale>  0 0.80881938E+02</rscale>
<asrwt>0</asrwt>
<pdfrwt beam="1">  1        2 0.12859239E-01 0.80881938E+02</pdfrwt>
<pdfrwt beam="2">  1       -1 0.30102399E-02 0.80881938E+02</pdfrwt>
<totfact> 0.16394809E+05</totfact>
</mgrwt>
</event>
<event>
 8    1  0.2389776E-024  0.8920734E+02  0.7818608E-02  0.1304783E+00
          2   -1    0    0  501    0  0.00000000000E+00  0.00000000000E+00  0.39425334411E+02  0.39425334494E+02  0.25500000000E-02 0. -1.
         -1   -1    0    0    0  501 -0.00000000000E+00 -0.00000000000E+00 -0.50462155022E+02  0.50462155274E+02  0.50400000000E-02 0.  1.
         24    2    1    2    0    0  0.00000000000E+00  0.00000000000E+00 -0.11036820611E+02  0.89887489768E+02  0.89207339426E+02 0.  0.
         66    2    3    3    0    0  0.11731957820E+02 -0.32542148420E+02 -0.33857680828E+02  0.48445565546E+02  0.20000029939E+01 0.  0.
        -13    1    3    3    0    0 -0.11731957820E+02  0.32542148420E+02  0.22820860217E+02  0.41441924221E+02  0.10566000000E+00 0.  1.
         13    1    4    4    0    0  0.56840318945E+01 -0.17257013387E+02 -0.16663852366E+02  0.24653759740E+02  0.10566000000E+00 0. -1.
        -13    1    4    4    0    0  0.27770036536E+01 -0.75583916708E+01 -0.85432108493E+01  0.11740470586E+02  0.10566000000E+00 0.  1.
         14    1    4    4    0    0  0.32709222715E+01 -0.77267433619E+01 -0.86506176133E+01  0.12051335220E+02  0.00000000000E+00 0. -1.
<mgrwt>
<rscale>  0 0.89207339E+02</rscale>
<asrwt>0</asrwt>
<pdfrwt beam="1">  1        2 0.60654361E-02 0.89207339E+02</pdfrwt>
<pdfrwt beam="2">  1       -1 0.77634085E-02 0.89207339E+02</pdfrwt>
<totfact> 0.10487515E+05</totfact>
</mgrwt>
</event>
<event>
 8    1  0.2389776E-024  0.8091833E+02  0.7818608E-02  0.1326465E+00
         -1   -1    0    0    0  501 -0.00000000000E+00  0.00000000000E+00  0.23842160716E+02  0.23842161249E+02  0.50400000000E-02 0.  1.
          2   -1    0    0  501    0  0.00000000000E+00 -0.00000000000E+00 -0.68657535645E+02  0.68657535693E+02  0.25500000000E-02 0. -1.
         24    2    1    2    0    0  0.00000000000E+00  0.35527136788E-14 -0.44815374929E+02  0.92499696942E+02  0.80918329841E+02 0.  0.
         66    2    3    3    0    0  0.35223163565E+02  0.18633596166E+02 -0.30262944184E+02  0.50077219854E+02  0.20000000099E+01 0.  0.
        -13    1    3    3    0    0 -0.35223163565E+02 -0.18633596166E+02 -0.14552430745E+02  0.42422477087E+02  0.10566000000E+00 0.  1.
         13    1    4    4    0    0  0.25341138394E+02  0.13716914293E+02 -0.21929617542E+02  0.36211135337E+02  0.10566000000E+00 0. -1.
        -13    1    4    4    0    0  0.30817101290E+00  0.99241459590E-01 -0.11224261096E+00  0.35858148280E+00  0.10566000000E+00 0. -1.
         14    1    4    4    0    0  0.95738541583E+01  0.48174404130E+01 -0.82210840310E+01  0.13507503034E+02  0.00000000000E+00 0. -1.
<mgrwt>
<rscale>  0 0.80918330E+02</rscale>
<asrwt>0</asrwt>
<pdfrwt beam="1">  1        2 0.10562698E-01 0.80918330E+02</pdfrwt>
<pdfrwt beam="2">  1       -1 0.36680248E-02 0.80918330E+02</pdfrwt>
<totfact> 0.15581029E+05</totfact>
</mgrwt>
</event>
<event>
 8    1  0.2389776E-024  0.8253486E+02  0.7818608E-02  0.1322008E+00
         -1   -1    0    0    0  501 -0.00000000000E+00  0.00000000000E+00  0.15541932963E+02  0.15541933780E+02  0.50400000000E-02 0.  1.
          2   -1    0    0  501    0  0.00000000000E+00 -0.00000000000E+00 -0.10957458870E+03  0.10957458873E+03  0.25500000000E-02 0. -1.
         24    2    1    2    0    0 -0.71054273576E-14  0.71054273576E-14 -0.94032655737E+02  0.12511652251E+03  0.82534864511E+02 0.  0.
         66    2    3    3    0    0  0.29014932742E+02 -0.27750042751E+02 -0.32737463860E+02  0.51842769323E+02  0.19999990976E+01 0.  0.
        -13    1    3    3    0    0 -0.29014932742E+02  0.27750042751E+02 -0.61295191877E+02  0.73273753186E+02  0.10566000000E+00 0.  1.
         13    1    4    4    0    0  0.19660413544E+02 -0.19392506174E+02 -0.22658994077E+02  0.35721734744E+02  0.10566000000E+00 0. -1.
        -13    1    4    4    0    0  0.64992520309E+01 -0.60690902151E+01 -0.66240589839E+01  0.11088888784E+02  0.10566000000E+00 0.  1.
        -14    1    4    4    0    0  0.28552671668E+01 -0.22884463620E+01 -0.34544107989E+01  0.50321457961E+01  0.00000000000E+00 0.  1.
<mgrwt>
<rscale>  0 0.82534865E+02</rscale>
<asrwt>0</asrwt>
<pdfrwt beam="1">  1        2 0.16857629E-01 0.82534865E+02</pdfrwt>
<pdfrwt beam="2">  1       -1 0.23910667E-02 0.82534865E+02</pdfrwt>
<totfact> 0.16735493E+05</totfact>
</mgrwt>
</event>
<event>
 8    1  0.2389776E-024  0.8000379E+02  0.7818608E-02  0.1329041E+00
          2   -1    0    0  501    0  0.00000000000E+00  0.00000000000E+00  0.19519904436E+02  0.19519904602E+02  0.25500000000E-02 0. -1.
         -1   -1    0    0    0  501 -0.00000000000E+00 -0.00000000000E+00 -0.81975378631E+02  0.81975378786E+02  0.50400000000E-02 0.  1.
         24    2    1    2    0    0  0.11102230246E-15  0.35527136788E-14 -0.62455474195E+02  0.10149528339E+03  0.80003789242E+02 0.  0.
         66    2    3    3    0    0 -0.65240460164E+00 -0.19822933970E+02  0.12786766103E+02  0.23682815030E+02  0.19999993564E+01 0.  0.
        -13    1    3    3    0    0  0.65240460164E+00  0.19822933970E+02 -0.75242240297E+02  0.77812468358E+02  0.10566000000E+00 0.  1.
         13    1    4    4    0    0  0.40623823145E+00 -0.14777579711E+01  0.10109732014E+01  0.18390293558E+01  0.10566000000E+00 0. -1.
        -13    1    4    4    0    0 -0.79678475714E+00 -0.65820914685E+01  0.43476517266E+01  0.79291887114E+01  0.10566000000E+00 0.  1.
         14    1    4    4    0    0 -0.26185807595E+00 -0.11763084531E+02  0.74281411745E+01  0.13914596963E+02  0.00000000000E+00 0. -1.
<mgrwt>
<rscale>  0 0.80003789E+02</rscale>
<asrwt>0</asrwt>
<pdfrwt beam="1">  1        2 0.30030623E-02 0.80003789E+02</pdfrwt>
<pdfrwt beam="2">  1       -1 0.12611597E-01 0.80003789E+02</pdfrwt>
<totfact> 0.12353020E+05</totfact>
</mgrwt>
</event>
<event>
 8    1  0.2389776E-024  0.7839158E+02  0.7818608E-02  0.1333679E+00
         -1   -1    0    0    0  501 -0.00000000000E+00  0.00000000000E+00  0.35018916650E+01  0.35018952918E+01  0.50400000000E-02 0.  1.
          2   -1    0    0  501    0  0.00000000000E+00 -0.00000000000E+00 -0.43870835063E+03  0.43870835063E+03  0.25500000000E-02 0. -1.
         24    2    1    2    0    0  0.00000000000E+00  0.00000000000E+00 -0.43520645896E+03  0.44221024593E+03  0.78391579139E+02 0.  0.
         66    2    3    3    0    0  0.33188260023E+02  0.12933181451E+02 -0.30967394959E+03  0.31172212440E+03  0.20000002497E+01 0.  0.
        -13    1    3    3    0    0 -0.33188260023E+02 -0.12933181451E+02 -0.12553250937E+03  0.13048812153E+03  0.10566000000E+00 0.  1.
         13    1    4    4    0    0  0.64636597731E+01  0.24146695701E+01 -0.56445836368E+02  0.56866098285E+02  0.10566000000E+00 0.  1.
        -13    1    4    4    0    0  0.14456507096E+02  0.51692226824E+01 -0.13022114741E+03  0.13112310954E+03  0.10566000000E+00 0. -1.
        -14    1    4    4    0    0  0.12268093154E+02  0.53492891982E+01 -0.12300696582E+03  0.12373291657E+03  0.00000000000E+00 0.  1.
<mgrwt>
<rscale>  0 0.78391579E+02</rscale>
<asrwt>0</asrwt>
<pdfrwt beam="1">  1        2 0.67493549E-01 0.78391579E+02</pdfrwt>
<pdfrwt beam="2">  1       -1 0.53875319E-03 0.78391579E+02</pdfrwt>
<totfact> 0.30753318E+05</totfact>
</mgrwt>
</event>
<event>
 8    1  0.2389776E-024  0.8226570E+02  0.7818608E-02  0.1322742E+00
          2   -1    0    0  501    0  0.00000000000E+00  0.00000000000E+00  0.17562161468E+03  0.17562161470E+03  0.25500000000E-02 0. -1.
         -1   -1    0    0    0  501 -0.00000000000E+00 -0.00000000000E+00 -0.96338436611E+01  0.96338449794E+01  0.50400000000E-02 0.  1.
         24    2    1    2    0    0  0.00000000000E+00  0.35527136788E-14  0.16598777102E+03  0.18525545968E+03  0.82265698882E+02 0.  0.
         66    2    3    3    0    0 -0.32327994861E+02  0.25126528047E+02  0.74779575120E+02  0.85278523204E+02  0.20000003448E+01 0.  0.
        -13    1    3    3    0    0  0.32327994861E+02 -0.25126528047E+02  0.91208195898E+02  0.99976936473E+02  0.10566000000E+00 0.  1.
         13    1    4    4    0    0 -0.68137438700E+01  0.51615566750E+01  0.14970946234E+02  0.17239755451E+02  0.10566000000E+00 0. -1.
        -13    1    4    4    0    0 -0.14268420312E+02  0.10197906466E+02  0.32881853831E+02  0.37266775953E+02  0.10566000000E+00 0.  1.
         14    1    4    4    0    0 -0.11245830679E+02  0.97670649059E+01  0.26926775054E+02  0.30771991800E+02  0.00000000000E+00 0. -1.
<mgrwt>
<rscale>  0 0.82265699E+02</rscale>
<asrwt>0</asrwt>
<pdfrwt beam="1">  1        2 0.27018708E-01 0.82265699E+02</pdfrwt>
<pdfrwt beam="2">  1       -1 0.14821300E-02 0.82265699E+02</pdfrwt>
<totfact> 0.19593401E+05</totfact>
</mgrwt>
</event>
<event>
 8    1  0.2389776E-024  0.7962642E+02  0.7818608E-02  0.1330115E+00
         -1   -1    0    0    0  501 -0.00000000000E+00  0.00000000000E+00  0.25652698398E+02  0.25652698893E+02  0.50400000000E-02 0.  1.
          2   -1    0    0  501    0  0.00000000000E+00 -0.00000000000E+00 -0.61790447432E+02  0.61790447484E+02  0.25500000000E-02 0. -1.
         24    2    1    2    0    0  0.00000000000E+00  0.00000000000E+00 -0.36137749034E+02  0.87443146377E+02  0.79626421137E+02 0.  0.
         66    2    3    3    0    0  0.21758213240E+02  0.33029477896E+02 -0.22831708602E+02  0.45712724267E+02  0.19999971844E+01 0.  0.
        -13    1    3    3    0    0 -0.21758213240E+02 -0.33029477896E+02 -0.13306040432E+02  0.41730422110E+02  0.10566000000E+00 0.  1.
         13    1    4    4    0    0  0.11022492709E+02  0.16971245325E+02 -0.11966429110E+02  0.23510106403E+02  0.10566000000E+00 0. -1.
        -13    1    4    4    0    0  0.96297969336E+01  0.14016011908E+02 -0.99755167826E+01  0.19715569429E+02  0.10566000000E+00 0.  1.
         14    1    4    4    0    0  0.11059235971E+01  0.20422206631E+01 -0.88976270997E+00  0.24870484353E+01  0.00000000000E+00 0. -1.
<mgrwt>
<rscale>  0 0.79626421E+02</rscale>
<asrwt>0</asrwt>
<pdfrwt beam="1">  1        2 0.95062226E-02 0.79626421E+02</pdfrwt>
<pdfrwt beam="2">  1       -1 0.39465691E-02 0.79626421E+02</pdfrwt>
<totfact> 0.15873409E+05</totfact>
</mgrwt>
</event>
<event>
 8    1  0.2389776E-024  0.7704401E+02  0.7818608E-02  0.1337656E+00
          2   -1    0    0  501    0  0.00000000000E+00  0.00000000000E+00  0.13289834568E+04  0.13289834568E+04  0.25500000000E-02 0. -1.
         -1   -1    0    0    0  501 -0.00000000000E+00 -0.00000000000E+00 -0.11165957678E+01  0.11166071423E+01  0.50400000000E-02 0.  1.
         24    2    1    2    0    0  0.00000000000E+00  0.00000000000E+00  0.13278668611E+04  0.13301000640E+04  0.77044010010E+02 0.  0.
         66    2    3    3    0    0  0.13390432252E+02  0.18174605604E+02  0.12027114031E+04  0.12029249100E+04  0.20000015860E+01 0.  0.
        -13    1    3    3    0    0 -0.13390432252E+02 -0.18174605604E+02  0.12515545798E+03  0.12717515398E+03  0.10566000000E+00 0.  1.
         13    1    4    4    0    0  0.14787947177E+01  0.28963192538E+01  0.16235241772E+03  0.16238501841E+03  0.10566000000E+00 0. -1.
        -13    1    4    4    0    0  0.44363752543E+00  0.90853620814E+00  0.56628387384E+02  0.56637511192E+02  0.10566000000E+00 0.  1.
         14    1    4    4    0    0  0.11468000009E+02  0.14369750142E+02  0.98373059799E+03  0.98390238041E+03  0.00000000000E+00 0. -1.
<mgrwt>
<rscale>  0 0.77044010E+02</rscale>
<asrwt>0</asrwt>
<pdfrwt beam="1">  1        2 0.20445852E+00 0.77044010E+02</pdfrwt>
<pdfrwt beam="2">  1       -1 0.17178524E-03 0.77044010E+02</pdfrwt>
<totfact> 0.37992486E+05</totfact>
</mgrwt>
</event>
<event>
 8    1  0.2389776E-024  0.8209293E+02  0.7818608E-02  0.1323215E+00
         -1   -1    0    0    0  501 -0.00000000000E+00  0.00000000000E+00  0.52747671926E+02  0.52747672167E+02  0.50400000000E-02 0.  1.
          2   -1    0    0  501    0  0.00000000000E+00 -0.00000000000E+00 -0.31940977122E+02  0.31940977223E+02  0.25500000000E-02 0. -1.
         24    2    1    2    0    0  0.00000000000E+00 -0.35527136788E-14  0.20806694804E+02  0.84688649390E+02  0.82092927752E+02 0.  0.
         66    2    3    3    0    0 -0.45059070718E+01 -0.31903041721E+02 -0.15784280869E+02  0.35933978492E+02  0.20000045164E+01 0.  0.
        -13    1    3    3    0    0  0.45059070718E+01  0.31903041721E+02  0.36590975674E+02  0.48754670898E+02  0.10566000000E+00 0.  1.
         13    1    4    4    0    0 -0.35270696888E+01 -0.22235161287E+02 -0.11273768122E+02  0.25178396092E+02  0.10566000000E+00 0. -1.
        -13    1    4    4    0    0 -0.49097733914E+00 -0.20013889803E+01 -0.68812590648E+00  0.21751546834E+01  0.10566000000E+00 0.  1.
         14    1    4    4    0    0 -0.48786004382E+00 -0.76664914542E+01 -0.38223868407E+01  0.85804277166E+01  0.00000000000E+00 0. -1.
<mgrwt>
<rscale>  0 0.82092928E+02</rscale>
<asrwt>0</asrwt>
<pdfrwt beam="1">  1        2 0.49139965E-02 0.82092928E+02</pdfrwt>
<pdfrwt beam="2">  1       -1 0.81150264E-02 0.82092928E+02</pdfrwt>
<totfact> 0.12672865E+05</totfact>
</mgrwt>
</event>
<event>
 8    1  0.2389776E-024  0.8683439E+02  0.7818608E-02  0.1310704E+00
         -1   -1    0    0    0  501 -0.00000000000E+00  0.00000000000E+00  0.12333556660E+02  0.12333557690E+02  0.50400000000E-02 0.  1.
          2   -1    0    0  501    0  0.00000000000E+00 -0.00000000000E+00 -0.15283934126E+03  0.15283934129E+03  0.25500000000E-02 0. -1.
         24    2    1    2    0    0 -0.17763568394E-14  0.88817841970E-15 -0.14050578460E+03  0.16517289898E+03  0.86834388631E+02 0.  0.
         66    2    3    3    0    0 -0.10813031836E+02  0.49682446943E+01 -0.14966832527E+03  0.15015396332E+03  0.19999994547E+01 0.  0.
        -13    1    3    3    0    0  0.10813031836E+02 -0.49682446943E+01  0.91625406663E+01  0.15018935659E+02  0.10566000000E+00 0.  1.
         13    1    4    4    0    0 -0.77841386528E+00  0.18544482846E+00 -0.10043343057E+02  0.10075724377E+02  0.10566000000E+00 0. -1.
        -13    1    4    4    0    0 -0.38637051847E+01  0.26185889180E+01 -0.51670137864E+02  0.51880627758E+02  0.10566000000E+00 0.  1.
         14    1    4    4    0    0 -0.61709127858E+01  0.21642109479E+01 -0.87954844349E+02  0.88197611182E+02  0.00000000000E+00 0. -1.
<mgrwt>
<rscale>  0 0.86834389E+02</rscale>
<asrwt>0</asrwt>
<pdfrwt beam="1">  1        2 0.23513743E-01 0.86834389E+02</pdfrwt>
<pdfrwt beam="2">  1       -1 0.18974705E-02 0.86834389E+02</pdfrwt>
<totfact> 0.16197925E+05</totfact>
</mgrwt>
</event>
<event>
 8    1  0.2389776E-024  0.7972201E+02  0.7818608E-02  0.1329842E+00
         -1   -1    0    0    0  501 -0.00000000000E+00  0.00000000000E+00  0.16217076205E+01  0.16217154522E+01  0.50400000000E-02 0.  1.
          2   -1    0    0  501    0  0.00000000000E+00 -0.00000000000E+00 -0.97976704285E+03  0.97976704286E+03  0.25500000000E-02 0. -1.
         24    2    1    2    0    0 -0.17763568394E-14  0.97144514655E-16 -0.97814533523E+03  0.98138875831E+03  0.79722005101E+02 0.  0.
         66    2    3    3    0    0  0.11176649475E+02 -0.78327090056E-01 -0.96006664923E+03  0.96013378994E+03  0.19999995574E+01 0.  0.
        -13    1    3    3    0    0 -0.11176649475E+02  0.78327090056E-01 -0.18078686005E+02  0.21254968368E+02  0.10566000000E+00 0.  1.
         13    1    4    4    0    0  0.60513130834E+01 -0.83335159143E+00 -0.53903848697E+03  0.53907310679E+03  0.10566000000E+00 0.  1.
        -13    1    4    4    0    0  0.42741812899E+01  0.35244457782E+00 -0.34912813604E+03  0.34915449214E+03  0.10566000000E+00 0. -1.
         14    1    4    4    0    0  0.85115510159E+00  0.40257992356E+00 -0.71900026216E+02  0.71906191009E+02  0.00000000000E+00 0. -1.
<mgrwt>
<rscale>  0 0.79722005E+02</rscale>
<asrwt>0</asrwt>
<pdfrwt beam="1">  1        2 0.15073292E+00 0.79722005E+02</pdfrwt>
<pdfrwt beam="2">  1       -1 0.24949487E-03 0.79722005E+02</pdfrwt>
<totfact> 0.35515364E+05</totfact>
</mgrwt>
</event>
<event>
 8    1  0.2389776E-024  0.8040244E+02  0.7818608E-02  0.1327913E+00
          2   -1    0    0  501    0  0.00000000000E+00  0.00000000000E+00  0.12861424287E+04  0.12861424287E+04  0.25500000000E-02 0. -1.
         -1   -1    0    0    0  501 -0.00000000000E+00 -0.00000000000E+00 -0.12565727980E+01  0.12565829055E+01  0.50400000000E-02 0.  1.
         24    2    1    2    0    0  0.00000000000E+00  0.00000000000E+00  0.12848858559E+04  0.12873990116E+04  0.80402440212E+02 0.  0.
         66    2    3    3    0    0  0.17254807483E+02  0.14150007399E+02  0.11777871986E+04  0.11780002701E+04  0.20000001132E+01 0.  0.
        -13    1    3    3    0    0 -0.17254807483E+02 -0.14150007399E+02  0.10709865725E+03  0.10939874149E+03  0.10566000000E+00 0.  1.
         13    1    4    4    0    0  0.89138411267E+01  0.76706695137E+01  0.60417320316E+03  0.60428765196E+03  0.10566000000E+00 0. -1.
        -13    1    4    4    0    0  0.34984144939E+01  0.19790220707E+01  0.22612150586E+03  0.22615725062E+03  0.10566000000E+00 0.  1.
        -14    1    4    4    0    0  0.48425518621E+01  0.45003158150E+01  0.34749248960E+03  0.34755536750E+03  0.00000000000E+00 0.  1.
<mgrwt>
<rscale>  0 0.80402440E+02</rscale>
<asrwt>0</asrwt>
<pdfrwt beam="1">  1        2 0.19786891E+00 0.80402440E+02</pdfrwt>
<pdfrwt beam="2">  1       -1 0.19331885E-03 0.80402440E+02</pdfrwt>
<totfact> 0.34237519E+05</totfact>
</mgrwt>
</event>
<event>
 8    1  0.2389776E-024  0.8400707E+02  0.7818608E-02  0.1318050E+00
          2   -1    0    0  501    0  0.00000000000E+00  0.00000000000E+00  0.23601881660E+03  0.23601881662E+03  0.25500000000E-02 0. -1.
         -1   -1    0    0    0  501 -0.00000000000E+00 -0.00000000000E+00 -0.74752368404E+01  0.74752385395E+01  0.50400000000E-02 0.  1.
         24    2    1    2    0    0 -0.17763568394E-14  0.00000000000E+00  0.22854357976E+03  0.24349405516E+03  0.84007065451E+02 0.  0.
         66    2    3    3    0    0 -0.11209932069E+02  0.56761176919E+01  0.23043587671E+03  0.23078685874E+03  0.19999999717E+01 0.  0.
        -13    1    3    3    0    0  0.11209932069E+02 -0.56761176919E+01 -0.18922969513E+01  0.12707196419E+02  0.10566000000E+00 0.  1.
         13    1    4    4    0    0 -0.54503947181E+01  0.28301314385E+01  0.11331110437E+03  0.11347746025E+03  0.10566000000E+00 0. -1.
        -13    1    4    4    0    0 -0.50483637836E+01  0.19300860224E+01  0.93402468246E+02  0.93558770019E+02  0.10566000000E+00 0.  1.
        -14    1    4    4    0    0 -0.71117356731E+00  0.91590023099E+00  0.23722304097E+02  0.23750628470E+02  0.00000000000E+00 0.  1.
<mgrwt>
<rscale>  0 0.84007065E+02</rscale>
<asrwt>0</asrwt>
<pdfrwt beam="1">  1        2 0.36310589E-01 0.84007065E+02</pdfrwt>
<pdfrwt beam="2">  1       -1 0.11500365E-02 0.84007065E+02</pdfrwt>
<totfact> 0.20554326E+05</totfact>
</mgrwt>
</event>
<event>
 8    1  0.2389776E-024  0.7807063E+02  0.7818608E-02  0.1334618E+00
         -1   -1    0    0    0  501 -0.00000000000E+00  0.00000000000E+00  0.20012757619E+02  0.20012758253E+02  0.50400000000E-02 0.  1.
          2   -1    0    0  501    0  0.00000000000E+00 -0.00000000000E+00 -0.76139213337E+02  0.76139213380E+02  0.25500000000E-02 0. -1.
         24    2    1    2    0    0  0.00000000000E+00  0.35527136788E-14 -0.56126455718E+02  0.96151971633E+02  0.78070625830E+02 0.  0.
         66    2    3    3    0    0  0.54880052111E+01 -0.26572547017E+02 -0.62600143924E+02  0.68256841965E+02  0.19999998918E+01 0.  0.
        -13    1    3    3    0    0 -0.54880052111E+01  0.26572547017E+02  0.64736882055E+01  0.27895129668E+02  0.10566000000E+00 0.  1.
         13    1    4    4    0    0  0.78562585689E+00 -0.33025740801E+01 -0.68475803852E+01  0.76436067867E+01  0.10566000000E+00 0. -1.
        -13    1    4    4    0    0  0.29771683006E+01 -0.12960472376E+02 -0.32752582267E+02  0.35349401473E+02  0.10566000000E+00 0.  1.
        -14    1    4    4    0    0  0.17252110536E+01 -0.10309500562E+02 -0.22999981271E+02  0.25263833705E+02  0.00000000000E+00 0.  1.
<mgrwt>
<rscale>  0 0.78070626E+02</rscale>
<asrwt>0</asrwt>
<pdfrwt beam="1">  1        2 0.11713725E-01 0.78070626E+02</pdfrwt>
<pdfrwt beam="2">  1       -1 0.30788859E-02 0.78070626E+02</pdfrwt>
<totfact> 0.17608309E+05</totfact>
</mgrwt>
</event>
<event>
 8    1  0.2389776E-024  0.7930307E+02  0.7818608E-02  0.1331041E+00
         -1   -1    0    0    0  501 -0.00000000000E+00  0.00000000000E+00  0.13905830445E+03  0.13905830454E+03  0.50400000000E-02 0.  1.
          2   -1    0    0  501    0  0.00000000000E+00 -0.00000000000E+00 -0.11306366934E+02  0.11306367221E+02  0.25500000000E-02 0. -1.
         24    2    1    2    0    0  0.00000000000E+00  0.00000000000E+00  0.12775193752E+03  0.15036467176E+03  0.79303070402E+02 0.  0.
         66    2    3    3    0    0 -0.19441219890E+02  0.11385696952E+02  0.21077642750E+01  0.22716465510E+02  0.20000022851E+01 0.  0.
        -13    1    3    3    0    0  0.19441219890E+02 -0.11385696952E+02  0.12564417324E+03  0.12764820625E+03  0.10566000000E+00 0.  1.
         13    1    4    4    0    0 -0.75333573164E+01  0.48126370447E+01  0.94603168453E+00  0.89899437020E+01  0.10566000000E+00 0. -1.
        -13    1    4    4    0    0 -0.35602474210E+01  0.18909292286E+01  0.99700347639E+00  0.41540528420E+01  0.10566000000E+00 0.  1.
         14    1    4    4    0    0 -0.83476151528E+01  0.46821306787E+01  0.16472911407E+00  0.95724689664E+01  0.00000000000E+00 0. -1.
<mgrwt>
<rscale>  0 0.79303070E+02</rscale>
<asrwt>0</asrwt>
<pdfrwt beam="1">  1        2 0.17394410E-02 0.79303070E+02</pdfrwt>
<pdfrwt beam="2">  1       -1 0.21393586E-01 0.79303070E+02</pdfrwt>
<totfact> 0.11238755E+05</totfact>
</mgrwt>
</event>
<event>
 8    1  0.2389776E-024  0.7856309E+02  0.7818608E-02  0.1333179E+00
          2   -1    0    0  501    0  0.00000000000E+00  0.00000000000E+00  0.40115299506E+03  0.40115299507E+03  0.25500000000E-02 0. -1.
         -1   -1    0    0    0  501 -0.00000000000E+00 -0.00000000000E+00 -0.38465101960E+01  0.38465134979E+01  0.50400000000E-02 0.  1.
         24    2    1    2    0    0  0.00000000000E+00  0.00000000000E+00  0.39730648486E+03  0.40499950857E+03  0.78563089449E+02 0.  0.
         66    2    3    3    0    0  0.22190856676E+02 -0.27201230461E+02  0.28935485718E+03  0.29148340335E+03  0.19999998407E+01 0.  0.
        -13    1    3    3    0    0 -0.22190856676E+02  0.27201230461E+02  0.10795162769E+03  0.11351610521E+03  0.10566000000E+00 0.  1.
         13    1    4    4    0    0  0.12266533520E+02 -0.15946900765E+02  0.16858909587E+03  0.16978535243E+03  0.10566000000E+00 0. -1.
        -13    1    4    4    0    0  0.75692235096E+01 -0.90589789593E+01  0.93046772580E+02  0.93792703852E+02  0.10566000000E+00 0.  1.
         14    1    4    4    0    0  0.23550996469E+01 -0.21953507367E+01  0.27718988723E+02  0.27905347069E+02  0.00000000000E+00 0. -1.
<mgrwt>
<rscale>  0 0.78563089E+02</rscale>
<asrwt>0</asrwt>
<pdfrwt beam="1">  1        2 0.61715829E-01 0.78563089E+02</pdfrwt>
<pdfrwt beam="2">  1       -1 0.59177122E-03 0.78563089E+02</pdfrwt>
<totfact> 0.29651968E+05</totfact>
</mgrwt>
</event>
<event>
 8    1  0.2389776E-024  0.7930967E+02  0.7818608E-02  0.1331022E+00
         -1   -1    0    0    0  501 -0.00000000000E+00  0.00000000000E+00  0.25005420469E+03  0.25005420474E+03  0.50400000000E-02 0.  1.
          2   -1    0    0  501    0  0.00000000000E+00 -0.00000000000E+00 -0.62886604733E+01  0.62886609903E+01  0.25500000000E-02 0. -1.
         24    2    1    2    0    0 -0.35527136788E-14  0.00000000000E+00  0.24376554422E+03  0.25634286573E+03  0.79309673205E+02 0.  0.
         66    2    3    3    0    0  0.23771421383E+02 -0.22928536101E+02  0.51168544673E+02  0.60934540321E+02  0.19999994736E+01 0.  0.
        -13    1    3    3    0    0 -0.23771421383E+02  0.22928536101E+02  0.19259699954E+03  0.19540832541E+03  0.10566000000E+00 0.  1.
         13    1    4    4    0    0  0.96224326846E+01 -0.88679204403E+01  0.21197628665E+02  0.24911480260E+02  0.10566000000E+00 0. -1.
        -13    1    4    4    0    0  0.28063263262E+00 -0.44504703664E+00  0.60860365057E+00  0.81140863835E+00  0.10566000000E+00 0.  1.
         14    1    4    4    0    0  0.13868356066E+02 -0.13615568624E+02  0.29362312358E+02  0.35211651423E+02  0.00000000000E+00 0. -1.
<mgrwt>
<rscale>  0 0.79309673E+02</rscale>
<asrwt>0</asrwt>
<pdfrwt beam="1">  1        2 0.96748644E-03 0.79309673E+02</pdfrwt>
<pdfrwt beam="2">  1       -1 0.38469871E-01 0.79309673E+02</pdfrwt>
<totfact> 0.94674575E+04</totfact>
</mgrwt>
</event>
<event>
 8    1  0.2389776E-024  0.7847723E+02  0.7818608E-02  0.1333429E+00
          2   -1    0    0  501    0  0.00000000000E+00  0.00000000000E+00  0.16223157564E+04  0.16223157564E+04  0.25500000000E-02 0. -1.
         -1   -1    0    0    0  501 -0.00000000000E+00 -0.00000000000E+00 -0.94904960518E+00  0.94906298773E+00  0.50400000000E-02 0.  1.
         24    2    1    2    0    0  0.00000000000E+00  0.00000000000E+00  0.16213667068E+04  0.16232648194E+04  0.78477232148E+02 0.  0.
         66    2    3    3    0    0 -0.15882965578E+02  0.23429521649E+00  0.15527829464E+04  0.15528654811E+04  0.20000000541E+01 0.  0.
        -13    1    3    3    0    0  0.15882965578E+02 -0.23429521649E+00  0.68583760338E+02  0.70399338320E+02  0.10566000000E+00 0.  1.
         13    1    4    4    0    0 -0.10612450901E+02  0.71815368886E+00  0.10063319796E+04  0.10063881976E+04  0.10566000000E+00 0. -1.
        -13    1    4    4    0    0 -0.22194587630E+01  0.14299782141E+00  0.25236584115E+03  0.25237566322E+03  0.10566000000E+00 0.  1.
         14    1    4    4    0    0 -0.30510559136E+01 -0.62685629378E+00  0.29408512567E+03  0.29410162025E+03  0.00000000000E+00 0. -1.
<mgrwt>
<rscale>  0 0.78477232E+02</rscale>
<asrwt>0</asrwt>
<pdfrwt beam="1">  1        2 0.24958612E+00 0.78477232E+02</pdfrwt>
<pdfrwt beam="2">  1       -1 0.14600920E-03 0.78477232E+02</pdfrwt>
<totfact> 0.33779845E+05</totfact>
</mgrwt>
</event>
<event>
 8    1  0.2389776E-024  0.7926739E+02  0.7818608E-02  0.1331143E+00
         -1   -1    0    0    0  501 -0.00000000000E+00  0.00000000000E+00  0.14796660627E+02  0.14796661486E+02  0.50400000000E-02 0.  1.
          2   -1    0    0  501    0  0.00000000000E+00 -0.00000000000E+00 -0.10616110563E+03  0.10616110566E+03  0.25500000000E-02 0. -1.
         24    2    1    2    0    0 -0.35527136788E-14  0.00000000000E+00 -0.91364445004E+02  0.12095776715E+03  0.79267393186E+02 0.  0.
         66    2    3    3    0    0 -0.21061235446E+02  0.27256856434E+02 -0.15874661306E+02  0.37980478280E+02  0.19999994030E+01 0.  0.
        -13    1    3    3    0    0  0.21061235446E+02 -0.27256856434E+02 -0.75489783697E+02  0.82977288868E+02  0.10566000000E+00 0.  1.
         13    1    4    4    0    0 -0.87594715011E+01  0.10452008165E+02 -0.64637772773E+01  0.15091865239E+02  0.10566000000E+00 0.  1.
        -13    1    4    4    0    0 -0.36905530179E+01  0.47868969575E+01 -0.21402394320E+01  0.64129831531E+01  0.10566000000E+00 0. -1.
         14    1    4    4    0    0 -0.86112109271E+01  0.12017951311E+02 -0.72706445971E+01  0.16475629888E+02  0.00000000000E+00 0. -1.
<mgrwt>
<rscale>  0 0.79267393E+02</rscale>
<asrwt>0</asrwt>
<pdfrwt beam="1">  1        2 0.16332477E-01 0.79267393E+02</pdfrwt>
<pdfrwt beam="2">  1       -1 0.22764095E-02 0.79267393E+02</pdfrwt>
<totfact> 0.18477253E+05</totfact>
</mgrwt>
</event>
<event>
 8    1  0.2389776E-024  0.7878925E+02  0.7818608E-02  0.1332523E+00
         -1   -1    0    0    0  501 -0.00000000000E+00  0.00000000000E+00  0.58183512486E+02  0.58183512704E+02  0.50400000000E-02 0.  1.
          2   -1    0    0  501    0  0.00000000000E+00 -0.00000000000E+00 -0.26673128058E+02  0.26673128180E+02  0.25500000000E-02 0. -1.
         24    2    1    2    0    0  0.44408920985E-15  0.00000000000E+00  0.31510384428E+02  0.84856640885E+02  0.78789245303E+02 0.  0.
         66    2    3    3    0    0  0.38812540314E+01  0.38303715872E+02  0.69041821491E+01  0.39165119384E+02  0.20000156808E+01 0.  0.
        -13    1    3    3    0    0 -0.38812540314E+01 -0.38303715872E+02  0.24606202278E+02  0.45691521501E+02  0.10566000000E+00 0.  1.
         13    1    4    4    0    0  0.28016934935E+01  0.24561065818E+02  0.47757521442E+01  0.25177657022E+02  0.10566000000E+00 0. -1.
        -13    1    4    4    0    0  0.17102833765E-01  0.33592133000E+01  0.88880975837E+00  0.34764570074E+01  0.10566000000E+00 0.  1.
         14    1    4    4    0    0  0.10624577041E+01  0.10383436754E+02  0.12396202465E+01  0.10511005354E+02  0.00000000000E+00 0. -1.
<mgrwt>
<rscale>  0 0.78789245E+02</rscale>
<asrwt>0</asrwt>
<pdfrwt beam="1">  1        2 0.41035582E-02 0.78789245E+02</pdfrwt>
<pdfrwt beam="2">  1       -1 0.89513097E-02 0.78789245E+02</pdfrwt>
<totfact> 0.13724391E+05</totfact>
</mgrwt>
</event>
<event>
 8    1  0.2389776E-024  0.8122992E+02  0.7818608E-02  0.1325597E+00
         -1   -1    0    0    0  501 -0.00000000000E+00  0.00000000000E+00  0.72302898562E+01  0.72302916128E+01  0.50400000000E-02 0.  1.
          2   -1    0    0  501    0  0.00000000000E+00 -0.00000000000E+00 -0.22814782665E+03  0.22814782667E+03  0.25500000000E-02 0. -1.
         24    2    1    2    0    0  0.00000000000E+00 -0.35527136788E-14 -0.22091753680E+03  0.23537811828E+03  0.81229923678E+02 0.  0.
         66    2    3    3    0    0 -0.91522666642E+01 -0.28810210267E+02 -0.18901880373E+03  0.19143118965E+03  0.20000016504E+01 0.  0.
        -13    1    3    3    0    0  0.91522666642E+01  0.28810210267E+02 -0.31898733067E+02  0.43946928630E+02  0.10566000000E+00 0.  1.
         13    1    4    4    0    0 -0.19402045939E+01 -0.75967479155E+01 -0.45827502718E+02  0.46493506452E+02  0.10566000000E+00 0. -1.
        -13    1    4    4    0    0 -0.18076008127E+01 -0.67917367094E+01 -0.45697172814E+02  0.46234596089E+02  0.10566000000E+00 0.  1.
         14    1    4    4    0    0 -0.54044612575E+01 -0.14421725642E+02 -0.97494128199E+02  0.98703087111E+02  0.00000000000E+00 0. -1.
<mgrwt>
<rscale>  0 0.81229924E+02</rscale>
<asrwt>0</asrwt>
<pdfrwt beam="1">  1        2 0.35099660E-01 0.81229924E+02</pdfrwt>
<pdfrwt beam="2">  1       -1 0.11123526E-02 0.81229924E+02</pdfrwt>
<totfact> 0.22192238E+05</totfact>
</mgrwt>
</event>
<event>
 8    1  0.2389776E-024  0.8126734E+02  0.7818608E-02  0.1325493E+00
         -1   -1    0    0    0  501 -0.00000000000E+00  0.00000000000E+00  0.19786530677E+01  0.19786594866E+01  0.50400000000E-02 0.  1.
          2   -1    0    0  501    0  0.00000000000E+00 -0.00000000000E+00 -0.83445275398E+03  0.83445275399E+03  0.25500000000E-02 0. -1.
         24    2    1    2    0    0  0.17763568394E-14  0.00000000000E+00 -0.83247410092E+03  0.83643141347E+03  0.81267341230E+02 0.  0.
         66    2    3    3    0    0  0.10172791142E+02  0.27812278475E+01 -0.82010967042E+03  0.82017991467E+03  0.19999999481E+01 0.  0.
        -13    1    3    3    0    0 -0.10172791142E+02 -0.27812278475E+01 -0.12364430498E+02  0.16251498808E+02  0.10566000000E+00 0.  1.
         13    1    4    4    0    0  0.11064362351E+01  0.60319785912E+00 -0.10574869802E+03  0.10575625914E+03  0.10566000000E+00 0. -1.
        -13    1    4    4    0    0  0.51905580891E+01  0.20521950538E+01 -0.41223326857E+03  0.41227106650E+03  0.10566000000E+00 0.  1.
        -14    1    4    4    0    0  0.38757968173E+01  0.12583493454E+00 -0.30212770383E+03  0.30215258903E+03  0.00000000000E+00 0.  1.
<mgrwt>
<rscale>  0 0.81267341E+02</rscale>
<asrwt>0</asrwt>
<pdfrwt beam="1">  1        2 0.12837707E+00 0.81267341E+02</pdfrwt>
<pdfrwt beam="2">  1       -1 0.30440932E-03 0.81267341E+02</pdfrwt>
<totfact> 0.33216257E+05</totfact>
</mgrwt>
</event>
<event>
 8    1  0.2389776E-024  0.7687659E+02  0.7818608E-02  0.1338156E+00
         -1   -1    0    0    0  501 -0.00000000000E+00  0.00000000000E+00  0.23656614412E+03  0.23656614417E+03  0.50400000000E-02 0.  1.
          2   -1    0    0  501    0  0.00000000000E+00 -0.00000000000E+00 -0.62456213175E+01  0.62456218381E+01  0.25500000000E-02 0. -1.
         24    2    1    2    0    0  0.00000000000E+00 -0.35527136788E-14  0.23032052280E+03  0.24281176601E+03  0.76876592599E+02 0.  0.
         66    2    3    3    0    0 -0.19818748794E+02  0.30951226538E+02  0.15051341953E+03  0.15494854205E+03  0.19999993019E+01 0.  0.
        -13    1    3    3    0    0  0.19818748794E+02 -0.30951226538E+02  0.79807103273E+02  0.87863223961E+02  0.10566000000E+00 0.  1.
         13    1    4    4    0    0 -0.10725581889E+02  0.16940866432E+02  0.79662055224E+02  0.82146730117E+02  0.10566000000E+00 0. -1.
        -13    1    4    4    0    0 -0.85267903135E+01  0.12708618249E+02  0.63932201695E+02  0.65738517693E+02  0.10566000000E+00 0.  1.
        -14    1    4    4    0    0 -0.56637659109E+00  0.13017418567E+01  0.69191626094E+01  0.70632942399E+01  0.00000000000E+00 0.  1.
<mgrwt>
<rscale>  0 0.76876593E+02</rscale>
<asrwt>0</asrwt>
<pdfrwt beam="1">  1        2 0.96086490E-03 0.76876593E+02</pdfrwt>
<pdfrwt beam="2">  1       -1 0.36394790E-01 0.76876593E+02</pdfrwt>
<totfact> 0.10448841E+05</totfact>
</mgrwt>
</event>
<event>
 8    1  0.2389776E-024  0.7821620E+02  0.7818608E-02  0.1334191E+00
          2   -1    0    0  501    0  0.00000000000E+00  0.00000000000E+00  0.81034552600E+01  0.81034556612E+01  0.25500000000E-02 0. -1.
         -1   -1    0    0    0  501 -0.00000000000E+00 -0.00000000000E+00 -0.18873965019E+03  0.18873965026E+03  0.50400000000E-02 0.  1.
         24    2    1    2    0    0  0.00000000000E+00  0.00000000000E+00 -0.18063619493E+03  0.19684310592E+03  0.78216196718E+02 0.  0.
         66    2    3    3    0    0  0.31089155972E+02  0.18493894588E+01 -0.30956094896E+02  0.43957202805E+02  0.20000017108E+01 0.  0.
        -13    1    3    3    0    0 -0.31089155972E+02 -0.18493894588E+01 -0.14968010004E+03  0.15288590312E+03  0.10566000000E+00 0.  1.
         13    1    4    4    0    0  0.99800918413E+01  0.13747600867E+01 -0.98727582982E+01  0.14105839887E+02  0.10566000000E+00 0. -1.
        -13    1    4    4    0    0  0.15591063521E+02  0.33631012830E-01 -0.15249330751E+02  0.21809072542E+02  0.10566000000E+00 0.  1.
        -14    1    4    4    0    0  0.55180006103E+01  0.44099835928E+00 -0.58340058461E+01  0.80422903765E+01  0.00000000000E+00 0.  1.
<mgrwt>
<rscale>  0 0.78216197E+02</rscale>
<asrwt>0</asrwt>
<pdfrwt beam="1">  1        2 0.12466856E-02 0.78216197E+02</pdfrwt>
<pdfrwt beam="2">  1       -1 0.29036866E-01 0.78216197E+02</pdfrwt>
<totfact> 0.10730947E+05</totfact>
</mgrwt>
</event>
<event>
 8    1  0.2389776E-024  0.7937204E+02  0.7818608E-02  0.1330843E+00
          2   -1    0    0  501    0  0.00000000000E+00  0.00000000000E+00  0.11644241515E+03  0.11644241518E+03  0.25500000000E-02 0. -1.
         -1   -1    0    0    0  501 -0.00000000000E+00 -0.00000000000E+00 -0.13525829429E+02  0.13525830368E+02  0.50400000000E-02 0.  1.
         24    2    1    2    0    0  0.00000000000E+00  0.35527136788E-14  0.10291658572E+03  0.12996824555E+03  0.79372043153E+02 0.  0.
         66    2    3    3    0    0  0.22377620297E+02 -0.28023318091E+02  0.79226845080E+02  0.86988259245E+02  0.20000045141E+01 0.  0.
        -13    1    3    3    0    0 -0.22377620297E+02  0.28023318091E+02  0.23689740645E+02  0.42979986306E+02  0.10566000000E+00 0.  1.
         13    1    4    4    0    0  0.17625264572E+02 -0.22102783148E+02  0.64332725040E+02  0.70270147639E+02  0.10566000000E+00 0. -1.
        -13    1    4    4    0    0  0.39419470706E+01 -0.49503943809E+01  0.12355955460E+02  0.13882584435E+02  0.10566000000E+00 0.  1.
         14    1    4    4    0    0  0.81040865426E+00 -0.97014056223E+00  0.25381645812E+01  0.28355271712E+01  0.00000000000E+00 0. -1.
<mgrwt>
<rscale>  0 0.79372043E+02</rscale>
<asrwt>0</asrwt>
<pdfrwt beam="1">  1        2 0.17914217E-01 0.79372043E+02</pdfrwt>
<pdfrwt beam="2">  1       -1 0.20808970E-02 0.79372043E+02</pdfrwt>
<totfact> 0.18913428E+05</totfact>
</mgrwt>
</event>
<event>
 8    1  0.2389776E-024  0.8089281E+02  0.7818608E-02  0.1326537E+00
          2   -1    0    0  501    0  0.00000000000E+00  0.00000000000E+00  0.39538420613E+03  0.39538420614E+03  0.25500000000E-02 0. -1.
         -1   -1    0    0    0  501 -0.00000000000E+00 -0.00000000000E+00 -0.41375230063E+01  0.41375260760E+01  0.50400000000E-02 0.  1.
         24    2    1    2    0    0  0.71054273576E-14  0.00000000000E+00  0.39124668312E+03  0.39952173221E+03  0.80892814614E+02 0.  0.
         66    2    3    3    0    0 -0.25096357090E+02  0.10551177029E+02  0.34331187507E+03  0.34439540944E+03  0.20000000428E+01 0.  0.
        -13    1    3    3    0    0  0.25096357090E+02 -0.10551177029E+02  0.47934808049E+02  0.55126322774E+02  0.10566000000E+00 0.  1.
         13    1    4    4    0    0 -0.48684895458E+01  0.26724877224E+01  0.67645740470E+02  0.67873424467E+02  0.10566000000E+00 0.  1.
        -13    1    4    4    0    0 -0.17868896326E+02  0.73283968778E+01  0.24642192734E+03  0.24717762904E+03  0.10566000000E+00 0. -1.
         14    1    4    4    0    0 -0.23589712179E+01  0.55029242892E+00  0.29244207258E+02  0.29344355932E+02  0.00000000000E+00 0. -1.
<mgrwt>
<rscale>  0 0.80892815E+02</rscale>
<asrwt>0</asrwt>
<pdfrwt beam="1">  1        2 0.60828331E-01 0.80892815E+02</pdfrwt>
<pdfrwt beam="2">  1       -1 0.63654232E-03 0.80892815E+02</pdfrwt>
<totfact> 0.27334436E+05</totfact>
</mgrwt>
</event>
<event>
 8    1  0.2389776E-024  0.7437246E+02  0.7818608E-02  0.1345825E+00
         -1   -1    0    0    0  501 -0.00000000000E+00  0.00000000000E+00  0.64842667075E+02  0.64842667271E+02  0.50400000000E-02 0.  1.
          2   -1    0    0  501    0  0.00000000000E+00 -0.00000000000E+00 -0.21325705662E+02  0.21325705814E+02  0.25500000000E-02 0. -1.
         24    2    1    2    0    0  0.00000000000E+00  0.00000000000E+00  0.43516961413E+02  0.86168373085E+02  0.74372458541E+02 0.  0.
         66    2    3    3    0    0 -0.33264930292E+02 -0.80186303128E+01  0.49861050870E+01  0.34636906264E+02  0.20000030539E+01 0.  0.
        -13    1    3    3    0    0  0.33264930292E+02  0.80186303128E+01  0.38530856326E+02  0.51531466821E+02  0.10566000000E+00 0.  1.
         13    1    4    4    0    0 -0.16808392408E+02 -0.41214107252E+01  0.32399269523E+01  0.17607281800E+02  0.10566000000E+00 0. -1.
        -13    1    4    4    0    0 -0.56429890761E+01 -0.16490900501E+01  0.94978898092E+00  0.59561805589E+01  0.10566000000E+00 0.  1.
        -14    1    4    4    0    0 -0.10813548808E+02 -0.22481295375E+01  0.79638915381E+00  0.11073443905E+02  0.00000000000E+00 0.  1.
<mgrwt>
<rscale>  0 0.74372459E+02</rscale>
<asrwt>0</asrwt>
<pdfrwt beam="1">  1        2 0.32808779E-02 0.74372459E+02</pdfrwt>
<pdfrwt beam="2">  1       -1 0.99757948E-02 0.74372459E+02</pdfrwt>
<totfact> 0.15470292E+05</totfact>
</mgrwt>
</event>
<event>
 8    1  0.2389776E-024  0.7890855E+02  0.7818608E-02  0.1332178E+00
          2   -1    0    0  501    0  0.00000000000E+00  0.00000000000E+00  0.79894044577E+02  0.79894044618E+02  0.25500000000E-02 0. -1.
         -1   -1    0    0    0  501 -0.00000000000E+00 -0.00000000000E+00 -0.19483802537E+02  0.19483803189E+02  0.50400000000E-02 0.  1.
         24    2    1    2    0    0  0.00000000000E+00  0.00000000000E+00  0.60410242040E+02  0.99377847807E+02  0.78908550179E+02 0.  0.
         66    2    3    3    0    0  0.41775137141E+01  0.30253238352E+02  0.61632050587E+02  0.68812932760E+02  0.20000009681E+01 0.  0.
        -13    1    3    3    0    0 -0.41775137141E+01 -0.30253238352E+02 -0.12218085474E+01  0.30564915046E+02  0.10566000000E+00 0.  1.
         13    1    4    4    0    0  0.70762534296E+00  0.37507734968E+01  0.68817862025E+01  0.78701449048E+01  0.10566000000E+00 0. -1.
        -13    1    4    4    0    0  0.30335997977E+01  0.19339901933E+02  0.40916860355E+02  0.45358958981E+02  0.10566000000E+00 0.  1.
        -14    1    4    4    0    0  0.43628857351E+00  0.71625629224E+01  0.13833404030E+02  0.15583828875E+02  0.00000000000E+00 0.  1.
<mgrwt>
<rscale>  0 0.78908550E+02</rscale>
<asrwt>0</asrwt>
<pdfrwt beam="1">  1        2 0.12291392E-01 0.78908550E+02</pdfrwt>
<pdfrwt beam="2">  1       -1 0.29975081E-02 0.78908550E+02</pdfrwt>
<totfact> 0.17319116E+05</totfact>
</mgrwt>
</event>
<event>
 8    1  0.2389776E-024  0.7994696E+02  0.7818608E-02  0.1329202E+00
         -1   -1    0    0    0  501 -0.00000000000E+00  0.00000000000E+00  0.58486285082E+01  0.58486306798E+01  0.50400000000E-02 0.  1.
          2   -1    0    0  501    0  0.00000000000E+00 -0.00000000000E+00 -0.27320573163E+03  0.27320573164E+03  0.25500000000E-02 0. -1.
         24    2    1    2    0    0  0.00000000000E+00  0.00000000000E+00 -0.26735710312E+03  0.27905436232E+03  0.79946960800E+02 0.  0.
         66    2    3    3    0    0 -0.51752126208E+00  0.37474042932E+02 -0.18203973988E+03  0.18586833678E+03  0.19999998696E+01 0.  0.
        -13    1    3    3    0    0  0.51752126208E+00 -0.37474042932E+02 -0.85317363246E+02  0.93186025547E+02  0.10566000000E+00 0.  1.
         13    1    4    4    0    0  0.30310260762E+00  0.38946371889E+01 -0.21455061022E+02  0.21808046164E+02  0.10566000000E+00 0. -1.
        -13    1    4    4    0    0 -0.53829948786E+00  0.20417517397E+02 -0.97037001764E+02  0.99163277772E+02  0.10566000000E+00 0.  1.
         14    1    4    4    0    0 -0.28232438184E+00  0.13161888346E+02 -0.63547677091E+02  0.64897012840E+02  0.00000000000E+00 0. -1.
<mgrwt>
<rscale>  0 0.79946961E+02</rscale>
<asrwt>0</asrwt>
<pdfrwt beam="1">  1        2 0.42031641E-01 0.79946961E+02</pdfrwt>
<pdfrwt beam="2">  1       -1 0.89978938E-03 0.79946961E+02</pdfrwt>
<totfact> 0.24687879E+05</totfact>
</mgrwt>
</event>
<event>
 8    1  0.2389776E-024  0.8434834E+02  0.7818608E-02  0.1317146E+00
         -1   -1    0    0    0  501 -0.00000000000E+00  0.00000000000E+00  0.10366224254E+01  0.10366346774E+01  0.50400000000E-02 0.  1.
          2   -1    0    0  501    0  0.00000000000E+00 -0.00000000000E+00 -0.17158128487E+04  0.17158128487E+04  0.25500000000E-02 0. -1.
         24    2    1    2    0    0  0.00000000000E+00  0.00000000000E+00 -0.17147762263E+04  0.17168494834E+04  0.84348339540E+02 0.  0.
         66    2    3    3    0    0 -0.34290390243E+01 -0.22102481322E+02 -0.15850544051E+04  0.15852134699E+04  0.20000177012E+01 0.  0.
        -13    1    3    3    0    0  0.34290390243E+01  0.22102481322E+02 -0.12972182125E+03  0.13163601354E+03  0.10566000000E+00 0.  1.
         13    1    4    4    0    0 -0.20258639419E+01 -0.14742651279E+02 -0.10742839464E+04  0.10743870152E+04  0.10566000000E+00 0. -1.
        -13    1    4    4    0    0 -0.88579597098E-01 -0.25982728996E+01 -0.15824896608E+03  0.15827035509E+03  0.10566000000E+00 0.  1.
         14    1    4    4    0    0 -0.13145954853E+01 -0.47615571432E+01 -0.35252149262E+03  0.35255609957E+03  0.00000000000E+00 0. -1.
<mgrwt>
<rscale>  0 0.84348340E+02</rscale>
<asrwt>0</asrwt>
<pdfrwt beam="1">  1        2 0.26396893E+00 0.84348340E+02</pdfrwt>
<pdfrwt beam="2">  1       -1 0.15948269E-03 0.84348340E+02</pdfrwt>
<totfact> 0.27143504E+05</totfact>
</mgrwt>
</event>
<event>
 8    1  0.2389776E-024  0.8222480E+02  0.7818608E-02  0.1322854E+00
          2   -1    0    0  501    0  0.00000000000E+00  0.00000000000E+00  0.98456082692E+03  0.98456082692E+03  0.25500000000E-02 0. -1.
         -1   -1    0    0    0  501 -0.00000000000E+00 -0.00000000000E+00 -0.17167304894E+01  0.17167378877E+01  0.50400000000E-02 0.  1.
         24    2    1    2    0    0  0.00000000000E+00  0.35527136788E-14  0.98284409643E+03  0.98627756481E+03  0.82224795293E+02 0.  0.
         66    2    3    3    0    0  0.11806778304E+02  0.22285331740E+02  0.88079571030E+03  0.88115896369E+03  0.19999980797E+01 0.  0.
        -13    1    3    3    0    0 -0.11806778304E+02 -0.22285331740E+02  0.10204838613E+03  0.10511860112E+03  0.10566000000E+00 0.  1.
         13    1    4    4    0    0  0.21796131603E+00  0.43483766257E+00  0.12094898342E+02  0.12105136136E+02  0.10566000000E+00 0. -1.
        -13    1    4    4    0    0  0.65084167892E+01  0.11379741127E+02  0.47754478684E+03  0.47772470378E+03  0.10566000000E+00 0. -1.
         14    1    4    4    0    0  0.50804001992E+01  0.10470752951E+02  0.39115602511E+03  0.39132912377E+03  0.00000000000E+00 0. -1.
<mgrwt>
<rscale>  0 0.82224795E+02</rscale>
<asrwt>0</asrwt>
<pdfrwt beam="1">  1        2 0.15147081E+00 0.82224795E+02</pdfrwt>
<pdfrwt beam="2">  1       -1 0.26411310E-03 0.82224795E+02</pdfrwt>
<totfact> 0.32782033E+05</totfact>
</mgrwt>
</event>
<event>
 8    1  0.2389776E-024  0.7979643E+02  0.7818608E-02  0.1329630E+00
          2   -1    0    0  501    0  0.00000000000E+00  0.00000000000E+00  0.84515939309E+02  0.84515939347E+02  0.25500000000E-02 0. -1.
         -1   -1    0    0    0  501 -0.00000000000E+00 -0.00000000000E+00 -0.18835118361E+02  0.18835119036E+02  0.50400000000E-02 0.  1.
         24    2    1    2    0    0  0.00000000000E+00  0.00000000000E+00  0.65680820947E+02  0.10335105838E+03  0.79796434936E+02 0.  0.
         66    2    3    3    0    0 -0.19981104371E+02  0.12856857725E+01  0.77520706129E+02  0.80089683425E+02  0.19999981381E+01 0.  0.
        -13    1    3    3    0    0  0.19981104371E+02 -0.12856857725E+01 -0.11839885181E+02  0.23261374958E+02  0.10566000000E+00 0.  1.
         13    1    4    4    0    0 -0.14229431501E+02  0.29582672196E+00  0.53578090702E+02  0.55436334670E+02  0.10566000000E+00 0. -1.
        -13    1    4    4    0    0 -0.72456992073E+00  0.28130699535E+00  0.38676041670E+01  0.39463478336E+01  0.10566000000E+00 0.  1.
         14    1    4    4    0    0 -0.50271029498E+01  0.70855205523E+00  0.20075011260E+02  0.20707000921E+02  0.00000000000E+00 0. -1.
<mgrwt>
<rscale>  0 0.79796435E+02</rscale>
<asrwt>0</asrwt>
<pdfrwt beam="1">  1        2 0.13002452E-01 0.79796435E+02</pdfrwt>
<pdfrwt beam="2">  1       -1 0.28977106E-02 0.79796435E+02</pdfrwt>
<totfact> 0.17051902E+05</totfact>
</mgrwt>
</event>
<event>
 8    1  0.2389776E-024  0.8029574E+02  0.7818608E-02  0.1328214E+00
          2   -1    0    0  501    0  0.00000000000E+00  0.00000000000E+00  0.42667455051E+03  0.42667455052E+03  0.25500000000E-02 0. -1.
         -1   -1    0    0    0  501 -0.00000000000E+00 -0.00000000000E+00 -0.37777050399E+01  0.37777084019E+01  0.50400000000E-02 0.  1.
         24    2    1    2    0    0  0.00000000000E+00 -0.88817841970E-15  0.42289684547E+03  0.43045225892E+03  0.80295736502E+02 0.  0.
         66    2    3    3    0    0  0.36462728156E+02 -0.61641132494E+01  0.29502931071E+03  0.29734461659E+03  0.20000001463E+01 0.  0.
        -13    1    3    3    0    0 -0.36462728156E+02  0.61641132494E+01  0.12786753476E+03  0.13310764233E+03  0.10566000000E+00 0.  1.
         13    1    4    4    0    0  0.16203144728E+02 -0.29433182813E+01  0.13299398247E+03  0.13400975920E+03  0.10566000000E+00 0. -1.
        -13    1    4    4    0    0  0.95644381981E+01 -0.21508707108E+01  0.79889822155E+02  0.80489127035E+02  0.10566000000E+00 0.  1.
        -14    1    4    4    0    0  0.10695145231E+02 -0.10699242573E+01  0.82145506080E+02  0.82845730358E+02  0.00000000000E+00 0.  1.
<mgrwt>
<rscale>  0 0.80295737E+02</rscale>
<asrwt>0</asrwt>
<pdfrwt beam="1">  1        2 0.65642235E-01 0.80295737E+02</pdfrwt>
<pdfrwt beam="2">  1       -1 0.58118568E-03 0.80295737E+02</pdfrwt>
<totfact> 0.28615144E+05</totfact>
</mgrwt>
</event>
<event>
 8    1  0.2389776E-024  0.7948182E+02  0.7818608E-02  0.1330528E+00
         -1   -1    0    0    0  501 -0.00000000000E+00  0.00000000000E+00  0.51150815254E+02  0.51150815502E+02  0.50400000000E-02 0.  1.
          2   -1    0    0  501    0  0.00000000000E+00 -0.00000000000E+00 -0.30876146919E+02  0.30876147024E+02  0.25500000000E-02 0. -1.
         24    2    1    2    0    0  0.00000000000E+00  0.00000000000E+00  0.20274668335E+02  0.82026962527E+02  0.79481824370E+02 0.  0.
         66    2    3    3    0    0 -0.33722618375E+02  0.88269101536E+01 -0.94973969234E+01  0.36184663645E+02  0.20000004547E+01 0.  0.
        -13    1    3    3    0    0  0.33722618375E+02 -0.88269101536E+01  0.29772065259E+02  0.45842298882E+02  0.10566000000E+00 0.  1.
         13    1    4    4    0    0 -0.18951756126E+02  0.53081939565E+01 -0.56284707387E+01  0.20470389108E+02  0.10566000000E+00 0. -1.
        -13    1    4    4    0    0 -0.95580703952E+01  0.28373782560E+01 -0.23966642507E+01  0.10254881209E+02  0.10566000000E+00 0.  1.
        -14    1    4    4    0    0 -0.52127918541E+01  0.68133794116E+00 -0.14722619340E+01  0.54593933277E+01  0.00000000000E+00 0.  1.
<mgrwt>
<rscale>  0 0.79481824E+02</rscale>
<asrwt>0</asrwt>
<pdfrwt beam="1">  1        2 0.47501765E-02 0.79481824E+02</pdfrwt>
<pdfrwt beam="2">  1       -1 0.78693562E-02 0.79481824E+02</pdfrwt>
<totfact> 0.13780190E+05</totfact>
</mgrwt>
</event>
<event>
 8    1  0.2389776E-024  0.7872117E+02  0.7818608E-02  0.1332720E+00
          2   -1    0    0  501    0  0.00000000000E+00  0.00000000000E+00  0.71311335902E+02  0.71311335948E+02  0.25500000000E-02 0. -1.
         -1   -1    0    0    0  501 -0.00000000000E+00 -0.00000000000E+00 -0.21725235440E+02  0.21725236025E+02  0.50400000000E-02 0.  1.
         24    2    1    2    0    0  0.88817841970E-15  0.00000000000E+00  0.49586100462E+02  0.93036571972E+02  0.78721168470E+02 0.  0.
         66    2    3    3    0    0 -0.76398499014E+01  0.10682747592E+02  0.68629371394E+02  0.69903354849E+02  0.19999996632E+01 0.  0.
        -13    1    3    3    0    0  0.76398499014E+01 -0.10682747592E+02 -0.19043270932E+02  0.23133217123E+02  0.10566000000E+00 0.  1.
         13    1    4    4    0    0 -0.36478026819E+01  0.41914813844E+01  0.27295518535E+02  0.27855546606E+02  0.10566000000E+00 0. -1.
        -13    1    4    4    0    0 -0.34885467632E+01  0.62126469998E+01  0.38856228546E+02  0.39504235243E+02  0.10566000000E+00 0.  1.
        -14    1    4    4    0    0 -0.50350045632E+00  0.27861920747E+00  0.24776243134E+01  0.25435730008E+01  0.00000000000E+00 0.  1.
<mgrwt>
<rscale>  0 0.78721168E+02</rscale>
<asrwt>0</asrwt>
<pdfrwt beam="1">  1        2 0.10970975E-01 0.78721168E+02</pdfrwt>
<pdfrwt beam="2">  1       -1 0.33423440E-02 0.78721168E+02</pdfrwt>
<totfact> 0.16942096E+05</totfact>
</mgrwt>
</event>
<event>
 8    1  0.2389776E-024  0.8215892E+02  0.7818608E-02  0.1323034E+00
         -1   -1    0    0    0  501 -0.00000000000E+00  0.00000000000E+00  0.26734844227E+01  0.26734891733E+01  0.50400000000E-02 0.  1.
          2   -1    0    0  501    0  0.00000000000E+00 -0.00000000000E+00 -0.63120640659E+03  0.63120640659E+03  0.25500000000E-02 0. -1.
         24    2    1    2    0    0 -0.35527136788E-14 -0.17763568394E-14 -0.62853292217E+03  0.63387989577E+03  0.82158919244E+02 0.  0.
         66    2    3    3    0    0 -0.21372824002E+02  0.15122194192E+02 -0.55843578047E+03  0.55905276967E+03  0.19999988664E+01 0.  0.
        -13    1    3    3    0    0  0.21372824002E+02 -0.15122194192E+02 -0.70097141692E+02  0.74827126100E+02  0.10566000000E+00 0.  1.
         13    1    4    4    0    0 -0.13840611615E+02  0.96392568411E+01 -0.36802360128E+03  0.36840990766E+03  0.10566000000E+00 0. -1.
        -13    1    4    4    0    0 -0.55144037754E+01  0.34201141365E+01 -0.13113199782E+03  0.13129248968E+03  0.10566000000E+00 0.  1.
        -14    1    4    4    0    0 -0.20178086116E+01  0.20628232146E+01 -0.59280181373E+02  0.59350372322E+02  0.00000000000E+00 0.  1.
<mgrwt>
<rscale>  0 0.82158919E+02</rscale>
<asrwt>0</asrwt>
<pdfrwt beam="1">  1        2 0.97108559E-01 0.82158919E+02</pdfrwt>
<pdfrwt beam="2">  1       -1 0.41130617E-03 0.82158919E+02</pdfrwt>
<totfact> 0.30423566E+05</totfact>
</mgrwt>
</event>
<event>
 8    1  0.2389776E-024  0.8014270E+02  0.7818608E-02  0.1328647E+00
          2   -1    0    0  501    0  0.00000000000E+00  0.00000000000E+00  0.38910767393E+03  0.38910767394E+03  0.25500000000E-02 0. -1.
         -1   -1    0    0    0  501 -0.00000000000E+00 -0.00000000000E+00 -0.41266532035E+01  0.41266562812E+01  0.50400000000E-02 0.  1.
         24    2    1    2    0    0  0.00000000000E+00  0.00000000000E+00  0.38498102073E+03  0.39323433022E+03  0.80142698630E+02 0.  0.
         66    2    3    3    0    0 -0.37752908544E+02  0.35324961594E+01  0.25581815520E+03  0.25862074388E+03  0.20000003856E+01 0.  0.
        -13    1    3    3    0    0  0.37752908544E+02 -0.35324961594E+01  0.12916286553E+03  0.13461358635E+03  0.10566000000E+00 0.  1.
         13    1    4    4    0    0 -0.27104276299E+02  0.17797464575E+01  0.18254959168E+03  0.18455940474E+03  0.10566000000E+00 0. -1.
        -13    1    4    4    0    0 -0.26709405802E+01  0.63070744764E+00  0.19598766758E+02  0.19790263716E+02  0.10566000000E+00 0.  1.
         14    1    4    4    0    0 -0.79776916647E+01  0.11220422542E+01  0.53669796761E+02  0.54271075422E+02  0.00000000000E+00 0. -1.
<mgrwt>
<rscale>  0 0.80142699E+02</rscale>
<asrwt>0</asrwt>
<pdfrwt beam="1">  1        2 0.59862737E-01 0.80142699E+02</pdfrwt>
<pdfrwt beam="2">  1       -1 0.63486978E-03 0.80142699E+02</pdfrwt>
<totfact> 0.27851284E+05</totfact>
</mgrwt>
</event>
<event>
 8    1  0.2389776E-024  0.8061235E+02  0.7818608E-02  0.1327323E+00
         -1   -1    0    0    0  501 -0.00000000000E+00  0.00000000000E+00  0.35589812021E+02  0.35589812378E+02  0.50400000000E-02 0.  1.
          2   -1    0    0  501    0  0.00000000000E+00 -0.00000000000E+00 -0.45647547762E+02  0.45647547833E+02  0.25500000000E-02 0. -1.
         24    2    1    2    0    0  0.00000000000E+00 -0.35527136788E-14 -0.10057735741E+02  0.81237360211E+02  0.80612347974E+02 0.  0.
         66    2    3    3    0    0  0.25975743413E+02  0.28228085817E+02 -0.17416198209E+02  0.42176865991E+02  0.19999975041E+01 0.  0.
        -13    1    3    3    0    0 -0.25975743413E+02 -0.28228085817E+02  0.73584624684E+01  0.39060494220E+02  0.10566000000E+00 0.  1.
         13    1    4    4    0    0  0.11113779770E+02  0.12571160458E+02 -0.77221666093E+01  0.18471415680E+02  0.10566000000E+00 0. -1.
        -13    1    4    4    0    0  0.21606633426E+01  0.16455523854E+01 -0.10819160640E+01  0.29254085421E+01  0.10566000000E+00 0.  1.
        -14    1    4    4    0    0  0.12701300300E+02  0.14011372974E+02 -0.86121155360E+01  0.20780041769E+02  0.00000000000E+00 0.  1.
<mgrwt>
<rscale>  0 0.80612348E+02</rscale>
<asrwt>0</asrwt>
<pdfrwt beam="1">  1        2 0.70226997E-02 0.80612348E+02</pdfrwt>
<pdfrwt beam="2">  1       -1 0.54753557E-02 0.80612348E+02</pdfrwt>
<totfact> 0.14349347E+05</totfact>
</mgrwt>
</event>
<event>
 8    1  0.2389776E-024  0.7491617E+02  0.7818608E-02  0.1344131E+00
          2   -1    0    0  501    0  0.00000000000E+00  0.00000000000E+00  0.29148819028E+03  0.29148819029E+03  0.25500000000E-02 0. -1.
         -1   -1    0    0    0  501 -0.00000000000E+00 -0.00000000000E+00 -0.48136010220E+01  0.48136036606E+01  0.50400000000E-02 0.  1.
         24    2    1    2    0    0  0.00000000000E+00  0.00000000000E+00  0.28667458926E+03  0.29630179395E+03  0.74916172972E+02 0.  0.
         66    2    3    3    0    0  0.16933676584E+02 -0.25186938473E+02  0.23008879269E+03  0.23209046466E+03  0.19999979847E+01 0.  0.
        -13    1    3    3    0    0 -0.16933676584E+02  0.25186938473E+02  0.56585796570E+02  0.64211329294E+02  0.10566000000E+00 0.  1.
         13    1    4    4    0    0  0.16076020313E+02 -0.23688695119E+02  0.21914727055E+03  0.22100934382E+03  0.10566000000E+00 0. -1.
        -13    1    4    4    0    0  0.67622267188E+00 -0.13130646508E+01  0.97432100940E+01  0.98550861412E+01  0.10566000000E+00 0.  1.
         14    1    4    4    0    0  0.18143359857E+00 -0.18517870237E+00  0.11983120467E+01  0.12260346911E+01  0.00000000000E+00 0. -1.
<mgrwt>
<rscale>  0 0.74916173E+02</rscale>
<asrwt>0</asrwt>
<pdfrwt beam="1">  1        2 0.44844333E-01 0.74916173E+02</pdfrwt>
<pdfrwt beam="2">  1       -1 0.74055428E-03 0.74916173E+02</pdfrwt>
<totfact> 0.29953803E+05</totfact>
</mgrwt>
</event>
<event>
 8    1  0.2389776E-024  0.7981067E+02  0.7818608E-02  0.1329590E+00
          2   -1    0    0  501    0  0.00000000000E+00  0.00000000000E+00  0.10348150959E+02  0.10348151273E+02  0.25500000000E-02 0. -1.
         -1   -1    0    0    0  501 -0.00000000000E+00 -0.00000000000E+00 -0.15388603486E+03  0.15388603494E+03  0.50400000000E-02 0.  1.
         24    2    1    2    0    0  0.00000000000E+00  0.00000000000E+00 -0.14353788390E+03  0.16423418622E+03  0.79810674771E+02 0.  0.
         66    2    3    3    0    0 -0.27276938780E+02 -0.29081381101E+02 -0.70125887020E+02  0.80693234785E+02  0.19999984404E+01 0.  0.
        -13    1    3    3    0    0  0.27276938780E+02  0.29081381101E+02 -0.73411996883E+02  0.83540951434E+02  0.10566000000E+00 0.  1.
         13    1    4    4    0    0 -0.48173653882E+01 -0.42162111239E+01 -0.11262209752E+02  0.12954998188E+02  0.10566000000E+00 0. -1.
        -13    1    4    4    0    0 -0.20288640999E+02 -0.22061929941E+02 -0.52490728983E+02  0.60445392707E+02  0.10566000000E+00 0.  1.
        -14    1    4    4    0    0 -0.21709323922E+01 -0.28032400360E+01 -0.63729482851E+01  0.72928438894E+01  0.00000000000E+00 0.  1.
<mgrwt>
<rscale>  0 0.79810675E+02</rscale>
<asrwt>0</asrwt>
<pdfrwt beam="1">  1        2 0.15920234E-02 0.79810675E+02</pdfrwt>
<pdfrwt beam="2">  1       -1 0.23674773E-01 0.79810675E+02</pdfrwt>
<totfact> 0.10781097E+05</totfact>
</mgrwt>
</event>
<event>
 8    1  0.2389776E-024  0.7965496E+02  0.7818608E-02  0.1330033E+00
          2   -1    0    0  501    0  0.00000000000E+00  0.00000000000E+00  0.73748565141E+03  0.73748565142E+03  0.25500000000E-02 0. -1.
         -1   -1    0    0    0  501 -0.00000000000E+00 -0.00000000000E+00 -0.21508567448E+01  0.21508626498E+01  0.50400000000E-02 0.  1.
         24    2    1    2    0    0  0.17763568394E-14  0.00000000000E+00  0.73533479467E+03  0.73963651407E+03  0.79654960245E+02 0.  0.
         66    2    3    3    0    0 -0.12603499807E+02 -0.24757403673E+02  0.63256734672E+03  0.63318024716E+03  0.20000002569E+01 0.  0.
        -13    1    3    3    0    0  0.12603499807E+02  0.24757403673E+02  0.10276744794E+03  0.10645626691E+03  0.10566000000E+00 0.  1.
         13    1    4    4    0    0 -0.70872557032E+01 -0.13071405648E+02  0.33141061400E+03  0.33174402342E+03  0.10566000000E+00 0. -1.
        -13    1    4    4    0    0 -0.38703484943E+01 -0.92774537967E+01  0.23760281261E+03  0.23781538737E+03  0.10566000000E+00 0.  1.
        -14    1    4    4    0    0 -0.16458956098E+01 -0.24085442278E+01  0.63553920109E+02  0.63620836358E+02  0.00000000000E+00 0.  1.
<mgrwt>
<rscale>  0 0.79654960E+02</rscale>
<asrwt>0</asrwt>
<pdfrwt beam="1">  1        2 0.11345917E+00 0.79654960E+02</pdfrwt>
<pdfrwt beam="2">  1       -1 0.33090196E-03 0.79654960E+02</pdfrwt>
<totfact> 0.34217925E+05</totfact>
</mgrwt>
</event>
<event>
 8    1  0.2389776E-024  0.7934837E+02  0.7818608E-02  0.1330911E+00
         -1   -1    0    0    0  501 -0.00000000000E+00  0.00000000000E+00  0.57848949181E+02  0.57848949401E+02  0.50400000000E-02 0.  1.
          2   -1    0    0  501    0  0.00000000000E+00 -0.00000000000E+00 -0.27209501150E+02  0.27209501270E+02  0.25500000000E-02 0. -1.
         24    2    1    2    0    0  0.00000000000E+00 -0.35527136788E-14  0.30639448031E+02  0.85058450671E+02  0.79348372730E+02 0.  0.
         66    2    3    3    0    0 -0.32454570111E+02 -0.19363499365E+02  0.24751829030E+01  0.37925858731E+02  0.20000003364E+01 0.  0.
        -13    1    3    3    0    0  0.32454570111E+02  0.19363499365E+02  0.28164265128E+02  0.47132591940E+02  0.10566000000E+00 0.  1.
         13    1    4    4    0    0 -0.19726009246E+02 -0.10825179872E+02  0.13505287912E+01  0.22541851124E+02  0.10566000000E+00 0.  1.
        -13    1    4    4    0    0 -0.75229671890E+01 -0.54031182039E+01  0.52529369323E+00  0.92777054896E+01  0.10566000000E+00 0. -1.
         14    1    4    4    0    0 -0.52055936763E+01 -0.31352012885E+01  0.59936041864E+00  0.61063021178E+01  0.00000000000E+00 0. -1.
<mgrwt>
<rscale>  0 0.79348373E+02</rscale>
<asrwt>0</asrwt>
<pdfrwt beam="1">  1        2 0.41860771E-02 0.79348373E+02</pdfrwt>
<pdfrwt beam="2">  1       -1 0.88998383E-02 0.79348373E+02</pdfrwt>
<totfact> 0.13506405E+05</totfact>
</mgrwt>
</event>
<event>
 8    1  0.2389776E-024  0.7973665E+02  0.7818608E-02  0.1329800E+00
         -1   -1    0    0    0  501 -0.00000000000E+00  0.00000000000E+00  0.33853148554E+01  0.33853186071E+01  0.50400000000E-02 0.  1.
          2   -1    0    0  501    0  0.00000000000E+00 -0.00000000000E+00 -0.46952278713E+03  0.46952278713E+03  0.25500000000E-02 0. -1.
         24    2    1    2    0    0  0.71054273576E-14  0.00000000000E+00 -0.46613747227E+03  0.47290810574E+03  0.79736650417E+02 0.  0.
         66    2    3    3    0    0 -0.35120574562E+02  0.16747030023E+02 -0.28408258554E+03  0.28674175346E+03  0.20000004900E+01 0.  0.
        -13    1    3    3    0    0  0.35120574562E+02 -0.16747030023E+02 -0.18205488673E+03  0.18616635227E+03  0.10566000000E+00 0.  1.
         13    1    4    4    0    0 -0.20542911871E+02  0.10300516949E+02 -0.16934174199E+03  0.17089396894E+03  0.10566000000E+00 0. -1.
        -13    1    4    4    0    0 -0.30546517015E+01  0.89124038763E+00 -0.23233684102E+02  0.23450809100E+02  0.10566000000E+00 0.  1.
        -14    1    4    4    0    0 -0.11523010990E+02  0.55552726858E+01 -0.91507159449E+02  0.92396975423E+02  0.00000000000E+00 0.  1.
<mgrwt>
<rscale>  0 0.79736650E+02</rscale>
<asrwt>0</asrwt>
<pdfrwt beam="1">  1        2 0.72234224E-01 0.79736650E+02</pdfrwt>
<pdfrwt beam="2">  1       -1 0.52081833E-03 0.79736650E+02</pdfrwt>
<totfact> 0.30094523E+05</totfact>
</mgrwt>
</event>
<event>
 8    1  0.2389776E-024  0.7866811E+02  0.7818608E-02  0.1332874E+00
         -1   -1    0    0    0  501 -0.00000000000E+00  0.00000000000E+00  0.35018740015E+01  0.35018776283E+01  0.50400000000E-02 0.  1.
          2   -1    0    0  501    0  0.00000000000E+00 -0.00000000000E+00 -0.44181117451E+03  0.44181117452E+03  0.25500000000E-02 0. -1.
         24    2    1    2    0    0  0.00000000000E+00  0.00000000000E+00 -0.43830930051E+03  0.44531305215E+03  0.78668109797E+02 0.  0.
         66    2    3    3    0    0  0.23974622027E+02 -0.31090577681E+02 -0.20832472200E+03  0.21200140641E+03  0.19999999985E+01 0.  0.
        -13    1    3    3    0    0 -0.23974622027E+02  0.31090577681E+02 -0.22998457851E+03  0.23331164574E+03  0.10566000000E+00 0.  1.
         13    1    4    4    0    0  0.10148403059E+02 -0.14067766980E+02 -0.90573206187E+02  0.92219352608E+02  0.10566000000E+00 0. -1.
        -13    1    4    4    0    0  0.91622467729E+01 -0.10388298554E+02 -0.74103645836E+02  0.75387167363E+02  0.10566000000E+00 0.  1.
        -14    1    4    4    0    0  0.46639721957E+01 -0.66345121472E+01 -0.43647869978E+02  0.44394886436E+02  0.00000000000E+00 0.  1.
<mgrwt>
<rscale>  0 0.78668110E+02</rscale>
<asrwt>0</asrwt>
<pdfrwt beam="1">  1        2 0.67970906E-01 0.78668110E+02</pdfrwt>
<pdfrwt beam="2">  1       -1 0.53875048E-03 0.78668110E+02</pdfrwt>
<totfact> 0.30545234E+05</totfact>
</mgrwt>
</event>
<event>
 8    1  0.2389776E-024  0.8168219E+02  0.7818608E-02  0.1324344E+00
          2   -1    0    0  501    0  0.00000000000E+00  0.00000000000E+00  0.59888412150E+02  0.59888412204E+02  0.25500000000E-02 0. -1.
         -1   -1    0    0    0  501 -0.00000000000E+00 -0.00000000000E+00 -0.27851714752E+02  0.27851715208E+02  0.50400000000E-02 0.  1.
         24    2    1    2    0    0  0.00000000000E+00  0.00000000000E+00  0.32036697398E+02  0.87740127412E+02  0.81682188867E+02 0.  0.
         66    2    3    3    0    0  0.16310993874E+02  0.45469518005E+01  0.55920771372E+02  0.58462432055E+02  0.19999997839E+01 0.  0.
        -13    1    3    3    0    0 -0.16310993874E+02 -0.45469518005E+01 -0.23884073974E+02  0.29277695358E+02  0.10566000000E+00 0.  1.
         13    1    4    4    0    0  0.36395160589E+01  0.79693255191E+00  0.12047422650E+02  0.12610818181E+02  0.10566000000E+00 0. -1.
        -13    1    4    4    0    0  0.36348749268E+01  0.15970289483E+01  0.15242049357E+02  0.15751001550E+02  0.10566000000E+00 0.  1.
        -14    1    4    4    0    0  0.90366028880E+01  0.21529903003E+01  0.28631299365E+02  0.30100612324E+02  0.00000000000E+00 0.  1.
<mgrwt>
<rscale>  0 0.81682189E+02</rscale>
<asrwt>0</asrwt>
<pdfrwt beam="1">  1        2 0.92136018E-02 0.81682189E+02</pdfrwt>
<pdfrwt beam="2">  1       -1 0.42848793E-02 0.81682189E+02</pdfrwt>
<totfact> 0.14701793E+05</totfact>
</mgrwt>
</event>
<event>
 8    1  0.2389776E-024  0.7993550E+02  0.7818608E-02  0.1329235E+00
         -1   -1    0    0    0  501 -0.00000000000E+00  0.00000000000E+00  0.10721959820E+02  0.10721961004E+02  0.50400000000E-02 0.  1.
          2   -1    0    0  501    0  0.00000000000E+00 -0.00000000000E+00 -0.14898589751E+03  0.14898589753E+03  0.25500000000E-02 0. -1.
         24    2    1    2    0    0 -0.17763568394E-14  0.00000000000E+00 -0.13826393769E+03  0.15970785853E+03  0.79935496573E+02 0.  0.
         66    2    3    3    0    0  0.12100466502E+02  0.24171256102E+02 -0.12792820669E+03  0.13076810369E+03  0.19999908673E+01 0.  0.
        -13    1    3    3    0    0 -0.12100466502E+02 -0.24171256102E+02 -0.10335730991E+02  0.28939754841E+02  0.10566000000E+00 0.  1.
         13    1    4    4    0    0  0.74604865204E+00  0.16630808590E+01 -0.90784021539E+01  0.92601823005E+01  0.10566000000E+00 0. -1.
        -13    1    4    4    0    0  0.97462528117E+01  0.17784576038E+02 -0.96441572939E+02  0.98550843444E+02  0.10566000000E+00 0.  1.
        -14    1    4    4    0    0  0.16081650387E+01  0.47235992046E+01 -0.22408231603E+02  0.22957077945E+02  0.00000000000E+00 0.  1.
<mgrwt>
<rscale>  0 0.79935497E+02</rscale>
<asrwt>0</asrwt>
<pdfrwt beam="1">  1        2 0.22920906E-01 0.79935497E+02</pdfrwt>
<pdfrwt beam="2">  1       -1 0.16495325E-02 0.79935497E+02</pdfrwt>
<totfact> 0.20029150E+05</totfact>
</mgrwt>
</event>
<event>
 8    1  0.2389776E-024  0.7977232E+02  0.7818608E-02  0.1329699E+00
          2   -1    0    0  501    0  0.00000000000E+00  0.00000000000E+00  0.44334179017E+03  0.44334179018E+03  0.25500000000E-02 0. -1.
         -1   -1    0    0    0  501 -0.00000000000E+00 -0.00000000000E+00 -0.35884393839E+01  0.35884429233E+01  0.50400000000E-02 0.  1.
         24    2    1    2    0    0  0.13877787808E-16  0.00000000000E+00  0.43975335079E+03  0.44693023310E+03  0.79772324348E+02 0.  0.
         66    2    3    3    0    0  0.34133923442E-01 -0.13345863355E+02  0.43044966879E+03  0.43066115517E+03  0.19999959814E+01 0.  0.
        -13    1    3    3    0    0 -0.34133923442E-01  0.13345863355E+02  0.93036820017E+01  0.16269077928E+02  0.10566000000E+00 0.  1.
         13    1    4    4    0    0 -0.50252452779E+00 -0.95648528326E+01  0.30084752318E+03  0.30099997061E+03  0.10566000000E+00 0. -1.
        -13    1    4    4    0    0 -0.12590129400E+00 -0.11023196222E+01  0.46050348772E+02  0.46063833381E+02  0.10566000000E+00 0.  1.
         14    1    4    4    0    0  0.66255974523E+00 -0.26786909002E+01  0.83551796838E+02  0.83597351185E+02  0.00000000000E+00 0. -1.
<mgrwt>
<rscale>  0 0.79772324E+02</rscale>
<asrwt>0</asrwt>
<pdfrwt beam="1">  1        2 0.68206435E-01 0.79772324E+02</pdfrwt>
<pdfrwt beam="2">  1       -1 0.55206783E-03 0.79772324E+02</pdfrwt>
<totfact> 0.29489687E+05</totfact>
</mgrwt>
</event>
<event>
 8    1  0.2389776E-024  0.7421483E+02  0.7818608E-02  0.1346320E+00
         -1   -1    0    0    0  501 -0.00000000000E+00  0.00000000000E+00  0.22488610462E+02  0.22488611027E+02  0.50400000000E-02 0.  1.
          2   -1    0    0  501    0  0.00000000000E+00 -0.00000000000E+00 -0.61229218621E+02  0.61229218674E+02  0.25500000000E-02 0. -1.
         24    2    1    2    0    0  0.35527136788E-14  0.00000000000E+00 -0.38740608159E+02  0.83717829701E+02  0.74214825267E+02 0.  0.
         66    2    3    3    0    0 -0.28098157313E+02  0.27429752353E+01 -0.46502664741E+02  0.54438296851E+02  0.19999946419E+01 0.  0.
        -13    1    3    3    0    0  0.28098157313E+02 -0.27429752353E+01  0.77620565816E+01  0.29279532850E+02  0.10566000000E+00 0.  1.
         13    1    4    4    0    0 -0.21259069483E+02  0.24594647442E+01 -0.35201077310E+02  0.41196164991E+02  0.10566000000E+00 0. -1.
        -13    1    4    4    0    0 -0.47545453402E+01 -0.15976796561E+00 -0.74410170035E+01  0.88323906886E+01  0.10566000000E+00 0.  1.
         14    1    4    4    0    0 -0.20845424889E+01  0.44327845674E+00 -0.38605704266E+01  0.44097411712E+01  0.00000000000E+00 0. -1.
<mgrwt>
<rscale>  0 0.74214825E+02</rscale>
<asrwt>0</asrwt>
<pdfrwt beam="1">  1        2 0.94198797E-02 0.74214825E+02</pdfrwt>
<pdfrwt beam="2">  1       -1 0.34597863E-02 0.74214825E+02</pdfrwt>
<totfact> 0.19158864E+05</totfact>
</mgrwt>
</event>
<event>
 8    1  0.2389776E-024  0.7939466E+02  0.7818608E-02  0.1330778E+00
          2   -1    0    0  501    0  0.00000000000E+00  0.00000000000E+00  0.14525677542E+03  0.14525677544E+03  0.25500000000E-02 0. -1.
         -1   -1    0    0    0  501 -0.00000000000E+00 -0.00000000000E+00 -0.10848912707E+02  0.10848913878E+02  0.50400000000E-02 0.  1.
         24    2    1    2    0    0  0.00000000000E+00  0.00000000000E+00  0.13440786271E+03  0.15610568932E+03  0.79394664047E+02 0.  0.
         66    2    3    3    0    0 -0.18341186208E+02  0.28620547095E+02  0.10746175448E+03  0.11272782929E+03  0.19999984012E+01 0.  0.
        -13    1    3    3    0    0  0.18341186208E+02 -0.28620547095E+02  0.26946108229E+02  0.43377860024E+02  0.10566000000E+00 0.  1.
         13    1    4    4    0    0 -0.12194715236E+02  0.19549362730E+02  0.74630047594E+02  0.78105978201E+02  0.10566000000E+00 0. -1.
        -13    1    4    4    0    0 -0.41833814499E+01  0.67527829059E+01  0.23207484327E+02  0.24529558703E+02  0.10566000000E+00 0.  1.
         14    1    4    4    0    0 -0.19630895215E+01  0.23184014589E+01  0.96242225615E+01  0.10092292391E+02  0.00000000000E+00 0. -1.
<mgrwt>
<rscale>  0 0.79394664E+02</rscale>
<asrwt>0</asrwt>
<pdfrwt beam="1">  1        2 0.22347195E-01 0.79394664E+02</pdfrwt>
<pdfrwt beam="2">  1       -1 0.16690636E-02 0.79394664E+02</pdfrwt>
<totfact> 0.20228391E+05</totfact>
</mgrwt>
</event>
<event>
 8    1  0.2389776E-024  0.8196999E+02  0.7818608E-02  0.1323552E+00
         -1   -1    0    0    0  501 -0.00000000000E+00  0.00000000000E+00  0.21952542003E+02  0.21952542582E+02  0.50400000000E-02 0.  1.
          2   -1    0    0  501    0  0.00000000000E+00 -0.00000000000E+00 -0.76518226701E+02  0.76518226743E+02  0.25500000000E-02 0. -1.
         24    2    1    2    0    0  0.00000000000E+00  0.00000000000E+00 -0.54565684698E+02  0.98470769325E+02  0.81969985146E+02 0.  0.
         66    2    3    3    0    0 -0.38017010276E+02  0.13080227044E+02 -0.36710632458E+02  0.54479867261E+02  0.19999978680E+01 0.  0.
        -13    1    3    3    0    0  0.38017010276E+02 -0.13080227044E+02 -0.17855052240E+02  0.43990902064E+02  0.10566000000E+00 0.  1.
         13    1    4    4    0    0 -0.37253960897E+02  0.12742026144E+02 -0.35935840641E+02  0.53306778549E+02  0.10566000000E+00 0. -1.
        -13    1    4    4    0    0 -0.19147284669E+00  0.60555038277E-02 -0.16934663121E+00  0.27666014756E+00  0.10566000000E+00 0. -1.
         14    1    4    4    0    0 -0.57157653288E+00  0.33214539645E+00 -0.60544518593E+00  0.89642856407E+00  0.00000000000E+00 0. -1.
<mgrwt>
<rscale>  0 0.81969985E+02</rscale>
<asrwt>0</asrwt>
<pdfrwt beam="1">  1        2 0.11772035E-01 0.81969985E+02</pdfrwt>
<pdfrwt beam="2">  1       -1 0.33773143E-02 0.81969985E+02</pdfrwt>
<totfact> 0.15456731E+05</totfact>
</mgrwt>
</event>
<event>
 8    1  0.2389776E-024  0.8037500E+02  0.7818608E-02  0.1327991E+00
         -1   -1    0    0    0  501 -0.00000000000E+00  0.00000000000E+00  0.11428224929E+01  0.11428336064E+01  0.50400000000E-02 0.  1.
          2   -1    0    0  501    0  0.00000000000E+00 -0.00000000000E+00 -0.14131915960E+04  0.14131915960E+04  0.25500000000E-02 0. -1.
         24    2    1    2    0    0  0.22204460493E-15  0.00000000000E+00 -0.14120487735E+04  0.14143344296E+04  0.80374996197E+02 0.  0.
         66    2    3    3    0    0  0.19316358186E+01 -0.11025039524E+02 -0.13851882792E+04  0.13852349445E+04  0.20000008513E+01 0.  0.
        -13    1    3    3    0    0 -0.19316358186E+01  0.11025039524E+02 -0.26860494330E+02  0.29099485101E+02  0.10566000000E+00 0.  1.
         13    1    4    4    0    0  0.70277472536E+00 -0.65476791045E+01 -0.78609353303E+03  0.78612112288E+03  0.10566000000E+00 0. -1.
        -13    1    4    4    0    0  0.88000676429E+00 -0.40491226651E+01 -0.48393998138E+03  0.48395773219E+03  0.10566000000E+00 0.  1.
        -14    1    4    4    0    0  0.34885432897E+00 -0.42823775400E+00 -0.11515476476E+03  0.11515608944E+03  0.00000000000E+00 0.  1.
<mgrwt>
<rscale>  0 0.80374996E+02</rscale>
<asrwt>0</asrwt>
<pdfrwt beam="1">  1        2 0.21741269E+00 0.80374996E+02</pdfrwt>
<pdfrwt beam="2">  1       -1 0.17582083E-03 0.80374996E+02</pdfrwt>
<totfact> 0.33512181E+05</totfact>
</mgrwt>
</event>
<event>
 8    1  0.2389776E-024  0.7681540E+02  0.7818608E-02  0.1338340E+00
         -1   -1    0    0    0  501 -0.00000000000E+00  0.00000000000E+00  0.15363612467E+02  0.15363613294E+02  0.50400000000E-02 0.  1.
          2   -1    0    0  501    0  0.00000000000E+00 -0.00000000000E+00 -0.96015913998E+02  0.96015914031E+02  0.25500000000E-02 0. -1.
         24    2    1    2    0    0  0.00000000000E+00  0.17763568394E-14 -0.80652301530E+02  0.11137952733E+03  0.76815397969E+02 0.  0.
         66    2    3    3    0    0 -0.34765398496E+02  0.14443740853E+02 -0.51193462628E+02  0.63576923464E+02  0.19999997426E+01 0.  0.
        -13    1    3    3    0    0  0.34765398496E+02 -0.14443740853E+02 -0.29458838903E+02  0.47802603861E+02  0.10566000000E+00 0.  1.
         13    1    4    4    0    0 -0.66148626083E+01  0.29640384923E+01 -0.98081644200E+01  0.12196441483E+02  0.10566000000E+00 0.  1.
        -13    1    4    4    0    0 -0.57655354918E+01  0.30534714727E+01 -0.93176837857E+01  0.11375213524E+02  0.10566000000E+00 0.  1.
         14    1    4    4    0    0 -0.22385000396E+02  0.84262308876E+01 -0.32067614422E+02  0.40005268458E+02  0.00000000000E+00 0. -1.
<mgrwt>
<rscale>  0 0.76815398E+02</rscale>
<asrwt>0</asrwt>
<pdfrwt beam="1">  1        2 0.14771679E-01 0.76815398E+02</pdfrwt>
<pdfrwt beam="2">  1       -1 0.23636328E-02 0.76815398E+02</pdfrwt>
<totfact> 0.19538822E+05</totfact>
</mgrwt>
</event>
<event>
 8    1  0.2389776E-024  0.7874449E+02  0.7818608E-02  0.1332653E+00
          2   -1    0    0  501    0  0.00000000000E+00  0.00000000000E+00  0.64235296327E+03  0.64235296328E+03  0.25500000000E-02 0. -1.
         -1   -1    0    0    0  501 -0.00000000000E+00 -0.00000000000E+00 -0.24132711634E+01  0.24132764263E+01  0.50400000000E-02 0.  1.
         24    2    1    2    0    0  0.35527136788E-14  0.00000000000E+00  0.63993969211E+03  0.64476623970E+03  0.78744487585E+02 0.  0.
         66    2    3    3    0    0  0.30878388062E+02  0.79904122590E+01  0.50883004247E+03  0.50983265259E+03  0.19999987701E+01 0.  0.
        -13    1    3    3    0    0 -0.30878388062E+02 -0.79904122590E+01  0.13110964964E+03  0.13493358711E+03  0.10566000000E+00 0.  1.
         13    1    4    4    0    0  0.14132190358E+02  0.37219592852E+01  0.22393198759E+03  0.22440837332E+03  0.10566000000E+00 0. -1.
        -13    1    4    4    0    0  0.94099620299E+01  0.18689497026E+01  0.15283615069E+03  0.15313699906E+03  0.10566000000E+00 0.  1.
         14    1    4    4    0    0  0.73362356750E+01  0.23995032711E+01  0.13206190418E+03  0.13228728021E+03  0.00000000000E+00 0. -1.
<mgrwt>
<rscale>  0 0.78744488E+02</rscale>
<asrwt>0</asrwt>
<pdfrwt beam="1">  1        2 0.98823538E-01 0.78744488E+02</pdfrwt>
<pdfrwt beam="2">  1       -1 0.37127287E-03 0.78744488E+02</pdfrwt>
<totfact> 0.34132574E+05</totfact>
</mgrwt>
</event>
<event>
 8    1  0.2389776E-024  0.7609663E+02  0.7818608E-02  0.1340508E+00
          2   -1    0    0  501    0  0.00000000000E+00  0.00000000000E+00  0.12588638560E+02  0.12588638819E+02  0.25500000000E-02 0. -1.
         -1   -1    0    0    0  501 -0.00000000000E+00 -0.00000000000E+00 -0.11499848080E+03  0.11499848091E+03  0.50400000000E-02 0.  1.
         24    2    1    2    0    0  0.00000000000E+00  0.35527136788E-14 -0.10240984224E+03  0.12758711973E+03  0.76096631550E+02 0.  0.
         66    2    3    3    0    0  0.30308007594E+02  0.22834661901E+02 -0.47246981538E+02  0.60632288139E+02  0.19999980218E+01 0.  0.
        -13    1    3    3    0    0 -0.30308007594E+02 -0.22834661901E+02 -0.55162860701E+02  0.66954831590E+02  0.10566000000E+00 0.  1.
         13    1    4    4    0    0  0.26446087882E+02  0.20515942532E+02 -0.41341658968E+02  0.53192512561E+02  0.10566000000E+00 0. -1.
        -13    1    4    4    0    0  0.30257323966E+01  0.17763906707E+01 -0.48640262623E+01  0.59983777696E+01  0.10566000000E+00 0.  1.
         14    1    4    4    0    0  0.83618731526E+00  0.54232869831E+00 -0.10412963070E+01  0.14413978085E+01  0.00000000000E+00 0. -1.
<mgrwt>
<rscale>  0 0.76096632E+02</rscale>
<asrwt>0</asrwt>
<pdfrwt beam="1">  1        2 0.19367137E-02 0.76096632E+02</pdfrwt>
<pdfrwt beam="2">  1       -1 0.17692073E-01 0.76096632E+02</pdfrwt>
<totfact> 0.13029930E+05</totfact>
</mgrwt>
</event>
<event>
 8    1  0.2389776E-024  0.7709053E+02  0.7818608E-02  0.1337517E+00
         -1   -1    0    0    0  501 -0.00000000000E+00  0.00000000000E+00  0.12711754790E+02  0.12711755789E+02  0.50400000000E-02 0.  1.
          2   -1    0    0  501    0  0.00000000000E+00 -0.00000000000E+00 -0.11687902177E+03  0.11687902180E+03  0.25500000000E-02 0. -1.
         24    2    1    2    0    0  0.00000000000E+00  0.35527136788E-14 -0.10416726698E+03  0.12959077759E+03  0.77090532011E+02 0.  0.
         66    2    3    3    0    0 -0.20378616354E+02 -0.22129090367E+02 -0.92559210335E+02  0.97345734743E+02  0.20000024957E+01 0.  0.
        -13    1    3    3    0    0  0.20378616354E+02  0.22129090367E+02 -0.11608056646E+02  0.32245042845E+02  0.10566000000E+00 0.  1.
         13    1    4    4    0    0 -0.90752920730E+01 -0.98628672635E+01 -0.43694385521E+02  0.45703911944E+02  0.10566000000E+00 0. -1.
        -13    1    4    4    0    0 -0.20164123885E+01 -0.24760379704E+01 -0.10310227391E+02  0.10793916613E+02  0.10566000000E+00 0. -1.
         14    1    4    4    0    0 -0.92869118921E+01 -0.97901851330E+01 -0.38554597423E+02  0.40847906187E+02  0.00000000000E+00 0. -1.
<mgrwt>
<rscale>  0 0.77090532E+02</rscale>
<asrwt>0</asrwt>
<pdfrwt beam="1">  1        2 0.17981387E-01 0.77090532E+02</pdfrwt>
<pdfrwt beam="2">  1       -1 0.19556547E-02 0.77090532E+02</pdfrwt>
<totfact> 0.20462705E+05</totfact>
</mgrwt>
</event>
<event>
 8    1  0.2389776E-024  0.7939128E+02  0.7818608E-02  0.1330788E+00
         -1   -1    0    0    0  501 -0.00000000000E+00  0.00000000000E+00  0.12612556497E+02  0.12612557504E+02  0.50400000000E-02 0.  1.
          2   -1    0    0  501    0  0.00000000000E+00 -0.00000000000E+00 -0.12493453186E+03  0.12493453188E+03  0.25500000000E-02 0. -1.
         24    2    1    2    0    0  0.00000000000E+00 -0.22204460493E-15 -0.11232197536E+03  0.13754708939E+03  0.79391281953E+02 0.  0.
         66    2    3    3    0    0  0.20835645585E+02 -0.16712841662E+01 -0.11461157969E+03  0.11651923239E+03  0.20000000062E+01 0.  0.
        -13    1    3    3    0    0 -0.20835645585E+02  0.16712841662E+01  0.22896043333E+01  0.21027856994E+02  0.10566000000E+00 0.  1.
         13    1    4    4    0    0  0.67414994007E+01 -0.51364402841E+00 -0.35483515739E+02  0.36122052787E+02  0.10566000000E+00 0. -1.
        -13    1    4    4    0    0  0.74688667561E+01 -0.60473465060E-01 -0.38524729759E+02  0.39242242478E+02  0.10566000000E+00 0.  1.
        -14    1    4    4    0    0  0.66252794284E+01 -0.10971666727E+01 -0.40603334197E+02  0.41154937129E+02  0.00000000000E+00 0.  1.
<mgrwt>
<rscale>  0 0.79391282E+02</rscale>
<asrwt>0</asrwt>
<pdfrwt beam="1">  1        2 0.19220696E-01 0.79391282E+02</pdfrwt>
<pdfrwt beam="2">  1       -1 0.19403935E-02 0.79391282E+02</pdfrwt>
<totfact> 0.19303733E+05</totfact>
</mgrwt>
</event>
<event>
 8    1  0.2389776E-024  0.7578593E+02  0.7818608E-02  0.1341454E+00
         -1   -1    0    0    0  501 -0.00000000000E+00  0.00000000000E+00  0.84965929664E+02  0.84965929814E+02  0.50400000000E-02 0.  1.
          2   -1    0    0  501    0  0.00000000000E+00 -0.00000000000E+00 -0.16899443567E+02  0.16899443759E+02  0.25500000000E-02 0. -1.
         24    2    1    2    0    0  0.00000000000E+00  0.00000000000E+00  0.68066486098E+02  0.10186537357E+03  0.75785934074E+02 0.  0.
         66    2    3    3    0    0 -0.18318508898E+02  0.90923053849E+01 -0.87788980275E+01  0.22345174812E+02  0.20000003382E+01 0.  0.
        -13    1    3    3    0    0  0.18318508898E+02 -0.90923053849E+01  0.76845384125E+02  0.79520198760E+02  0.10566000000E+00 0.  1.
         13    1    4    4    0    0 -0.34799504720E+01  0.17217141094E+01 -0.10387959894E+01  0.40205243321E+01  0.10566000000E+00 0. -1.
        -13    1    4    4    0    0 -0.14136665067E+02  0.67688484784E+01 -0.74592724731E+01  0.17358413488E+02  0.10566000000E+00 0.  1.
        -14    1    4    4    0    0 -0.70189335916E+00  0.60174279702E+00 -0.28082956497E+00  0.96623699265E+00  0.00000000000E+00 0.  1.
<mgrwt>
<rscale>  0 0.75785934E+02</rscale>
<asrwt>0</asrwt>
<pdfrwt beam="1">  1        2 0.25999145E-02 0.75785934E+02</pdfrwt>
<pdfrwt beam="2">  1       -1 0.13071681E-01 0.75785934E+02</pdfrwt>
<totfact> 0.14022497E+05</totfact>
</mgrwt>
</event>
<event>
 8    1  0.2389776E-024  0.7759921E+02  0.7818608E-02  0.1336006E+00
          2   -1    0    0  501    0  0.00000000000E+00  0.00000000000E+00  0.74418474596E+03  0.74418474596E+03  0.25500000000E-02 0. -1.
         -1   -1    0    0    0  501 -0.00000000000E+00 -0.00000000000E+00 -0.20228939691E+01  0.20229002476E+01  0.50400000000E-02 0.  1.
         24    2    1    2    0    0 -0.17763568394E-14  0.35527136788E-14  0.74216185199E+03  0.74620764621E+03  0.77599205632E+02 0.  0.
         66    2    3    3    0    0  0.10936887459E+02 -0.21597088778E+02  0.66258014642E+03  0.66302526360E+03  0.19999986253E+01 0.  0.
        -13    1    3    3    0    0 -0.10936887459E+02  0.21597088778E+02  0.79581705575E+02  0.83182382613E+02  0.10566000000E+00 0.  1.
         13    1    4    4    0    0  0.56146360891E+00 -0.77702988587E+00  0.30380789023E+02  0.30396093870E+02  0.10566000000E+00 0. -1.
        -13    1    4    4    0    0  0.42362504582E+01 -0.10213265773E+02  0.29459368231E+03  0.29480112862E+03  0.10566000000E+00 0.  1.
        -14    1    4    4    0    0  0.61391733918E+01 -0.10606793120E+02  0.33760567509E+03  0.33782804111E+03  0.00000000000E+00 0.  1.
<mgrwt>
<rscale>  0 0.77599206E+02</rscale>
<asrwt>0</asrwt>
<pdfrwt beam="1">  1        2 0.11448989E+00 0.77599206E+02</pdfrwt>
<pdfrwt beam="2">  1       -1 0.31121512E-03 0.77599206E+02</pdfrwt>
<totfact> 0.36687859E+05</totfact>
</mgrwt>
</event>
<event>
 8    1  0.2389776E-024  0.7993166E+02  0.7818608E-02  0.1329245E+00
          2   -1    0    0  501    0  0.00000000000E+00  0.00000000000E+00  0.11192214867E+04  0.11192214867E+04  0.25500000000E-02 0. -1.
         -1   -1    0    0    0  501 -0.00000000000E+00 -0.00000000000E+00 -0.14271193077E+01  0.14271282073E+01  0.50400000000E-02 0.  1.
         24    2    1    2    0    0 -0.35527136788E-14  0.00000000000E+00  0.11177943674E+04  0.11206486149E+04  0.79931660348E+02 0.  0.
         66    2    3    3    0    0 -0.17199440084E+02  0.16003828839E+02  0.10121012065E+04  0.10123758173E+04  0.19999995392E+01 0.  0.
        -13    1    3    3    0    0  0.17199440084E+02 -0.16003828839E+02  0.10569316088E+03  0.10827279759E+03  0.10566000000E+00 0.  1.
         13    1    4    4    0    0 -0.67692627046E+01  0.71183021495E+01  0.39781865212E+03  0.39793992547E+03  0.10566000000E+00 0. -1.
        -13    1    4    4    0    0 -0.19759317918E+01  0.17389098486E+01  0.13232720819E+03  0.13235342574E+03  0.10566000000E+00 0. -1.
         14    1    4    4    0    0 -0.84542455874E+01  0.71466168411E+01  0.48195534620E+03  0.48208246611E+03  0.00000000000E+00 0. -1.
<mgrwt>
<rscale>  0 0.79931660E+02</rscale>
<asrwt>0</asrwt>
<pdfrwt beam="1">  1        2 0.17218841E+00 0.79931660E+02</pdfrwt>
<pdfrwt beam="2">  1       -1 0.21955688E-03 0.79931660E+02</pdfrwt>
<totfact> 0.35306374E+05</totfact>
</mgrwt>
</event>
<event>
 8    1  0.2389776E-024  0.8084522E+02  0.7818608E-02  0.1326670E+00
          2   -1    0    0  501    0  0.00000000000E+00  0.00000000000E+00  0.10235765002E+03  0.10235765005E+03  0.25500000000E-02 0. -1.
         -1   -1    0    0    0  501 -0.00000000000E+00 -0.00000000000E+00 -0.15963509603E+02  0.15963510399E+02  0.50400000000E-02 0.  1.
         24    2    1    2    0    0  0.71054273576E-14  0.35527136788E-14  0.86394140419E+02  0.11832116045E+03  0.80845219476E+02 0.  0.
         66    2    3    3    0    0 -0.29836483057E+02 -0.23313924564E+02  0.22617601575E+02  0.44150998859E+02  0.19999998788E+01 0.  0.
        -13    1    3    3    0    0  0.29836483057E+02  0.23313924564E+02  0.63776538844E+02  0.74170161593E+02  0.10566000000E+00 0.  1.
         13    1    4    4    0    0 -0.13186856902E+02 -0.95196365254E+01  0.10272753419E+02  0.19236873482E+02  0.10566000000E+00 0. -1.
        -13    1    4    4    0    0 -0.13521464358E+02 -0.10918968407E+02  0.10242374716E+02  0.20173529025E+02  0.10566000000E+00 0.  1.
        -14    1    4    4    0    0 -0.31281617968E+01 -0.28753196315E+01  0.21024734400E+01  0.47405963524E+01  0.00000000000E+00 0.  1.
<mgrwt>
<rscale>  0 0.80845219E+02</rscale>
<asrwt>0</asrwt>
<pdfrwt beam="1">  1        2 0.15747331E-01 0.80845219E+02</pdfrwt>
<pdfrwt beam="2">  1       -1 0.24559246E-02 0.80845219E+02</pdfrwt>
<totfact> 0.17347006E+05</totfact>
</mgrwt>
</event>
<event>
 8    1  0.2389776E-024  0.7972498E+02  0.7818608E-02  0.1329834E+00
         -1   -1    0    0    0  501 -0.00000000000E+00  0.00000000000E+00  0.31383715167E+03  0.31383715171E+03  0.50400000000E-02 0.  1.
          2   -1    0    0  501    0  0.00000000000E+00 -0.00000000000E+00 -0.50631932276E+01  0.50631938698E+01  0.25500000000E-02 0. -1.
         24    2    1    2    0    0 -0.71054273576E-14  0.00000000000E+00  0.30877395844E+03  0.31890034558E+03  0.79724983531E+02 0.  0.
         66    2    3    3    0    0 -0.35889540741E+02  0.17250521069E+02  0.15917203674E+03  0.16408953926E+03  0.20000009107E+01 0.  0.
        -13    1    3    3    0    0  0.35889540741E+02 -0.17250521069E+02  0.14960192170E+03  0.15481080632E+03  0.10566000000E+00 0.  1.
         13    1    4    4    0    0 -0.18930629248E+02  0.86813672062E+01  0.82380526854E+02  0.84972332138E+02  0.10566000000E+00 0. -1.
        -13    1    4    4    0    0 -0.56524932926E+01  0.35166197891E+01  0.26803202978E+02  0.27617750616E+02  0.10566000000E+00 0.  1.
        -14    1    4    4    0    0 -0.11306418200E+02  0.50525340735E+01  0.49988306907E+02  0.51499456507E+02  0.00000000000E+00 0.  1.
<mgrwt>
<rscale>  0 0.79724984E+02</rscale>
<asrwt>0</asrwt>
<pdfrwt beam="1">  1        2 0.77895270E-03 0.79724984E+02</pdfrwt>
<pdfrwt beam="2">  1       -1 0.48282648E-01 0.79724984E+02</pdfrwt>
<totfact> 0.85591999E+04</totfact>
</mgrwt>
</event>
<event>
 8    1  0.2389776E-024  0.7997760E+02  0.7818608E-02  0.1329115E+00
         -1   -1    0    0    0  501 -0.00000000000E+00  0.00000000000E+00  0.13035197871E+03  0.13035197881E+03  0.50400000000E-02 0.  1.
          2   -1    0    0  501    0  0.00000000000E+00 -0.00000000000E+00 -0.12267585325E+02  0.12267585590E+02  0.25500000000E-02 0. -1.
         24    2    1    2    0    0 -0.35527136788E-14 -0.71054273576E-14  0.11808439339E+03  0.14261956440E+03  0.79977598040E+02 0.  0.
         66    2    3    3    0    0 -0.18359466819E+02 -0.35211545015E+02  0.67088969533E+02  0.77986234437E+02  0.20000010857E+01 0.  0.
        -13    1    3    3    0    0  0.18359466819E+02  0.35211545015E+02  0.50995423856E+02  0.64633329966E+02  0.10566000000E+00 0.  1.
         13    1    4    4    0    0 -0.14169049371E+02 -0.28521982505E+02  0.53551935546E+02  0.62306391413E+02  0.10566000000E+00 0. -1.
        -13    1    4    4    0    0 -0.13227805424E+01 -0.19061373072E+01  0.35840521835E+01  0.42707963996E+01  0.10566000000E+00 0.  1.
        -14    1    4    4    0    0 -0.28676369056E+01 -0.47834252030E+01  0.99529818036E+01  0.11409046624E+02  0.00000000000E+00 0.  1.
<mgrwt>
<rscale>  0 0.79977598E+02</rscale>
<asrwt>0</asrwt>
<pdfrwt beam="1">  1        2 0.18873208E-02 0.79977598E+02</pdfrwt>
<pdfrwt beam="2">  1       -1 0.20054151E-01 0.79977598E+02</pdfrwt>
<totfact> 0.11174448E+05</totfact>
</mgrwt>
</event>
<event>
 8    1  0.2389776E-024  0.8009338E+02  0.7818608E-02  0.1328787E+00
         -1   -1    0    0    0  501 -0.00000000000E+00  0.00000000000E+00  0.12220502244E+03  0.12220502254E+03  0.50400000000E-02 0.  1.
          2   -1    0    0  501    0  0.00000000000E+00 -0.00000000000E+00 -0.13123334614E+02  0.13123334861E+02  0.25500000000E-02 0. -1.
         24    2    1    2    0    0  0.00000000000E+00  0.00000000000E+00  0.10908168782E+03  0.13532835740E+03  0.80093381117E+02 0.  0.
         66    2    3    3    0    0  0.10051231679E+01 -0.30868499249E+02  0.11568457920E+02  0.33040940343E+02  0.20000004111E+01 0.  0.
        -13    1    3    3    0    0 -0.10051231679E+01  0.30868499249E+02  0.97513229902E+02  0.10228741706E+03  0.10566000000E+00 0.  1.
         13    1    4    4    0    0  0.56798380017E-01 -0.11114994393E+02  0.47317603470E+01  0.12080854540E+02  0.10566000000E+00 0. -1.
        -13    1    4    4    0    0  0.78764062701E+00 -0.17987819288E+02  0.58547200084E+01  0.18933328574E+02  0.10566000000E+00 0.  1.
        -14    1    4    4    0    0  0.16068416092E+00 -0.17656855685E+01  0.98197756486E+00  0.20267572288E+01  0.00000000000E+00 0.  1.
<mgrwt>
<rscale>  0 0.80093381E+02</rscale>
<asrwt>0</asrwt>
<pdfrwt beam="1">  1        2 0.20189747E-02 0.80093381E+02</pdfrwt>
<pdfrwt beam="2">  1       -1 0.18800772E-01 0.80093381E+02</pdfrwt>
<totfact> 0.11303729E+05</totfact>
</mgrwt>
</event>
<event>
 8    1  0.2389776E-024  0.7126083E+02  0.7818608E-02  0.1355857E+00
         -1   -1    0    0    0  501 -0.00000000000E+00  0.00000000000E+00  0.19793028341E+02  0.19793028983E+02  0.50400000000E-02 0.  1.
          2   -1    0    0  501    0  0.00000000000E+00 -0.00000000000E+00 -0.64140080146E+02  0.64140080197E+02  0.25500000000E-02 0. -1.
         24    2    1    2    0    0  0.00000000000E+00  0.00000000000E+00 -0.44347051805E+02  0.83933109180E+02  0.71260829442E+02 0.  0.
         66    2    3    3    0    0  0.82543159125E+01  0.11151100227E+02 -0.60809401153E+02  0.62404038657E+02  0.20000011601E+01 0.  0.
        -13    1    3    3    0    0 -0.82543159125E+01 -0.11151100227E+02  0.16462349348E+02  0.21529070522E+02  0.10566000000E+00 0.  1.
         13    1    4    4    0    0  0.32600886511E+01  0.55558553356E+01 -0.29299890586E+02  0.29999840981E+02  0.10566000000E+00 0. -1.
        -13    1    4    4    0    0  0.32730115518E+01  0.43093652882E+01 -0.22791106262E+02  0.23424963660E+02  0.10566000000E+00 0.  1.
        -14    1    4    4    0    0  0.17212157096E+01  0.12858796037E+01 -0.87184043051E+01  0.89792340153E+01  0.00000000000E+00 0.  1.
<mgrwt>
<rscale>  0 0.71260829E+02</rscale>
<asrwt>0</asrwt>
<pdfrwt beam="1">  1        2 0.98677045E-02 0.71260829E+02</pdfrwt>
<pdfrwt beam="2">  1       -1 0.30450814E-02 0.71260829E+02</pdfrwt>
<totfact> 0.21585133E+05</totfact>
</mgrwt>
</event>
<event>
 8    1  0.2389776E-024  0.8145139E+02  0.7818608E-02  0.1324982E+00
          2   -1    0    0  501    0  0.00000000000E+00  0.00000000000E+00  0.19879231410E+04  0.19879231410E+04  0.25500000000E-02 0. -1.
         -1   -1    0    0    0  501 -0.00000000000E+00 -0.00000000000E+00 -0.83432148519E+00  0.83433670796E+00  0.50400000000E-02 0.  1.
         24    2    1    2    0    0  0.00000000000E+00  0.44408920985E-15  0.19870888195E+04  0.19887574777E+04  0.81451387373E+02 0.  0.
         66    2    3    3    0    0  0.10016042464E+02  0.33148967515E+01  0.19539515579E+04  0.19539810644E+04  0.19999998790E+01 0.  0.
        -13    1    3    3    0    0 -0.10016042464E+02 -0.33148967515E+01  0.33137261597E+02  0.34776413232E+02  0.10566000000E+00 0.  1.
         13    1    4    4    0    0  0.50846570256E+01  0.15203827790E+01  0.10516527245E+04  0.10516661207E+04  0.10566000000E+00 0. -1.
        -13    1    4    4    0    0  0.67264543097E+00  0.69819871019E+00  0.19513724705E+03  0.19513968403E+03  0.10566000000E+00 0.  1.
        -14    1    4    4    0    0  0.42587400075E+01  0.10963152623E+01  0.70716158628E+03  0.70717525967E+03  0.00000000000E+00 0.  1.
<mgrwt>
<rscale>  0 0.81451387E+02</rscale>
<asrwt>0</asrwt>
<pdfrwt beam="1">  1        2 0.30583348E+00 0.81451387E+02</pdfrwt>
<pdfrwt beam="2">  1       -1 0.12835868E-03 0.81451387E+02</pdfrwt>
<totfact> 0.26636498E+05</totfact>
</mgrwt>
</event>
<event>
 8    1  0.2389776E-024  0.7965526E+02  0.7818608E-02  0.1330033E+00
         -1   -1    0    0    0  501 -0.00000000000E+00  0.00000000000E+00  0.21126845472E+01  0.21126905589E+01  0.50400000000E-02 0.  1.
          2   -1    0    0  501    0  0.00000000000E+00 -0.00000000000E+00 -0.75081620136E+03  0.75081620136E+03  0.25500000000E-02 0. -1.
         24    2    1    2    0    0  0.00000000000E+00  0.00000000000E+00 -0.74870351681E+03  0.75292889192E+03  0.79655258489E+02 0.  0.
         66    2    3    3    0    0  0.16131312430E+02  0.16946741469E+01 -0.71815658022E+03  0.71834251223E+03  0.19999998146E+01 0.  0.
        -13    1    3    3    0    0 -0.16131312430E+02 -0.16946741469E+01 -0.30546936590E+02  0.34586379693E+02  0.10566000000E+00 0.  1.
         13    1    4    4    0    0  0.26456734155E+01  0.41968495623E+00 -0.11751074359E+03  0.11754131931E+03  0.10566000000E+00 0. -1.
        -13    1    4    4    0    0  0.54085493597E-01 -0.62646284064E-01 -0.11325103040E+02  0.11325898318E+02  0.10566000000E+00 0.  1.
        -14    1    4    4    0    0  0.13431553521E+02  0.13376354747E+01 -0.58932073359E+03  0.58947529460E+03  0.00000000000E+00 0.  1.
<mgrwt>
<rscale>  0 0.79655258E+02</rscale>
<asrwt>0</asrwt>
<pdfrwt beam="1">  1        2 0.11550997E+00 0.79655258E+02</pdfrwt>
<pdfrwt beam="2">  1       -1 0.32502946E-03 0.79655258E+02</pdfrwt>
<totfact> 0.34343350E+05</totfact>
</mgrwt>
</event>
<event>
 8    1  0.2389776E-024  0.7918202E+02  0.7818608E-02  0.1331389E+00
          2   -1    0    0  501    0  0.00000000000E+00  0.00000000000E+00  0.59753352329E+01  0.59753357770E+01  0.25500000000E-02 0. -1.
         -1   -1    0    0    0  501 -0.00000000000E+00 -0.00000000000E+00 -0.26231966826E+03  0.26231966831E+03  0.50400000000E-02 0.  1.
         24    2    1    2    0    0  0.17763568394E-14  0.71054273576E-14 -0.25634433303E+03  0.26829500409E+03  0.79182019058E+02 0.  0.
         66    2    3    3    0    0 -0.15642380967E+02 -0.33947156366E+02 -0.17221718683E+03  0.17623805759E+03  0.19999985217E+01 0.  0.
        -13    1    3    3    0    0  0.15642380967E+02  0.33947156366E+02 -0.84127146198E+02  0.92056946501E+02  0.10566000000E+00 0.  1.
         13    1    4    4    0    0 -0.83615849711E+01 -0.18865853432E+02 -0.98380542638E+02  0.10052153432E+03  0.10566000000E+00 0. -1.
        -13    1    4    4    0    0 -0.63588925951E+01 -0.12601890479E+02 -0.61408976943E+02  0.63010449704E+02  0.10566000000E+00 0.  1.
        -14    1    4    4    0    0 -0.92190340082E+00 -0.24794124550E+01 -0.12427667250E+02  0.12706073558E+02  0.00000000000E+00 0.  1.
<mgrwt>
<rscale>  0 0.79182019E+02</rscale>
<asrwt>0</asrwt>
<pdfrwt beam="1">  1        2 0.91928259E-03 0.79182019E+02</pdfrwt>
<pdfrwt beam="2">  1       -1 0.40356863E-01 0.79182019E+02</pdfrwt>
<totfact> 0.93445317E+04</totfact>
</mgrwt>
</event>
<event>
 8    1  0.2389776E-024  0.8028082E+02  0.7818608E-02  0.1328256E+00
          2   -1    0    0  501    0  0.00000000000E+00  0.00000000000E+00  0.12543898762E+02  0.12543899021E+02  0.25500000000E-02 0. -1.
         -1   -1    0    0    0  501 -0.00000000000E+00 -0.00000000000E+00 -0.12844910134E+03  0.12844910144E+03  0.50400000000E-02 0.  1.
         24    2    1    2    0    0  0.00000000000E+00  0.00000000000E+00 -0.11590520258E+03  0.14099300046E+03  0.80280820837E+02 0.  0.
         66    2    3    3    0    0 -0.18342386027E+02  0.29525350551E+02 -0.22817087525E+02  0.41627021481E+02  0.19999959981E+01 0.  0.
        -13    1    3    3    0    0  0.18342386027E+02 -0.29525350551E+02 -0.93088115053E+02  0.99365978979E+02  0.10566000000E+00 0.  1.
         13    1    4    4    0    0 -0.71639555749E+01  0.11567371579E+02 -0.91623795277E+01  0.16403862575E+02  0.10566000000E+00 0. -1.
        -13    1    4    4    0    0 -0.91634130438E+01  0.15121463301E+02 -0.12009429250E+02  0.21374385276E+02  0.10566000000E+00 0.  1.
         14    1    4    4    0    0 -0.20150174083E+01  0.28365156704E+01 -0.16452787475E+01  0.38487736308E+01  0.00000000000E+00 0. -1.
<mgrwt>
<rscale>  0 0.80280821E+02</rscale>
<asrwt>0</asrwt>
<pdfrwt beam="1">  1        2 0.19298307E-02 0.80280821E+02</pdfrwt>
<pdfrwt beam="2">  1       -1 0.19761399E-01 0.80280821E+02</pdfrwt>
<totfact> 0.11107250E+05</totfact>
</mgrwt>
</event>
<event>
 8    1  0.2389776E-024  0.7817651E+02  0.7818608E-02  0.1334307E+00
          2   -1    0    0  501    0  0.00000000000E+00  0.00000000000E+00  0.63755866250E+01  0.63755871349E+01  0.25500000000E-02 0. -1.
         -1   -1    0    0    0  501 -0.00000000000E+00 -0.00000000000E+00 -0.23964721621E+03  0.23964721627E+03  0.50400000000E-02 0.  1.
         24    2    1    2    0    0  0.00000000000E+00  0.00000000000E+00 -0.23327162959E+03  0.24602280340E+03  0.78176509404E+02 0.  0.
         66    2    3    3    0    0  0.33559173932E+01  0.34476699924E+02 -0.59892662432E+02  0.69217310174E+02  0.19999988321E+01 0.  0.
        -13    1    3    3    0    0 -0.33559173932E+01 -0.34476699924E+02 -0.17337896716E+03  0.17680549323E+03  0.10566000000E+00 0.  1.
         13    1    4    4    0    0  0.43605830189E+00  0.21680916372E+01 -0.31162973578E+01  0.38227269649E+01  0.10566000000E+00 0. -1.
        -13    1    4    4    0    0  0.43941101536E+00  0.64379319805E+01 -0.10829487496E+02  0.12606705109E+02  0.10566000000E+00 0. -1.
         14    1    4    4    0    0  0.24804480760E+01  0.25870676306E+02 -0.45946877578E+02  0.52787878100E+02  0.00000000000E+00 0. -1.
<mgrwt>
<rscale>  0 0.78176509E+02</rscale>
<asrwt>0</asrwt>
<pdfrwt beam="1">  1        2 0.98085971E-03 0.78176509E+02</pdfrwt>
<pdfrwt beam="2">  1       -1 0.36868796E-01 0.78176509E+02</pdfrwt>
<totfact> 0.99675772E+04</totfact>
</mgrwt>
</event>
<event>
 8    1  0.2389776E-024  0.8242894E+02  0.7818608E-02  0.1322296E+00
          2   -1    0    0  501    0  0.00000000000E+00  0.00000000000E+00  0.27438503260E+03  0.27438503261E+03  0.25500000000E-02 0. -1.
         -1   -1    0    0    0  501 -0.00000000000E+00 -0.00000000000E+00 -0.61906884141E+01  0.61906904657E+01  0.50400000000E-02 0.  1.
         24    2    1    2    0    0  0.00000000000E+00 -0.35527136788E-14  0.26819434418E+03  0.28057572307E+03  0.82428939864E+02 0.  0.
         66    2    3    3    0    0  0.21099875793E+02  0.30502800338E+02  0.19516106206E+03  0.19866420345E+03  0.19999993645E+01 0.  0.
        -13    1    3    3    0    0 -0.21099875793E+02 -0.30502800338E+02  0.73033282117E+02  0.81911519628E+02  0.10566000000E+00 0.  1.
         13    1    4    4    0    0  0.12389479243E+02  0.18455279505E+02  0.11248112408E+03  0.11465649121E+03  0.10566000000E+00 0.  1.
        -13    1    4    4    0    0  0.27370333376E+01  0.41838488857E+01  0.27314172655E+02  0.27768167654E+02  0.10566000000E+00 0. -1.
        -14    1    4    4    0    0  0.59733632126E+01  0.78636719469E+01  0.55365765330E+02  0.56239544585E+02  0.00000000000E+00 0.  1.
<mgrwt>
<rscale>  0 0.82428940E+02</rscale>
<asrwt>0</asrwt>
<pdfrwt beam="1">  1        2 0.42213080E-01 0.82428940E+02</pdfrwt>
<pdfrwt beam="2">  1       -1 0.95241380E-03 0.82428940E+02</pdfrwt>
<totfact> 0.22816793E+05</totfact>
</mgrwt>
</event>
<event>
 8    1  0.2389776E-024  0.8001266E+02  0.7818608E-02  0.1329016E+00
         -1   -1    0    0    0  501 -0.00000000000E+00  0.00000000000E+00  0.78392754893E+01  0.78392771094E+01  0.50400000000E-02 0.  1.
          2   -1    0    0  501    0  0.00000000000E+00 -0.00000000000E+00 -0.20416508124E+03  0.20416508126E+03  0.25500000000E-02 0. -1.
         24    2    1    2    0    0 -0.35527136788E-14  0.00000000000E+00 -0.19632580576E+03  0.21200435837E+03  0.80012661263E+02 0.  0.
         66    2    3    3    0    0 -0.26033307347E+02 -0.17350161611E+02 -0.16418562950E+03  0.16715167402E+03  0.19999987457E+01 0.  0.
        -13    1    3    3    0    0  0.26033307347E+02  0.17350161611E+02 -0.32140176254E+02  0.44852684346E+02  0.10566000000E+00 0.  1.
         13    1    4    4    0    0 -0.80172436238E+01 -0.56242018184E+01 -0.55845892177E+02  0.56698171738E+02  0.10566000000E+00 0. -1.
        -13    1    4    4    0    0 -0.13249628754E+02 -0.83858863021E+01 -0.78023050265E+02  0.79583184706E+02  0.10566000000E+00 0.  1.
        -14    1    4    4    0    0 -0.47664349694E+01 -0.33400734903E+01 -0.30316687059E+02  0.30870317580E+02  0.00000000000E+00 0.  1.
<mgrwt>
<rscale>  0 0.80012661E+02</rscale>
<asrwt>0</asrwt>
<pdfrwt beam="1">  1        2 0.31410008E-01 0.80012661E+02</pdfrwt>
<pdfrwt beam="2">  1       -1 0.12060427E-02 0.80012661E+02</pdfrwt>
<totfact> 0.22208049E+05</totfact>
</mgrwt>
</event>
<event>
 8    1  0.2389776E-024  0.8082319E+02  0.7818608E-02  0.1326731E+00
         -1   -1    0    0    0  501 -0.00000000000E+00  0.00000000000E+00  0.17864865882E+02  0.17864866593E+02  0.50400000000E-02 0.  1.
          2   -1    0    0  501    0  0.00000000000E+00 -0.00000000000E+00 -0.91413884601E+02  0.91413884636E+02  0.25500000000E-02 0. -1.
         24    2    1    2    0    0  0.35527136788E-14 -0.35527136788E-14 -0.73549018719E+02  0.10927875123E+03  0.80823185508E+02 0.  0.
         66    2    3    3    0    0  0.20575305448E+02 -0.29723686480E+02 -0.61143687249E+02  0.71059068536E+02  0.19999996475E+01 0.  0.
        -13    1    3    3    0    0 -0.20575305448E+02  0.29723686480E+02 -0.12405331470E+02  0.38219682693E+02  0.10566000000E+00 0.  1.
         13    1    4    4    0    0  0.17292530949E+02 -0.25312385192E+02 -0.51122894018E+02  0.59609646263E+02  0.10566000000E+00 0. -1.
        -13    1    4    4    0    0  0.30108546822E+00 -0.54168062929E+00 -0.15209869840E+01  0.16457933663E+01  0.10566000000E+00 0.  1.
        -14    1    4    4    0    0  0.29816890302E+01 -0.38696206591E+01 -0.84998062466E+01  0.98036289071E+01  0.00000000000E+00 0.  1.
<mgrwt>
<rscale>  0 0.80823186E+02</rscale>
<asrwt>0</asrwt>
<pdfrwt beam="1">  1        2 0.14063674E-01 0.80823186E+02</pdfrwt>
<pdfrwt beam="2">  1       -1 0.27484410E-02 0.80823186E+02</pdfrwt>
<totfact> 0.16824078E+05</totfact>
</mgrwt>
</event>
<event>
 8    1  0.2389776E-024  0.8024544E+02  0.7818608E-02  0.1328356E+00
         -1   -1    0    0    0  501 -0.00000000000E+00  0.00000000000E+00  0.12001365565E+02  0.12001366624E+02  0.50400000000E-02 0.  1.
          2   -1    0    0  501    0  0.00000000000E+00 -0.00000000000E+00 -0.13413745740E+03  0.13413745742E+03  0.25500000000E-02 0. -1.
         24    2    1    2    0    0 -0.88817841970E-15  0.17763568394E-14 -0.12213609183E+03  0.14613882404E+03  0.80245442022E+02 0.  0.
         66    2    3    3    0    0  0.42419274780E+01 -0.12113037878E+02 -0.13028812296E+03  0.13093400866E+03  0.20000006463E+01 0.  0.
        -13    1    3    3    0    0 -0.42419274780E+01  0.12113037878E+02  0.81520311314E+01  0.15204815387E+02  0.10566000000E+00 0.  1.
         13    1    4    4    0    0  0.68763303144E+00 -0.20621477581E+01 -0.27957794272E+02  0.28042373601E+02  0.10566000000E+00 0. -1.
        -13    1    4    4    0    0  0.34892301397E+01 -0.87572639602E+01 -0.88437808258E+02  0.88938863792E+02  0.10566000000E+00 0.  1.
        -14    1    4    4    0    0  0.65064306868E-01 -0.12936261595E+01 -0.13892520432E+02  0.13952771265E+02  0.00000000000E+00 0.  1.
<mgrwt>
<rscale>  0 0.80245442E+02</rscale>
<asrwt>0</asrwt>
<pdfrwt beam="1">  1        2 0.20636531E-01 0.80245442E+02</pdfrwt>
<pdfrwt beam="2">  1       -1 0.18463641E-02 0.80245442E+02</pdfrwt>
<totfact> 0.19176290E+05</totfact>
</mgrwt>
</event>
<event>
 8    1  0.2389776E-024  0.7930724E+02  0.7818608E-02  0.1331029E+00
         -1   -1    0    0    0  501 -0.00000000000E+00  0.00000000000E+00  0.65174095242E+02  0.65174095437E+02  0.50400000000E-02 0.  1.
          2   -1    0    0  501    0  0.00000000000E+00 -0.00000000000E+00 -0.24126298039E+02  0.24126298174E+02  0.25500000000E-02 0. -1.
         24    2    1    2    0    0 -0.17763568394E-14  0.00000000000E+00  0.41047797203E+02  0.89300393611E+02  0.79307242064E+02 0.  0.
         66    2    3    3    0    0  0.13902351099E+02 -0.31419888063E+02 -0.16976312847E+01  0.34458187669E+02  0.20000033685E+01 0.  0.
        -13    1    3    3    0    0 -0.13902351099E+02  0.31419888063E+02  0.42745428487E+02  0.54842205942E+02  0.10566000000E+00 0.  1.
         13    1    4    4    0    0  0.11755269497E+02 -0.27015245244E+02 -0.15296147772E+01  0.29501876584E+02  0.10566000000E+00 0. -1.
        -13    1    4    4    0    0  0.70372939158E+00 -0.17268925319E+01 -0.38342982175E+00  0.19067184735E+01  0.10566000000E+00 0.  1.
        -14    1    4    4    0    0  0.14433522099E+01 -0.26777502871E+01  0.21541331424E+00  0.30495926118E+01  0.00000000000E+00 0.  1.
<mgrwt>
<rscale>  0 0.79307242E+02</rscale>
<asrwt>0</asrwt>
<pdfrwt beam="1">  1        2 0.37117382E-02 0.79307242E+02</pdfrwt>
<pdfrwt beam="2">  1       -1 0.10026784E-01 0.79307242E+02</pdfrwt>
<totfact> 0.13211299E+05</totfact>
</mgrwt>
</event>
<event>
 8    1  0.2389776E-024  0.7973227E+02  0.7818608E-02  0.1329813E+00
         -1   -1    0    0    0  501 -0.00000000000E+00  0.00000000000E+00  0.16617412618E+02  0.16617413382E+02  0.50400000000E-02 0.  1.
          2   -1    0    0  501    0  0.00000000000E+00 -0.00000000000E+00 -0.95641168973E+02  0.95641169007E+02  0.25500000000E-02 0. -1.
         24    2    1    2    0    0  0.00000000000E+00  0.00000000000E+00 -0.79023756356E+02  0.11225858239E+03  0.79732272334E+02 0.  0.
         66    2    3    3    0    0 -0.74505588637E+01  0.26436958330E+02 -0.80169464893E+02  0.84767721996E+02  0.19999994796E+01 0.  0.
        -13    1    3    3    0    0  0.74505588637E+01 -0.26436958330E+02  0.11457085377E+01  0.27490860394E+02  0.10566000000E+00 0.  1.
         13    1    4    4    0    0 -0.42561197420E+01  0.17898231126E+02 -0.52146462792E+02  0.55296708568E+02  0.10566000000E+00 0. -1.
        -13    1    4    4    0    0 -0.24351957956E+01  0.61768237891E+01 -0.20730229269E+02  0.21767795025E+02  0.10566000000E+00 0.  1.
         14    1    4    4    0    0 -0.75924332608E+00  0.23619034148E+01 -0.72927728320E+01  0.77032184020E+01  0.00000000000E+00 0. -1.
<mgrwt>
<rscale>  0 0.79732272E+02</rscale>
<asrwt>0</asrwt>
<pdfrwt beam="1">  1        2 0.14714026E-01 0.79732272E+02</pdfrwt>
<pdfrwt beam="2">  1       -1 0.25565251E-02 0.79732272E+02</pdfrwt>
<totfact> 0.17666014E+05</totfact>
</mgrwt>
</event>
<event>
 8    1  0.2389776E-024  0.7937969E+02  0.7818608E-02  0.1330821E+00
         -1   -1    0    0    0  501 -0.00000000000E+00  0.00000000000E+00  0.22001855936E+01  0.22001913662E+01  0.50400000000E-02 0.  1.
          2   -1    0    0  501    0  0.00000000000E+00 -0.00000000000E+00 -0.71597665711E+03  0.71597665711E+03  0.25500000000E-02 0. -1.
         24    2    1    2    0    0  0.00000000000E+00  0.35527136788E-14 -0.71377647151E+03  0.71817684848E+03  0.79379685080E+02 0.  0.
         66    2    3    3    0    0 -0.17716068817E+02  0.31221184993E+02 -0.50975933573E+03  0.51102563718E+03  0.20000000203E+01 0.  0.
        -13    1    3    3    0    0  0.17716068817E+02 -0.31221184993E+02 -0.20401713578E+03  0.20715121130E+03  0.10566000000E+00 0.  1.
         13    1    4    4    0    0 -0.86542227773E+01  0.15499426465E+02 -0.26019929289E+03  0.26080416211E+03  0.10566000000E+00 0. -1.
        -13    1    4    4    0    0 -0.17615141555E+01  0.26732461773E+01 -0.39106045031E+02  0.39237011855E+02  0.10566000000E+00 0.  1.
         14    1    4    4    0    0 -0.73003318844E+01  0.13048512351E+02 -0.21045399781E+03  0.21098446321E+03  0.00000000000E+00 0. -1.
<mgrwt>
<rscale>  0 0.79379685E+02</rscale>
<asrwt>0</asrwt>
<pdfrwt beam="1">  1        2 0.11015007E+00 0.79379685E+02</pdfrwt>
<pdfrwt beam="2">  1       -1 0.33849111E-03 0.79379685E+02</pdfrwt>
<totfact> 0.34308579E+05</totfact>
</mgrwt>
</event>
<event>
 8    1  0.2389776E-024  0.7964013E+02  0.7818608E-02  0.1330076E+00
          2   -1    0    0  501    0  0.00000000000E+00  0.00000000000E+00  0.12360326687E+04  0.12360326687E+04  0.25500000000E-02 0. -1.
         -1   -1    0    0    0  501 -0.00000000000E+00 -0.00000000000E+00 -0.12828395026E+01  0.12828494031E+01  0.50400000000E-02 0.  1.
         24    2    1    2    0    0  0.00000000000E+00  0.69388939039E-17  0.12347498292E+04  0.12373155181E+04  0.79640132108E+02 0.  0.
         66    2    3    3    0    0  0.19981938127E+02  0.48805598640E-01  0.11524370686E+04  0.11526120238E+04  0.19999989028E+01 0.  0.
        -13    1    3    3    0    0 -0.19981938127E+02 -0.48805598640E-01  0.82312760563E+02  0.84703494313E+02  0.10566000000E+00 0.  1.
         13    1    4    4    0    0  0.35018257132E+00 -0.11727683943E+00  0.30547262231E+02  0.30549677176E+02  0.10566000000E+00 0.  1.
        -13    1    4    4    0    0  0.50934924136E+00  0.18845230246E+00  0.29738797077E+02  0.29743943359E+02  0.10566000000E+00 0.  1.
         14    1    4    4    0    0  0.19122406314E+02 -0.22369864393E-01  0.10921510093E+04  0.10923184032E+04  0.00000000000E+00 0. -1.
<mgrwt>
<rscale>  0 0.79640132E+02</rscale>
<asrwt>0</asrwt>
<pdfrwt beam="1">  1        2 0.19015905E+00 0.79640132E+02</pdfrwt>
<pdfrwt beam="2">  1       -1 0.19736050E-03 0.79640132E+02</pdfrwt>
<totfact> 0.35319754E+05</totfact>
</mgrwt>
</event>
<event>
 8    1  0.2389776E-024  0.7830487E+02  0.7818608E-02  0.1333932E+00
          2   -1    0    0  501    0  0.00000000000E+00  0.00000000000E+00  0.96627364123E+03  0.96627364123E+03  0.25500000000E-02 0. -1.
         -1   -1    0    0    0  501 -0.00000000000E+00 -0.00000000000E+00 -0.15864133139E+01  0.15864213199E+01  0.50400000000E-02 0.  1.
         24    2    1    2    0    0  0.00000000000E+00  0.00000000000E+00  0.96468722791E+03  0.96786006255E+03  0.78304872015E+02 0.  0.
         66    2    3    3    0    0  0.56346787100E+01 -0.22120409700E+02  0.87543923315E+03  0.87573906677E+03  0.20000018650E+01 0.  0.
        -13    1    3    3    0    0 -0.56346787100E+01  0.22120409700E+02  0.89247994767E+02  0.92120995779E+02  0.10566000000E+00 0.  1.
         13    1    4    4    0    0  0.29226636281E+01 -0.12736126574E+02  0.51688762166E+03  0.51705277822E+03  0.10566000000E+00 0. -1.
        -13    1    4    4    0    0  0.24408265339E+01 -0.67467851202E+01  0.25910991322E+03  0.25920924952E+03  0.10566000000E+00 0.  1.
        -14    1    4    4    0    0  0.27118854801E+00 -0.26374980056E+01  0.99441698268E+02  0.99477039026E+02  0.00000000000E+00 0.  1.
<mgrwt>
<rscale>  0 0.78304872E+02</rscale>
<asrwt>0</asrwt>
<pdfrwt beam="1">  1        2 0.14865739E+00 0.78304872E+02</pdfrwt>
<pdfrwt beam="2">  1       -1 0.24406435E-03 0.78304872E+02</pdfrwt>
<totfact> 0.37174748E+05</totfact>
</mgrwt>
</event>
<event>
 8    1  0.2389776E-024  0.7839307E+02  0.7818608E-02  0.1333675E+00
          2   -1    0    0  501    0  0.00000000000E+00  0.00000000000E+00  0.34113310686E+03  0.34113310687E+03  0.25500000000E-02 0. -1.
         -1   -1    0    0    0  501 -0.00000000000E+00 -0.00000000000E+00 -0.45037197249E+01  0.45037225450E+01  0.50400000000E-02 0.  1.
         24    2    1    2    0    0  0.00000000000E+00  0.00000000000E+00  0.33662938714E+03  0.34563682942E+03  0.78393070898E+02 0.  0.
         66    2    3    3    0    0  0.23320937492E+02 -0.30794506857E+02  0.13978372419E+03  0.14503674476E+03  0.20000011966E+01 0.  0.
        -13    1    3    3    0    0 -0.23320937492E+02  0.30794506857E+02  0.19684566295E+03  0.20060008465E+03  0.10566000000E+00 0.  1.
         13    1    4    4    0    0  0.40110924875E+01 -0.49182820885E+01  0.23197441055E+02  0.24050172498E+02  0.10566000000E+00 0. -1.
        -13    1    4    4    0    0  0.13517421786E+02 -0.18034577305E+02  0.84252297025E+02  0.87214834680E+02  0.10566000000E+00 0.  1.
        -14    1    4    4    0    0  0.57924232183E+01 -0.78416474639E+01  0.32333986110E+02  0.33771737584E+02  0.00000000000E+00 0.  1.
<mgrwt>
<rscale>  0 0.78393071E+02</rscale>
<asrwt>0</asrwt>
<pdfrwt beam="1">  1        2 0.52482019E-01 0.78393071E+02</pdfrwt>
<pdfrwt beam="2">  1       -1 0.69288015E-03 0.78393071E+02</pdfrwt>
<totfact> 0.28158368E+05</totfact>
</mgrwt>
</event>
<event>
 8    1  0.2389776E-024  0.7698817E+02  0.7818608E-02  0.1337823E+00
          2   -1    0    0  501    0  0.00000000000E+00  0.00000000000E+00  0.17587380140E+02  0.17587380325E+02  0.25500000000E-02 0. -1.
         -1   -1    0    0    0  501 -0.00000000000E+00 -0.00000000000E+00 -0.84253295423E+02  0.84253295574E+02  0.50400000000E-02 0.  1.
         24    2    1    2    0    0  0.00000000000E+00  0.00000000000E+00 -0.66665915283E+02  0.10184067590E+03  0.76988174462E+02 0.  0.
         66    2    3    3    0    0  0.22627066758E+02  0.16829711567E+02  0.12548870197E+01  0.28298375887E+02  0.19999987340E+01 0.  0.
        -13    1    3    3    0    0 -0.22627066758E+02 -0.16829711567E+02 -0.67920802303E+02  0.73542300012E+02  0.10566000000E+00 0.  1.
         13    1    4    4    0    0  0.14716790219E+02  0.10333599017E+02  0.10161845604E+01  0.18011412440E+02  0.10566000000E+00 0. -1.
        -13    1    4    4    0    0  0.28676600401E+01  0.21771485277E+01  0.53199756852E+00  0.36411035780E+01  0.10566000000E+00 0.  1.
        -14    1    4    4    0    0  0.50426164985E+01  0.43189640219E+01 -0.29329510921E+00  0.66458598687E+01  0.00000000000E+00 0.  1.
<mgrwt>
<rscale>  0 0.76988174E+02</rscale>
<asrwt>0</asrwt>
<pdfrwt beam="1">  1        2 0.27057509E-02 0.76988174E+02</pdfrwt>
<pdfrwt beam="2">  1       -1 0.12962045E-01 0.76988174E+02</pdfrwt>
<totfact> 0.13509333E+05</totfact>
</mgrwt>
</event>
<event>
 8    1  0.2389776E-024  0.7937991E+02  0.7818608E-02  0.1330820E+00
         -1   -1    0    0    0  501 -0.00000000000E+00  0.00000000000E+00  0.28893184260E+01  0.28893228217E+01  0.50400000000E-02 0.  1.
          2   -1    0    0  501    0  0.00000000000E+00 -0.00000000000E+00 -0.54521206174E+03  0.54521206174E+03  0.25500000000E-02 0. -1.
         24    2    1    2    0    0 -0.35527136788E-14  0.00000000000E+00 -0.54232274331E+03  0.54810138457E+03  0.79379908348E+02 0.  0.
         66    2    3    3    0    0 -0.19113165771E+02  0.21527638893E+02 -0.45973823785E+03  0.46064302849E+03  0.20000018431E+01 0.  0.
        -13    1    3    3    0    0  0.19113165771E+02 -0.21527638893E+02 -0.82584505461E+02  0.87458356080E+02  0.10566000000E+00 0.  1.
         13    1    4    4    0    0 -0.17236309458E+02  0.19398407112E+02 -0.41598344846E+03  0.41679206940E+03  0.10566000000E+00 0. -1.
        -13    1    4    4    0    0 -0.56796227836E+00  0.90890265604E+00 -0.19915104572E+02  0.19944203151E+02  0.10566000000E+00 0. -1.
         14    1    4    4    0    0 -0.13088940343E+01  0.12203291249E+01 -0.23839684823E+02  0.23906755933E+02  0.00000000000E+00 0. -1.
<mgrwt>
<rscale>  0 0.79379908E+02</rscale>
<asrwt>0</asrwt>
<pdfrwt beam="1">  1        2 0.83878697E-01 0.79379908E+02</pdfrwt>
<pdfrwt beam="2">  1       -1 0.44451130E-03 0.79379908E+02</pdfrwt>
<totfact> 0.31920628E+05</totfact>
</mgrwt>
</event>
<event>
 8    1  0.2389776E-024  0.7841741E+02  0.7818608E-02  0.1333604E+00
         -1   -1    0    0    0  501 -0.00000000000E+00  0.00000000000E+00  0.51347346085E+01  0.51347370820E+01  0.50400000000E-02 0.  1.
          2   -1    0    0  501    0  0.00000000000E+00 -0.00000000000E+00 -0.29939663901E+03  0.29939663902E+03  0.25500000000E-02 0. -1.
         24    2    1    2    0    0 -0.88817841970E-15 -0.71054273576E-14 -0.29426190440E+03  0.30453137610E+03  0.78417412920E+02 0.  0.
         66    2    3    3    0    0  0.60079383683E+01 -0.34925866248E+02 -0.21214027704E+03  0.21508930378E+03  0.20000004973E+01 0.  0.
        -13    1    3    3    0    0 -0.60079383683E+01  0.34925866248E+02 -0.82121627361E+02  0.89442072321E+02  0.10566000000E+00 0.  1.
         13    1    4    4    0    0  0.43662335835E+01 -0.21157061889E+02 -0.13163003442E+03  0.13339101314E+03  0.10566000000E+00 0. -1.
        -13    1    4    4    0    0  0.49467911496E+00 -0.23224719640E+01 -0.13343133851E+02  0.13553190342E+02  0.10566000000E+00 0.  1.
        -14    1    4    4    0    0  0.11470256699E+01 -0.11446332395E+02 -0.67167108772E+02  0.68145100293E+02  0.00000000000E+00 0.  1.
<mgrwt>
<rscale>  0 0.78417413E+02</rscale>
<asrwt>0</asrwt>
<pdfrwt beam="1">  1        2 0.46061008E-01 0.78417413E+02</pdfrwt>
<pdfrwt beam="2">  1       -1 0.78995960E-03 0.78417413E+02</pdfrwt>
<totfact> 0.26844682E+05</totfact>
</mgrwt>
</event>
<event>
 8    1  0.2389776E-024  0.8074401E+02  0.7818608E-02  0.1326953E+00
         -1   -1    0    0    0  501 -0.00000000000E+00  0.00000000000E+00  0.11042449054E+01  0.11042564071E+01  0.50400000000E-02 0.  1.
          2   -1    0    0  501    0  0.00000000000E+00 -0.00000000000E+00 -0.14760223896E+04  0.14760223896E+04  0.25500000000E-02 0. -1.
         24    2    1    2    0    0  0.00000000000E+00  0.00000000000E+00 -0.14749181447E+04  0.14771266460E+04  0.80744007834E+02 0.  0.
         66    2    3    3    0    0  0.91171208414E+01 -0.10006881362E+02 -0.14332329063E+04  0.14332982325E+04  0.20000000601E+01 0.  0.
        -13    1    3    3    0    0 -0.91171208414E+01  0.10006881362E+02 -0.41685238339E+02  0.43828413460E+02  0.10566000000E+00 0.  1.
         13    1    4    4    0    0  0.62105805286E+01 -0.71448030302E+01 -0.99108080713E+03  0.99112602475E+03  0.10566000000E+00 0. -1.
        -13    1    4    4    0    0  0.74016386041E+00 -0.31391438134E+00 -0.12023792334E+03  0.12024065767E+03  0.10566000000E+00 0.  1.
        -14    1    4    4    0    0  0.21663764524E+01 -0.25481639509E+01 -0.32191417586E+03  0.32193155009E+03  0.00000000000E+00 0.  1.
<mgrwt>
<rscale>  0 0.80744008E+02</rscale>
<asrwt>0</asrwt>
<pdfrwt beam="1">  1        2 0.22707879E+00 0.80744008E+02</pdfrwt>
<pdfrwt beam="2">  1       -1 0.16988590E-03 0.80744008E+02</pdfrwt>
<totfact> 0.32652253E+05</totfact>
</mgrwt>
</event>
<event>
 8    1  0.2389776E-024  0.7921203E+02  0.7818608E-02  0.1331303E+00
         -1   -1    0    0    0  501 -0.00000000000E+00  0.00000000000E+00  0.21458261364E+01  0.21458320552E+01  0.50400000000E-02 0.  1.
          2   -1    0    0  501    0  0.00000000000E+00 -0.00000000000E+00 -0.73101654656E+03  0.73101654656E+03  0.25500000000E-02 0. -1.
         24    2    1    2    0    0  0.35527136788E-14  0.17763568394E-14 -0.72887072042E+03  0.73316237862E+03  0.79212034013E+02 0.  0.
         66    2    3    3    0    0  0.26702345740E+02  0.12981676186E+02 -0.60692808918E+03  0.60765717689E+03  0.19999988363E+01 0.  0.
        -13    1    3    3    0    0 -0.26702345740E+02 -0.12981676186E+02 -0.12194263124E+03  0.12550520173E+03  0.10566000000E+00 0.  1.
         13    1    4    4    0    0  0.12068665041E+02  0.58375457250E+01 -0.26366837589E+03  0.26400900217E+03  0.10566000000E+00 0.  1.
        -13    1    4    4    0    0  0.97838699152E+01  0.41005034126E+01 -0.22170127337E+03  0.22195495943E+03  0.10566000000E+00 0. -1.
        -14    1    4    4    0    0  0.48498107837E+01  0.30436270484E+01 -0.12155843992E+03  0.12169321529E+03  0.00000000000E+00 0.  1.
<mgrwt>
<rscale>  0 0.79212034E+02</rscale>
<asrwt>0</asrwt>
<pdfrwt beam="1">  1        2 0.11246389E+00 0.79212034E+02</pdfrwt>
<pdfrwt beam="2">  1       -1 0.33012814E-03 0.79212034E+02</pdfrwt>
<totfact> 0.34652787E+05</totfact>
</mgrwt>
</event>
<event>
 8    1  0.2389776E-024  0.8059775E+02  0.7818608E-02  0.1327364E+00
          2   -1    0    0  501    0  0.00000000000E+00  0.00000000000E+00  0.10365719596E+04  0.10365719596E+04  0.25500000000E-02 0. -1.
         -1   -1    0    0    0  501 -0.00000000000E+00 -0.00000000000E+00 -0.15666980477E+01  0.15667061544E+01  0.50400000000E-02 0.  1.
         24    2    1    2    0    0 -0.17763568394E-14  0.00000000000E+00  0.10350052615E+04  0.10381386658E+04  0.80597753691E+02 0.  0.
         66    2    3    3    0    0  0.73229896759E+01 -0.16288424148E+02  0.98277858506E+03  0.98294287026E+03  0.20000011939E+01 0.  0.
        -13    1    3    3    0    0 -0.73229896759E+01  0.16288424148E+02  0.52226676487E+02  0.55195795491E+02  0.10566000000E+00 0.  1.
         13    1    4    4    0    0  0.10419953485E+01 -0.15428153180E+01  0.11563271259E+03  0.11564774714E+03  0.10566000000E+00 0.  1.
        -13    1    4    4    0    0  0.50335891344E+01 -0.12262455968E+02  0.68783569837E+03  0.68796341760E+03  0.10566000000E+00 0. -1.
        -14    1    4    4    0    0  0.12474051929E+01 -0.24831528625E+01  0.17931017410E+03  0.17933170552E+03  0.00000000000E+00 0.  1.
<mgrwt>
<rscale>  0 0.80597754E+02</rscale>
<asrwt>0</asrwt>
<pdfrwt beam="1">  1        2 0.15947224E+00 0.80597754E+02</pdfrwt>
<pdfrwt beam="2">  1       -1 0.24103165E-03 0.80597754E+02</pdfrwt>
<totfact> 0.34592473E+05</totfact>
</mgrwt>
</event>
<event>
 8    1  0.2389776E-024  0.8150792E+02  0.7818608E-02  0.1324826E+00
          2   -1    0    0  501    0  0.00000000000E+00  0.00000000000E+00  0.28878607906E+03  0.28878607907E+03  0.25500000000E-02 0. -1.
         -1   -1    0    0    0  501 -0.00000000000E+00 -0.00000000000E+00 -0.57512633124E+01  0.57512655207E+01  0.50400000000E-02 0.  1.
         24    2    1    2    0    0  0.71054273576E-14  0.17763568394E-14  0.28303481575E+03  0.29453734459E+03  0.81507916389E+02 0.  0.
         66    2    3    3    0    0 -0.32585098536E+02  0.13515387207E+02  0.21516614342E+03  0.21804798464E+03  0.19999986279E+01 0.  0.
        -13    1    3    3    0    0  0.32585098536E+02 -0.13515387207E+02  0.67868672329E+02  0.76489359951E+02  0.10566000000E+00 0.  1.
         13    1    4    4    0    0 -0.19358882601E+02  0.83471878905E+01  0.12778390727E+03  0.12951131226E+03  0.10566000000E+00 0. -1.
        -13    1    4    4    0    0 -0.83487900406E+01  0.28708304440E+01  0.51411110060E+02  0.52163755273E+02  0.10566000000E+00 0.  1.
         14    1    4    4    0    0 -0.48774258942E+01  0.22973688727E+01  0.35971126091E+02  0.36372917114E+02  0.00000000000E+00 0. -1.
<mgrwt>
<rscale>  0 0.81507916E+02</rscale>
<asrwt>0</asrwt>
<pdfrwt beam="1">  1        2 0.44428625E-01 0.81507916E+02</pdfrwt>
<pdfrwt beam="2">  1       -1 0.88480997E-03 0.81507916E+02</pdfrwt>
<totfact> 0.23941982E+05</totfact>
</mgrwt>
</event>
<event>
 8    1  0.2389776E-024  0.8109551E+02  0.7818608E-02  0.1325971E+00
          2   -1    0    0  501    0  0.00000000000E+00  0.00000000000E+00  0.10352802862E+03  0.10352802865E+03  0.25500000000E-02 0. -1.
         -1   -1    0    0    0  501 -0.00000000000E+00 -0.00000000000E+00 -0.15880921170E+02  0.15880921970E+02  0.50400000000E-02 0.  1.
         24    2    1    2    0    0  0.00000000000E+00  0.00000000000E+00  0.87647107452E+02  0.11940895062E+03  0.81095511862E+02 0.  0.
         66    2    3    3    0    0  0.25631429214E+02 -0.17846176136E+01  0.89991141551E+02  0.93608549783E+02  0.20000028026E+01 0.  0.
        -13    1    3    3    0    0 -0.25631429214E+02  0.17846176136E+01 -0.23440340992E+01  0.25800400840E+02  0.10566000000E+00 0.  1.
         13    1    4    4    0    0  0.12001679945E+02 -0.10226412319E+01  0.40847927038E+02  0.42586974815E+02  0.10566000000E+00 0. -1.
        -13    1    4    4    0    0  0.42499179297E+01 -0.76137445949E+00  0.14305980123E+02  0.14943685114E+02  0.10566000000E+00 0.  1.
        -14    1    4    4    0    0  0.93798313393E+01 -0.60192215227E-03  0.34837234391E+02  0.36077889854E+02  0.00000000000E+00 0.  1.
<mgrwt>
<rscale>  0 0.81095512E+02</rscale>
<asrwt>0</asrwt>
<pdfrwt beam="1">  1        2 0.15927389E-01 0.81095512E+02</pdfrwt>
<pdfrwt beam="2">  1       -1 0.24432186E-02 0.81095512E+02</pdfrwt>
<totfact> 0.17259449E+05</totfact>
</mgrwt>
</event>
<event>
 8    1  0.2389776E-024  0.8111849E+02  0.7818608E-02  0.1325907E+00
         -1   -1    0    0    0  501 -0.00000000000E+00  0.00000000000E+00  0.42788782540E+01  0.42788812222E+01  0.50400000000E-02 0.  1.
          2   -1    0    0  501    0  0.00000000000E+00 -0.00000000000E+00 -0.38445866676E+03  0.38445866677E+03  0.25500000000E-02 0. -1.
         24    2    1    2    0    0  0.00000000000E+00  0.00000000000E+00 -0.38017978851E+03  0.38873754799E+03  0.81118491291E+02 0.  0.
         66    2    3    3    0    0  0.20428171604E+02  0.28395816937E+02 -0.28834793931E+03  0.29046887391E+03  0.19999981033E+01 0.  0.
        -13    1    3    3    0    0 -0.20428171604E+02 -0.28395816937E+02 -0.91831849202E+02  0.98268674085E+02  0.10566000000E+00 0.  1.
         13    1    4    4    0    0  0.11588228527E+02  0.15677053956E+02 -0.15894286971E+03  0.16013401905E+03  0.10566000000E+00 0. -1.
        -13    1    4    4    0    0  0.15597526385E+01  0.18034963378E+01 -0.23188060469E+02  0.23310571415E+02  0.10566000000E+00 0.  1.
        -14    1    4    4    0    0  0.72801904381E+01  0.10915266643E+02 -0.10621700913E+03  0.10702428344E+03  0.00000000000E+00 0.  1.
<mgrwt>
<rscale>  0 0.81118491E+02</rscale>
<asrwt>0</asrwt>
<pdfrwt beam="1">  1        2 0.59147460E-01 0.81118491E+02</pdfrwt>
<pdfrwt beam="2">  1       -1 0.65828949E-03 0.81118491E+02</pdfrwt>
<totfact> 0.26869415E+05</totfact>
</mgrwt>
</event>
<event>
 8    1  0.2389776E-024  0.8161128E+02  0.7818608E-02  0.1324540E+00
         -1   -1    0    0    0  501 -0.00000000000E+00  0.00000000000E+00  0.17462749494E+01  0.17462822225E+01  0.50400000000E-02 0.  1.
          2   -1    0    0  501    0  0.00000000000E+00 -0.00000000000E+00 -0.95351358345E+03  0.95351358345E+03  0.25500000000E-02 0. -1.
         24    2    1    2    0    0 -0.35527136788E-14 -0.35527136788E-14 -0.95176730850E+03  0.95525986568E+03  0.81611282558E+02 0.  0.
         66    2    3    3    0    0  0.16945750670E+02  0.21575763953E+02 -0.82934614489E+03  0.82980220541E+03  0.20000003165E+01 0.  0.
        -13    1    3    3    0    0 -0.16945750670E+02 -0.21575763953E+02 -0.12242116361E+03  0.12545766027E+03  0.10566000000E+00 0.  1.
         13    1    4    4    0    0  0.58806506368E+01  0.81205918042E+01 -0.29127287412E+03  0.29144540557E+03  0.10566000000E+00 0. -1.
        -13    1    4    4    0    0  0.44640789023E+01  0.63809820000E+01 -0.23289314448E+03  0.23302333111E+03  0.10566000000E+00 0.  1.
         14    1    4    4    0    0  0.66010211304E+01  0.70741901492E+01 -0.30518012629E+03  0.30533346873E+03  0.00000000000E+00 0. -1.
<mgrwt>
<rscale>  0 0.81611283E+02</rscale>
<asrwt>0</asrwt>
<pdfrwt beam="1">  1        2 0.14669398E+00 0.81611283E+02</pdfrwt>
<pdfrwt beam="2">  1       -1 0.26865901E-03 0.81611283E+02</pdfrwt>
<totfact> 0.33359157E+05</totfact>
</mgrwt>
</event>
<event>
 8    1  0.2389776E-024  0.7957741E+02  0.7818608E-02  0.1330255E+00
          2   -1    0    0  501    0  0.00000000000E+00  0.00000000000E+00  0.16441069620E+04  0.16441069620E+04  0.25500000000E-02 0. -1.
         -1   -1    0    0    0  501 -0.00000000000E+00 -0.00000000000E+00 -0.96291198543E+00  0.96292517533E+00  0.50400000000E-02 0.  1.
         24    2    1    2    0    0  0.00000000000E+00 -0.88817841970E-15  0.16431440501E+04  0.16450698872E+04  0.79577412621E+02 0.  0.
         66    2    3    3    0    0  0.17346962748E+02 -0.40195663061E+01  0.15570749981E+04  0.15571780964E+04  0.20000190916E+01 0.  0.
        -13    1    3    3    0    0 -0.17346962748E+02  0.40195663061E+01  0.86069051929E+02  0.87891790822E+02  0.10566000000E+00 0.  1.
         13    1    4    4    0    0  0.28547354562E+01 -0.10254180983E+01  0.28130370702E+03  0.28132008059E+03  0.10566000000E+00 0. -1.
        -13    1    4    4    0    0  0.59143903646E+01 -0.15428688216E+01  0.46976947414E+03  0.46980924901E+03  0.10566000000E+00 0.  1.
         14    1    4    4    0    0  0.85778369271E+01 -0.14512793862E+01  0.80600181697E+03  0.80604876680E+03  0.00000000000E+00 0. -1.
<mgrwt>
<rscale>  0 0.79577413E+02</rscale>
<asrwt>0</asrwt>
<pdfrwt beam="1">  1        2 0.25293664E+00 0.79577413E+02</pdfrwt>
<pdfrwt beam="2">  1       -1 0.14814302E-03 0.79577413E+02</pdfrwt>
<totfact> 0.32359509E+05</totfact>
</mgrwt>
</event>
<event>
 8    1  0.2389776E-024  0.7808224E+02  0.7818608E-02  0.1334584E+00
          2   -1    0    0  501    0  0.00000000000E+00  0.00000000000E+00  0.78021447839E+03  0.78021447840E+03  0.25500000000E-02 0. -1.
         -1   -1    0    0    0  501 -0.00000000000E+00 -0.00000000000E+00 -0.19535735316E+01  0.19535800329E+01  0.50400000000E-02 0.  1.
         24    2    1    2    0    0  0.00000000000E+00  0.00000000000E+00  0.77826090486E+03  0.78216805843E+03  0.78082236088E+02 0.  0.
         66    2    3    3    0    0 -0.39139113891E+01  0.11737157058E+02  0.76003955203E+03  0.76014288144E+03  0.20000010734E+01 0.  0.
        -13    1    3    3    0    0  0.39139113891E+01 -0.11737157058E+02  0.18221352834E+02  0.22025176987E+02  0.10566000000E+00 0.  1.
         13    1    4    4    0    0 -0.28017704238E+01  0.60911131127E+01  0.43653091769E+03  0.43658241472E+03  0.10566000000E+00 0. -1.
        -13    1    4    4    0    0  0.37513042361E-02  0.85837469895E+00  0.41868045771E+02  0.41876977469E+02  0.10566000000E+00 0.  1.
         14    1    4    4    0    0 -0.11158922695E+01  0.47876692468E+01  0.28164058857E+03  0.28168348926E+03  0.00000000000E+00 0. -1.
<mgrwt>
<rscale>  0 0.78082236E+02</rscale>
<asrwt>0</asrwt>
<pdfrwt beam="1">  1        2 0.12003305E+00 0.78082236E+02</pdfrwt>
<pdfrwt beam="2">  1       -1 0.30055015E-03 0.78082236E+02</pdfrwt>
<totfact> 0.36435790E+05</totfact>
</mgrwt>
</event>
<event>
 8    1  0.2389776E-024  0.8332431E+02  0.7818608E-02  0.1319874E+00
         -1   -1    0    0    0  501 -0.00000000000E+00  0.00000000000E+00  0.29988269855E+02  0.29988270279E+02  0.50400000000E-02 0.  1.
          2   -1    0    0  501    0  0.00000000000E+00 -0.00000000000E+00 -0.57880468886E+02  0.57880468942E+02  0.25500000000E-02 0. -1.
         24    2    1    2    0    0  0.17763568394E-14  0.00000000000E+00 -0.27892199031E+02  0.87868739221E+02  0.83324309572E+02 0.  0.
         66    2    3    3    0    0  0.13889750594E+02 -0.16801714266E+02 -0.51364356661E+02  0.55834755366E+02  0.19999994343E+01 0.  0.
        -13    1    3    3    0    0 -0.13889750594E+02  0.16801714266E+02  0.23472157630E+02  0.32033983856E+02  0.10566000000E+00 0.  1.
         13    1    4    4    0    0  0.15037886226E+01 -0.22134359279E+01 -0.57826040961E+01  0.63726252828E+01  0.10566000000E+00 0. -1.
        -13    1    4    4    0    0  0.11399373510E+02 -0.12788937020E+02 -0.39969824612E+02  0.43486787305E+02  0.10566000000E+00 0.  1.
        -14    1    4    4    0    0  0.98658846052E+00 -0.17993413183E+01 -0.56119279523E+01  0.59753427778E+01  0.00000000000E+00 0.  1.
<mgrwt>
<rscale>  0 0.83324310E+02</rscale>
<asrwt>0</asrwt>
<pdfrwt beam="1">  1        2 0.89046875E-02 0.83324310E+02</pdfrwt>
<pdfrwt beam="2">  1       -1 0.46135800E-02 0.83324310E+02</pdfrwt>
<totfact> 0.13812956E+05</totfact>
</mgrwt>
</event>
<event>
 8    1  0.2389776E-024  0.7921582E+02  0.7818608E-02  0.1331292E+00
         -1   -1    0    0    0  501 -0.00000000000E+00  0.00000000000E+00  0.70613637546E+01  0.70613655532E+01  0.50400000000E-02 0.  1.
          2   -1    0    0  501    0  0.00000000000E+00 -0.00000000000E+00 -0.22216477021E+03  0.22216477022E+03  0.25500000000E-02 0. -1.
         24    2    1    2    0    0  0.00000000000E+00  0.00000000000E+00 -0.21510340645E+03  0.22922613577E+03  0.79215818211E+02 0.  0.
         66    2    3    3    0    0 -0.13293820320E+02 -0.24613283906E+02 -0.18865593883E+03  0.19072913445E+03  0.20000171112E+01 0.  0.
        -13    1    3    3    0    0  0.13293820320E+02  0.24613283906E+02 -0.26447467617E+02  0.38497001321E+02  0.10566000000E+00 0.  1.
         13    1    4    4    0    0 -0.60303210127E+01 -0.98881115554E+01 -0.75411994480E+02  0.76296262013E+02  0.10566000000E+00 0. -1.
        -13    1    4    4    0    0 -0.16264753134E+01 -0.43288273471E+01 -0.31289621076E+02  0.31629665178E+02  0.10566000000E+00 0.  1.
         14    1    4    4    0    0 -0.56370239935E+01 -0.10396345003E+02 -0.81954323278E+02  0.82803207262E+02  0.00000000000E+00 0. -1.
<mgrwt>
<rscale>  0 0.79215818E+02</rscale>
<asrwt>0</asrwt>
<pdfrwt beam="1">  1        2 0.34179190E-01 0.79215818E+02</pdfrwt>
<pdfrwt beam="2">  1       -1 0.10863640E-02 0.79215818E+02</pdfrwt>
<totfact> 0.23487491E+05</totfact>
</mgrwt>
</event>
<event>
 8    1  0.2389776E-024  0.7950872E+02  0.7818608E-02  0.1330451E+00
          2   -1    0    0  501    0  0.00000000000E+00  0.00000000000E+00  0.19465940624E+02  0.19465940791E+02  0.25500000000E-02 0. -1.
         -1   -1    0    0    0  501 -0.00000000000E+00 -0.00000000000E+00 -0.81188430549E+02  0.81188430705E+02  0.50400000000E-02 0.  1.
         24    2    1    2    0    0  0.00000000000E+00 -0.35527136788E-14 -0.61722489925E+02  0.10065437150E+03  0.79508721150E+02 0.  0.
         66    2    3    3    0    0  0.19328896578E+02 -0.22384747036E+02  0.27021791005E+01  0.29765498704E+02  0.19999995988E+01 0.  0.
        -13    1    3    3    0    0 -0.19328896578E+02  0.22384747036E+02 -0.64424669025E+02  0.70888872793E+02  0.10566000000E+00 0.  1.
         13    1    4    4    0    0  0.80919680305E+01 -0.91122005654E+01  0.15840648967E+01  0.12289530967E+02  0.10566000000E+00 0. -1.
        -13    1    4    4    0    0  0.53302638707E+01 -0.72566158115E+01  0.37379419246E+00  0.90122734147E+01  0.10566000000E+00 0.  1.
         14    1    4    4    0    0  0.59066646772E+01 -0.60159306588E+01  0.74432001138E+00  0.84636943222E+01  0.00000000000E+00 0. -1.
<mgrwt>
<rscale>  0 0.79508721E+02</rscale>
<asrwt>0</asrwt>
<pdfrwt beam="1">  1        2 0.29947602E-02 0.79508721E+02</pdfrwt>
<pdfrwt beam="2">  1       -1 0.12490528E-01 0.79508721E+02</pdfrwt>
<totfact> 0.12568437E+05</totfact>
</mgrwt>
</event>
<event>
 8    1  0.2389776E-024  0.7998358E+02  0.7818608E-02  0.1329098E+00
         -1   -1    0    0    0  501 -0.00000000000E+00  0.00000000000E+00  0.87802332425E+02  0.87802332570E+02  0.50400000000E-02 0.  1.
          2   -1    0    0  501    0  0.00000000000E+00 -0.00000000000E+00 -0.18215272828E+02  0.18215273006E+02  0.25500000000E-02 0. -1.
         24    2    1    2    0    0 -0.35527136788E-14  0.22204460493E-15  0.69587059597E+02  0.10601760558E+03  0.79983584745E+02 0.  0.
         66    2    3    3    0    0  0.18062991640E+02  0.19724331167E+01 -0.12368873351E+02  0.22071502219E+02  0.20000057141E+01 0.  0.
        -13    1    3    3    0    0 -0.18062991640E+02 -0.19724331167E+01  0.81955932948E+02  0.83946103357E+02  0.10566000000E+00 0.  1.
         13    1    4    4    0    0  0.14466443162E+02  0.15206694737E+01 -0.94516019479E+01  0.17347459665E+02  0.10566000000E+00 0. -1.
        -13    1    4    4    0    0  0.50312226973E+00 -0.82561303438E-01 -0.15693231246E+00  0.54381998255E+00  0.10566000000E+00 0. -1.
        -14    1    4    4    0    0  0.30934262077E+01  0.53432494640E+00 -0.27603390908E+01  0.41802225714E+01  0.00000000000E+00 0.  1.
<mgrwt>
<rscale>  0 0.79983585E+02</rscale>
<asrwt>0</asrwt>
<pdfrwt beam="1">  1        2 0.28023497E-02 0.79983585E+02</pdfrwt>
<pdfrwt beam="2">  1       -1 0.13508051E-01 0.79983585E+02</pdfrwt>
<totfact> 0.12187966E+05</totfact>
</mgrwt>
</event>
<event>
 8    1  0.2389776E-024  0.7291250E+02  0.7818608E-02  0.1350460E+00
         -1   -1    0    0    0  501 -0.00000000000E+00  0.00000000000E+00  0.26019978547E+01  0.26020027359E+01  0.50400000000E-02 0.  1.
          2   -1    0    0  501    0  0.00000000000E+00 -0.00000000000E+00 -0.51078322859E+03  0.51078322860E+03  0.25500000000E-02 0. -1.
         24    2    1    2    0    0 -0.35527136788E-14  0.88817841970E-15 -0.50818123074E+03  0.51338523133E+03  0.72912498780E+02 0.  0.
         66    2    3    3    0    0  0.19414794060E+02 -0.79617386979E+01 -0.46395161970E+03  0.46443021966E+03  0.20000000031E+01 0.  0.
        -13    1    3    3    0    0 -0.19414794060E+02  0.79617386979E+01 -0.44229611041E+02  0.48955011677E+02  0.10566000000E+00 0.  1.
         13    1    4    4    0    0  0.44255793409E+01 -0.19974581395E+01 -0.11778734769E+03  0.11788742949E+03  0.10566000000E+00 0. -1.
        -13    1    4    4    0    0  0.24978677079E+01 -0.46112170659E+00 -0.53333536833E+02  0.53394094163E+02  0.10566000000E+00 0.  1.
         14    1    4    4    0    0  0.12491347011E+02 -0.55031588518E+01 -0.29283073518E+03  0.29314869601E+03  0.00000000000E+00 0. -1.
<mgrwt>
<rscale>  0 0.72912499E+02</rscale>
<asrwt>0</asrwt>
<pdfrwt beam="1">  1        2 0.78581955E-01 0.72912499E+02</pdfrwt>
<pdfrwt beam="2">  1       -1 0.40030815E-03 0.72912499E+02</pdfrwt>
<totfact> 0.38994585E+05</totfact>
</mgrwt>
</event>
<event>
 8    1  0.2389776E-024  0.7679799E+02  0.7818608E-02  0.1338392E+00
         -1   -1    0    0    0  501 -0.00000000000E+00  0.00000000000E+00  0.14037570062E+03  0.14037570071E+03  0.50400000000E-02 0.  1.
          2   -1    0    0  501    0  0.00000000000E+00 -0.00000000000E+00 -0.10503830767E+02  0.10503831077E+02  0.25500000000E-02 0. -1.
         24    2    1    2    0    0  0.00000000000E+00  0.00000000000E+00  0.12987186985E+03  0.15087953178E+03  0.76797985216E+02 0.  0.
         66    2    3    3    0    0 -0.81549978323E+01  0.25295868845E+02  0.10602108601E+02  0.28684310591E+02  0.19999992570E+01 0.  0.
        -13    1    3    3    0    0  0.81549978323E+01 -0.25295868845E+02  0.11926976125E+03  0.12219522119E+03  0.10566000000E+00 0.  1.
         13    1    4    4    0    0 -0.40296942365E+01  0.11730666941E+02  0.44300033896E+01  0.13171297452E+02  0.10566000000E+00 0. -1.
        -13    1    4    4    0    0 -0.36033957820E+01  0.12836212044E+02  0.57054467073E+01  0.14502278682E+02  0.10566000000E+00 0.  1.
        -14    1    4    4    0    0 -0.52190781384E+00  0.72898986034E+00  0.46665850463E+00  0.10107344570E+01  0.00000000000E+00 0.  1.
<mgrwt>
<rscale>  0 0.76797985E+02</rscale>
<asrwt>0</asrwt>
<pdfrwt beam="1">  1        2 0.16159740E-02 0.76797985E+02</pdfrwt>
<pdfrwt beam="2">  1       -1 0.21596261E-01 0.76797985E+02</pdfrwt>
<totfact> 0.12157971E+05</totfact>
</mgrwt>
</event>
<event>
 8    1  0.2389776E-024  0.7770111E+02  0.7818608E-02  0.1335705E+00
          2   -1    0    0  501    0  0.00000000000E+00  0.00000000000E+00  0.41890683528E+03  0.41890683529E+03  0.25500000000E-02 0. -1.
         -1   -1    0    0    0  501 -0.00000000000E+00 -0.00000000000E+00 -0.36031038839E+01  0.36031074089E+01  0.50400000000E-02 0.  1.
         24    2    1    2    0    0  0.00000000000E+00  0.00000000000E+00  0.41530373140E+03  0.42250994270E+03  0.77701109169E+02 0.  0.
         66    2    3    3    0    0 -0.29708430418E+02 -0.15122366307E+02  0.31600800082E+03  0.31776773499E+03  0.20000044114E+01 0.  0.
        -13    1    3    3    0    0  0.29708430418E+02  0.15122366307E+02  0.99295730575E+02  0.10474220771E+03  0.10566000000E+00 0.  1.
         13    1    4    4    0    0 -0.11298668490E+02 -0.59643800961E+01  0.12183883062E+03  0.12250692042E+03  0.10566000000E+00 0. -1.
        -13    1    4    4    0    0 -0.13828826651E+02 -0.62248920033E+01  0.14594132003E+03  0.14672718147E+03  0.10566000000E+00 0.  1.
        -14    1    4    4    0    0 -0.45809352774E+01 -0.29330942075E+01  0.48227850177E+02  0.48533633104E+02  0.00000000000E+00 0.  1.
<mgrwt>
<rscale>  0 0.77701109E+02</rscale>
<asrwt>0</asrwt>
<pdfrwt beam="1">  1        2 0.64447158E-01 0.77701109E+02</pdfrwt>
<pdfrwt beam="2">  1       -1 0.55432435E-03 0.77701109E+02</pdfrwt>
<totfact> 0.30977834E+05</totfact>
</mgrwt>
</event>
<event>
 8    1  0.2389776E-024  0.8019970E+02  0.7818608E-02  0.1328486E+00
         -1   -1    0    0    0  501 -0.00000000000E+00  0.00000000000E+00  0.26825091109E+01  0.26825138455E+01  0.50400000000E-02 0.  1.
          2   -1    0    0  501    0  0.00000000000E+00 -0.00000000000E+00 -0.59943747807E+03  0.59943747807E+03  0.25500000000E-02 0. -1.
         24    2    1    2    0    0  0.00000000000E+00  0.00000000000E+00 -0.59675496896E+03  0.60211999192E+03  0.80199698836E+02 0.  0.
         66    2    3    3    0    0  0.18519551861E+02 -0.89765430672E+01 -0.55672910346E+03  0.55711295692E+03  0.20000005657E+01 0.  0.
        -13    1    3    3    0    0 -0.18519551861E+02  0.89765430672E+01 -0.40025865499E+02  0.45007035001E+02  0.10566000000E+00 0.  1.
         13    1    4    4    0    0  0.15300251598E+02 -0.80346252264E+01 -0.46868431424E+03  0.46900282566E+03  0.10566000000E+00 0. -1.
        -13    1    4    4    0    0  0.96808781078E+00 -0.34139996921E+00 -0.32806141179E+02  0.32822367542E+02  0.10566000000E+00 0.  1.
         14    1    4    4    0    0  0.22512124525E+01 -0.60051787160E+00 -0.55238648038E+02  0.55287763712E+02  0.00000000000E+00 0. -1.
<mgrwt>
<rscale>  0 0.80199699E+02</rscale>
<asrwt>0</asrwt>
<pdfrwt beam="1">  1        2 0.92221044E-01 0.80199699E+02</pdfrwt>
<pdfrwt beam="2">  1       -1 0.41269455E-03 0.80199699E+02</pdfrwt>
<totfact> 0.31947159E+05</totfact>
</mgrwt>
</event>
<event>
 8    1  0.2389776E-024  0.7983400E+02  0.7818608E-02  0.1329523E+00
         -1   -1    0    0    0  501 -0.00000000000E+00  0.00000000000E+00  0.63748244589E+01  0.63748264512E+01  0.50400000000E-02 0.  1.
          2   -1    0    0  501    0  0.00000000000E+00 -0.00000000000E+00 -0.24994676569E+03  0.24994676570E+03  0.25500000000E-02 0. -1.
         24    2    1    2    0    0  0.00000000000E+00  0.00000000000E+00 -0.24357194123E+03  0.25632159215E+03  0.79834003089E+02 0.  0.
         66    2    3    3    0    0  0.87152135032E+01 -0.10927519689E+02 -0.24182301381E+03  0.24223487699E+03  0.19999967272E+01 0.  0.
        -13    1    3    3    0    0 -0.87152135032E+01  0.10927519689E+02 -0.17489274153E+01  0.14086715163E+02  0.10566000000E+00 0.  1.
         13    1    4    4    0    0  0.52460295159E+01 -0.64901620867E+01 -0.12875326064E+03  0.12902347197E+03  0.10566000000E+00 0. -1.
        -13    1    4    4    0    0  0.72233861276E+00 -0.89352072726E+00 -0.27633115523E+02  0.27657194180E+02  0.10566000000E+00 0.  1.
         14    1    4    4    0    0  0.27468453746E+01 -0.35438368746E+01 -0.85436637652E+02  0.85554210841E+02  0.00000000000E+00 0. -1.
<mgrwt>
<rscale>  0 0.79834003E+02</rscale>
<asrwt>0</asrwt>
<pdfrwt beam="1">  1        2 0.38453341E-01 0.79834003E+02</pdfrwt>
<pdfrwt beam="2">  1       -1 0.98074257E-03 0.79834003E+02</pdfrwt>
<totfact> 0.23997217E+05</totfact>
</mgrwt>
</event>
<event>
 8    1  0.2389776E-024  0.7401388E+02  0.7818608E-02  0.1346952E+00
         -1   -1    0    0    0  501 -0.00000000000E+00  0.00000000000E+00  0.51741386980E+01  0.51741411526E+01  0.50400000000E-02 0.  1.
          2   -1    0    0  501    0  0.00000000000E+00 -0.00000000000E+00 -0.26468427683E+03  0.26468427684E+03  0.25500000000E-02 0. -1.
         24    2    1    2    0    0  0.88817841970E-15  0.00000000000E+00 -0.25951013813E+03  0.26985841799E+03  0.74013876870E+02 0.  0.
         66    2    3    3    0    0 -0.53186619117E+01  0.31098188892E+02 -0.20018368377E+03  0.20266448323E+03  0.20000003916E+01 0.  0.
        -13    1    3    3    0    0  0.53186619117E+01 -0.31098188892E+02 -0.59326454364E+02  0.67193934758E+02  0.10566000000E+00 0.  1.
         13    1    4    4    0    0 -0.17247916296E+01  0.87230172285E+01 -0.55210153256E+02  0.55921714229E+02  0.10566000000E+00 0. -1.
        -13    1    4    4    0    0 -0.23855895036E+01  0.13077144762E+02 -0.89683125177E+02  0.90662985049E+02  0.10566000000E+00 0.  1.
         14    1    4    4    0    0 -0.12082807785E+01  0.92980269016E+01 -0.55290405333E+02  0.56079783956E+02  0.00000000000E+00 0. -1.
<mgrwt>
<rscale>  0 0.74013877E+02</rscale>
<asrwt>0</asrwt>
<pdfrwt beam="1">  1        2 0.40720647E-01 0.74013877E+02</pdfrwt>
<pdfrwt beam="2">  1       -1 0.79602174E-03 0.74013877E+02</pdfrwt>
<totfact> 0.29859674E+05</totfact>
</mgrwt>
</event>
<event>
 8    1  0.2389776E-024  0.7820971E+02  0.7818608E-02  0.1334210E+00
          2   -1    0    0  501    0  0.00000000000E+00  0.00000000000E+00  0.62128365835E+02  0.62128365887E+02  0.25500000000E-02 0. -1.
         -1   -1    0    0    0  501 -0.00000000000E+00 -0.00000000000E+00 -0.24613387463E+02  0.24613387979E+02  0.50400000000E-02 0.  1.
         24    2    1    2    0    0  0.17763568394E-14 -0.71054273576E-14  0.37514978372E+02  0.86741753866E+02  0.78209706951E+02 0.  0.
         66    2    3    3    0    0 -0.14008552215E+02  0.24832957326E+02  0.48411109614E+02  0.56218776541E+02  0.19999992337E+01 0.  0.
        -13    1    3    3    0    0  0.14008552215E+02 -0.24832957326E+02 -0.10896131242E+02  0.30522977325E+02  0.10566000000E+00 0.  1.
         13    1    4    4    0    0 -0.21035378777E+01  0.26758227331E+01  0.65135434174E+01  0.73499871285E+01  0.10566000000E+00 0. -1.
        -13    1    4    4    0    0 -0.17311519765E+01  0.32429135733E+01  0.60666168864E+01  0.70942497907E+01  0.10566000000E+00 0.  1.
         14    1    4    4    0    0 -0.10173862361E+02  0.18914221019E+02  0.35830949310E+02  0.41774539622E+02  0.00000000000E+00 0. -1.
<mgrwt>
<rscale>  0 0.78209707E+02</rscale>
<asrwt>0</asrwt>
<pdfrwt beam="1">  1        2 0.95582101E-02 0.78209707E+02</pdfrwt>
<pdfrwt beam="2">  1       -1 0.37866751E-02 0.78209707E+02</pdfrwt>
<totfact> 0.16686698E+05</totfact>
</mgrwt>
</event>
<event>
 8    1  0.2389776E-024  0.8082246E+02  0.7818608E-02  0.1326733E+00
          2   -1    0    0  501    0  0.00000000000E+00  0.00000000000E+00  0.26029571481E+03  0.26029571482E+03  0.25500000000E-02 0. -1.
         -1   -1    0    0    0  501 -0.00000000000E+00 -0.00000000000E+00 -0.62738921047E+01  0.62738941291E+01  0.50400000000E-02 0.  1.
         24    2    1    2    0    0  0.00000000000E+00  0.88817841970E-15  0.25402182271E+03  0.26656960895E+03  0.80822459788E+02 0.  0.
         66    2    3    3    0    0  0.36661359614E+02  0.53729168898E+01  0.18007986960E+03  0.18386321792E+03  0.19999859003E+01 0.  0.
        -13    1    3    3    0    0 -0.36661359614E+02 -0.53729168898E+01  0.73941953108E+02  0.82706391035E+02  0.10566000000E+00 0.  1.
         13    1    4    4    0    0  0.16281649431E+02  0.20304252956E+01  0.75509067923E+02  0.77271244572E+02  0.10566000000E+00 0.  1.
        -13    1    4    4    0    0  0.34654011527E+01  0.59000927571E+00  0.16908917641E+02  0.17270778092E+02  0.10566000000E+00 0. -1.
        -14    1    4    4    0    0  0.16914309030E+02  0.27524823185E+01  0.87661884034E+02  0.89321195252E+02  0.00000000000E+00 0.  1.
<mgrwt>
<rscale>  0 0.80822460E+02</rscale>
<asrwt>0</asrwt>
<pdfrwt beam="1">  1        2 0.40045493E-01 0.80822460E+02</pdfrwt>
<pdfrwt beam="2">  1       -1 0.96521437E-03 0.80822460E+02</pdfrwt>
<totfact> 0.23574763E+05</totfact>
</mgrwt>
</event>
<event>
 8    1  0.2389776E-024  0.7964055E+02  0.7818608E-02  0.1330075E+00
         -1   -1    0    0    0  501 -0.00000000000E+00  0.00000000000E+00  0.16060033345E+01  0.16060112428E+01  0.50400000000E-02 0.  1.
          2   -1    0    0  501    0  0.00000000000E+00 -0.00000000000E+00 -0.98732690678E+03  0.98732690678E+03  0.25500000000E-02 0. -1.
         24    2    1    2    0    0  0.00000000000E+00 -0.17763568394E-14 -0.98572090344E+03  0.98893291802E+03  0.79640547877E+02 0.  0.
         66    2    3    3    0    0  0.11029427205E+02  0.10198969216E+02 -0.95076365388E+03  0.95088442662E+03  0.19999997950E+01 0.  0.
        -13    1    3    3    0    0 -0.11029427205E+02 -0.10198969216E+02 -0.34957249560E+02  0.38048491407E+02  0.10566000000E+00 0.  1.
         13    1    4    4    0    0  0.67157098174E+01  0.65032059425E+01 -0.56327223132E+03  0.56334981156E+03  0.10566000000E+00 0. -1.
        -13    1    4    4    0    0  0.39964054873E+01  0.31568914737E+01 -0.36026818365E+03  0.36030419444E+03  0.10566000000E+00 0.  1.
         14    1    4    4    0    0  0.31731189998E+00  0.53887179954E+00 -0.27223238915E+02  0.27230420612E+02  0.00000000000E+00 0. -1.
<mgrwt>
<rscale>  0 0.79640548E+02</rscale>
<asrwt>0</asrwt>
<pdfrwt beam="1">  1        2 0.15189596E+00 0.79640548E+02</pdfrwt>
<pdfrwt beam="2">  1       -1 0.24707883E-03 0.79640548E+02</pdfrwt>
<totfact> 0.35624340E+05</totfact>
</mgrwt>
</event>
<event>
 8    1  0.2389776E-024  0.7985304E+02  0.7818608E-02  0.1329469E+00
          2   -1    0    0  501    0  0.00000000000E+00  0.00000000000E+00  0.13738507621E+03  0.13738507623E+03  0.25500000000E-02 0. -1.
         -1   -1    0    0    0  501 -0.00000000000E+00 -0.00000000000E+00 -0.11603348718E+02  0.11603349813E+02  0.50400000000E-02 0.  1.
         24    2    1    2    0    0  0.17763568394E-14  0.00000000000E+00  0.12578172749E+03  0.14898842604E+03  0.79853040800E+02 0.  0.
         66    2    3    3    0    0 -0.11823906141E+02 -0.22577379301E+02  0.12021244807E+03  0.12290067318E+03  0.19999957659E+01 0.  0.
        -13    1    3    3    0    0  0.11823906141E+02  0.22577379301E+02  0.55692794182E+01  0.26087752870E+02  0.10566000000E+00 0.  1.
         13    1    4    4    0    0 -0.30932422930E+01 -0.52500459219E+01  0.28086568162E+02  0.28740174064E+02  0.10566000000E+00 0. -1.
        -13    1    4    4    0    0 -0.43145040874E+01 -0.68292762227E+01  0.37838125051E+02  0.38690939904E+02  0.10566000000E+00 0.  1.
         14    1    4    4    0    0 -0.44161597605E+01 -0.10498057156E+02  0.54287754857E+02  0.55469559206E+02  0.00000000000E+00 0. -1.
<mgrwt>
<rscale>  0 0.79853041E+02</rscale>
<asrwt>0</asrwt>
<pdfrwt beam="1">  1        2 0.21136165E-01 0.79853041E+02</pdfrwt>
<pdfrwt beam="2">  1       -1 0.17851307E-02 0.79853041E+02</pdfrwt>
<totfact> 0.19573686E+05</totfact>
</mgrwt>
</event>
<event>
 8    1  0.2389776E-024  0.8116312E+02  0.7818608E-02  0.1325783E+00
         -1   -1    0    0    0  501 -0.00000000000E+00  0.00000000000E+00  0.84916803873E+01  0.84916818829E+01  0.50400000000E-02 0.  1.
          2   -1    0    0  501    0  0.00000000000E+00 -0.00000000000E+00 -0.19393837348E+03  0.19393837349E+03  0.25500000000E-02 0. -1.
         24    2    1    2    0    0 -0.17763568394E-14  0.00000000000E+00 -0.18544669309E+03  0.20243005538E+03  0.81163115649E+02 0.  0.
         66    2    3    3    0    0 -0.12929176419E+02  0.75163038748E+01 -0.18680459074E+03  0.18741294923E+03  0.19999979641E+01 0.  0.
        -13    1    3    3    0    0  0.12929176419E+02 -0.75163038748E+01  0.13578976523E+01  0.15017106142E+02  0.10566000000E+00 0.  1.
         13    1    4    4    0    0 -0.66142074026E+01  0.30906666256E+01 -0.84217106559E+02  0.84533024085E+02  0.10566000000E+00 0. -1.
        -13    1    4    4    0    0 -0.25014077042E+01  0.13098592349E+01 -0.36453520798E+02  0.36562865237E+02  0.10566000000E+00 0. -1.
        -14    1    4    4    0    0 -0.38135613117E+01  0.31157780143E+01 -0.66133963384E+02  0.66317059912E+02  0.00000000000E+00 0.  1.
<mgrwt>
<rscale>  0 0.81163116E+02</rscale>
<asrwt>0</asrwt>
<pdfrwt beam="1">  1        2 0.29836669E-01 0.81163116E+02</pdfrwt>
<pdfrwt beam="2">  1       -1 0.13064126E-02 0.81163116E+02</pdfrwt>
<totfact> 0.21008100E+05</totfact>
</mgrwt>
</event>
<event>
 8    1  0.2389776E-024  0.8199088E+02  0.7818608E-02  0.1323495E+00
          2   -1    0    0  501    0  0.00000000000E+00  0.00000000000E+00  0.14248541736E+02  0.14248541964E+02  0.25500000000E-02 0. -1.
         -1   -1    0    0    0  501 -0.00000000000E+00 -0.00000000000E+00 -0.11795073098E+03  0.11795073108E+03  0.50400000000E-02 0.  1.
         24    2    1    2    0    0  0.00000000000E+00  0.00000000000E+00 -0.10370218924E+03  0.13219927305E+03  0.81990875964E+02 0.  0.
         66    2    3    3    0    0  0.19888417561E+02  0.67070009317E+01  0.48516009828E+01  0.21634949913E+02  0.20000027624E+01 0.  0.
        -13    1    3    3    0    0 -0.19888417561E+02 -0.67070009317E+01 -0.10855379022E+03  0.11056432313E+03  0.10566000000E+00 0.  1.
         13    1    4    4    0    0  0.89535688510E+01  0.22389696562E+01  0.15133326086E+01  0.93531128460E+01  0.10566000000E+00 0. -1.
        -13    1    4    4    0    0  0.25934719258E+01  0.10875956877E+01  0.64595879755E+00  0.28874535171E+01  0.10566000000E+00 0.  1.
         14    1    4    4    0    0  0.83413767847E+01  0.33804355878E+01  0.26923095766E+01  0.93943835500E+01  0.00000000000E+00 0. -1.
<mgrwt>
<rscale>  0 0.81990876E+02</rscale>
<asrwt>0</asrwt>
<pdfrwt beam="1">  1        2 0.21920834E-02 0.81990876E+02</pdfrwt>
<pdfrwt beam="2">  1       -1 0.18146266E-01 0.81990876E+02</pdfrwt>
<totfact> 0.10745796E+05</totfact>
</mgrwt>
</event>
<event>
 8    1  0.2389776E-024  0.7873985E+02  0.7818608E-02  0.1332666E+00
          2   -1    0    0  501    0  0.00000000000E+00  0.00000000000E+00  0.60810388633E+01  0.60810393980E+01  0.25500000000E-02 0. -1.
         -1   -1    0    0    0  501 -0.00000000000E+00 -0.00000000000E+00 -0.25488915525E+03  0.25488915530E+03  0.50400000000E-02 0.  1.
         24    2    1    2    0    0  0.00000000000E+00  0.00000000000E+00 -0.24880811638E+03  0.26097019470E+03  0.78739848493E+02 0.  0.
         66    2    3    3    0    0  0.36919666771E+02  0.30316405358E+01 -0.80547799737E+02  0.88680328594E+02  0.19999995739E+01 0.  0.
        -13    1    3    3    0    0 -0.36919666771E+02 -0.30316405358E+01 -0.16826031665E+03  0.17228986610E+03  0.10566000000E+00 0.  1.
         13    1    4    4    0    0  0.98944547837E+01  0.61381924265E+00 -0.20047985493E+02  0.22365372697E+02  0.10566000000E+00 0. -1.
        -13    1    4    4    0    0  0.21228678325E+02  0.14575684676E+01 -0.47694393508E+02  0.52225928670E+02  0.10566000000E+00 0.  1.
         14    1    4    4    0    0  0.57965336621E+01  0.96025282555E+00 -0.12805420736E+02  0.14089027227E+02  0.00000000000E+00 0. -1.
<mgrwt>
<rscale>  0 0.78739848E+02</rscale>
<asrwt>0</asrwt>
<pdfrwt beam="1">  1        2 0.93554468E-03 0.78739848E+02</pdfrwt>
<pdfrwt beam="2">  1       -1 0.39213708E-01 0.78739848E+02</pdfrwt>
<totfact> 0.95782751E+04</totfact>
</mgrwt>
</event>
<event>
 8    1  0.2389776E-024  0.7771325E+02  0.7818608E-02  0.1335669E+00
         -1   -1    0    0    0  501 -0.00000000000E+00  0.00000000000E+00  0.41024530242E+01  0.41024561201E+01  0.50400000000E-02 0.  1.
          2   -1    0    0  501    0  0.00000000000E+00 -0.00000000000E+00 -0.36803266290E+03  0.36803266290E+03  0.25500000000E-02 0. -1.
         24    2    1    2    0    0  0.00000000000E+00  0.00000000000E+00 -0.36393020987E+03  0.37213511902E+03  0.77713249542E+02 0.  0.
         66    2    3    3    0    0 -0.62539552954E+01  0.20402355861E+02 -0.33743457770E+03  0.33811456980E+03  0.19999998573E+01 0.  0.
        -13    1    3    3    0    0  0.62539552954E+01 -0.20402355861E+02 -0.26495632167E+02  0.34020549224E+02  0.10566000000E+00 0.  1.
         13    1    4    4    0    0 -0.21801494678E+01  0.68852120438E+01 -0.11906257366E+03  0.11928146045E+03  0.10566000000E+00 0. -1.
        -13    1    4    4    0    0 -0.14927743151E+01  0.64216739170E+01 -0.11140865172E+03  0.11160360708E+03  0.10566000000E+00 0.  1.
         14    1    4    4    0    0 -0.25810315125E+01  0.70954699004E+01 -0.10696335233E+03  0.10722950227E+03  0.00000000000E+00 0. -1.
<mgrwt>
<rscale>  0 0.77713250E+02</rscale>
<asrwt>0</asrwt>
<pdfrwt beam="1">  1        2 0.56620384E-01 0.77713250E+02</pdfrwt>
<pdfrwt beam="2">  1       -1 0.63114715E-03 0.77713250E+02</pdfrwt>
<totfact> 0.29593534E+05</totfact>
</mgrwt>
</event>
<event>
 8    1  0.2389776E-024  0.8234956E+02  0.7818608E-02  0.1322513E+00
         -1   -1    0    0    0  501 -0.00000000000E+00  0.00000000000E+00  0.41563354168E+01  0.41563384726E+01  0.50400000000E-02 0.  1.
          2   -1    0    0  501    0  0.00000000000E+00 -0.00000000000E+00 -0.40789819753E+03  0.40789819754E+03  0.25500000000E-02 0. -1.
         24    2    1    2    0    0 -0.22204460493E-15 -0.35527136788E-14 -0.40374186211E+03  0.41205453601E+03  0.82349556309E+02 0.  0.
         66    2    3    3    0    0 -0.12046473298E+01 -0.26423204510E+02 -0.35972375561E+03  0.36070045364E+03  0.19999989636E+01 0.  0.
        -13    1    3    3    0    0  0.12046473298E+01  0.26423204510E+02 -0.44018106505E+02  0.51354082370E+02  0.10566000000E+00 0.  1.
         13    1    4    4    0    0 -0.11461419865E+01 -0.20052251049E+02 -0.28208452085E+03  0.28279868190E+03  0.10566000000E+00 0. -1.
        -13    1    4    4    0    0 -0.11655480442E+00 -0.22760911784E+01 -0.25402386710E+02  0.25504638611E+02  0.10566000000E+00 0.  1.
         14    1    4    4    0    0  0.58049461052E-01 -0.40948622824E+01 -0.52236848044E+02  0.52397133132E+02  0.00000000000E+00 0. -1.
<mgrwt>
<rscale>  0 0.82349556E+02</rscale>
<asrwt>0</asrwt>
<pdfrwt beam="1">  1        2 0.62753537E-01 0.82349556E+02</pdfrwt>
<pdfrwt beam="2">  1       -1 0.63943678E-03 0.82349556E+02</pdfrwt>
<totfact> 0.26372770E+05</totfact>
</mgrwt>
</event>
<event>
 8    1  0.2389776E-024  0.8297054E+02  0.7818608E-02  0.1320827E+00
          2   -1    0    0  501    0  0.00000000000E+00  0.00000000000E+00  0.42106162574E+03  0.42106162575E+03  0.25500000000E-02 0. -1.
         -1   -1    0    0    0  501 -0.00000000000E+00 -0.00000000000E+00 -0.40873522066E+01  0.40873553140E+01  0.50400000000E-02 0.  1.
         24    2    1    2    0    0  0.00000000000E+00  0.00000000000E+00  0.41697427354E+03  0.42514898107E+03  0.82970544829E+02 0.  0.
         66    2    3    3    0    0 -0.35659237942E+02 -0.21152249208E+02  0.20781502335E+03  0.21191999148E+03  0.19999903557E+01 0.  0.
        -13    1    3    3    0    0  0.35659237942E+02  0.21152249208E+02  0.20915925019E+03  0.21322898959E+03  0.10566000000E+00 0.  1.
         13    1    4    4    0    0 -0.20467039208E+02 -0.12136825557E+02  0.11962931590E+03  0.12197289296E+03  0.10566000000E+00 0. -1.
        -13    1    4    4    0    0 -0.12959261071E+02 -0.73782244344E+01  0.72311035756E+02  0.73832768467E+02  0.10566000000E+00 0.  1.
         14    1    4    4    0    0 -0.22329376628E+01 -0.16371992169E+01  0.15874671690E+02  0.16114330056E+02  0.00000000000E+00 0. -1.
<mgrwt>
<rscale>  0 0.82970545E+02</rscale>
<asrwt>0</asrwt>
<pdfrwt beam="1">  1        2 0.64778690E-01 0.82970545E+02</pdfrwt>
<pdfrwt beam="2">  1       -1 0.62882387E-03 0.82970545E+02</pdfrwt>
<totfact> 0.26145268E+05</totfact>
</mgrwt>
</event>
<event>
 8    1  0.2389776E-024  0.7073854E+02  0.7818608E-02  0.1357599E+00
         -1   -1    0    0    0  501 -0.00000000000E+00  0.00000000000E+00  0.16644133269E+01  0.16644209577E+01  0.50400000000E-02 0.  1.
          2   -1    0    0  501    0  0.00000000000E+00 -0.00000000000E+00 -0.75160564968E+03  0.75160564968E+03  0.25500000000E-02 0. -1.
         24    2    1    2    0    0  0.00000000000E+00  0.00000000000E+00 -0.74994123635E+03  0.75327007064E+03  0.70738542127E+02 0.  0.
         66    2    3    3    0    0 -0.16336256837E+02 -0.18057853405E+02 -0.64801247639E+03  0.64847292074E+03  0.20000029606E+01 0.  0.
        -13    1    3    3    0    0  0.16336256837E+02  0.18057853405E+02 -0.10192875996E+03  0.10479714990E+03  0.10566000000E+00 0.  1.
         13    1    4    4    0    0 -0.60310869250E+00 -0.10535715687E+01 -0.36787093035E+02  0.36807270086E+02  0.10566000000E+00 0. -1.
        -13    1    4    4    0    0 -0.13843951701E+01 -0.16562876962E+01 -0.66977074163E+02  0.67011935254E+02  0.10566000000E+00 0.  1.
         14    1    4    4    0    0 -0.14348752975E+02 -0.15347994140E+02 -0.54424830919E+03  0.54465371540E+03  0.00000000000E+00 0. -1.
<mgrwt>
<rscale>  0 0.70738542E+02</rscale>
<asrwt>0</asrwt>
<pdfrwt beam="1">  1        2 0.11563137E+00 0.70738542E+02</pdfrwt>
<pdfrwt beam="2">  1       -1 0.25606478E-03 0.70738542E+02</pdfrwt>
<totfact> 0.46668117E+05</totfact>
</mgrwt>
</event>
<event>
 8    1  0.2389776E-024  0.7940984E+02  0.7818608E-02  0.1330735E+00
         -1   -1    0    0    0  501 -0.00000000000E+00  0.00000000000E+00  0.42315371657E+01  0.42315401672E+01  0.50400000000E-02 0.  1.
          2   -1    0    0  501    0  0.00000000000E+00 -0.00000000000E+00 -0.37255490737E+03  0.37255490738E+03  0.25500000000E-02 0. -1.
         24    2    1    2    0    0  0.00000000000E+00  0.00000000000E+00 -0.36832337021E+03  0.37678644755E+03  0.79409835762E+02 0.  0.
         66    2    3    3    0    0  0.38746141237E+01 -0.15794283357E+02 -0.35601254242E+03  0.35638939712E+03  0.19999992277E+01 0.  0.
        -13    1    3    3    0    0 -0.38746141237E+01  0.15794283357E+02 -0.12310827784E+02  0.20397050427E+02  0.10566000000E+00 0.  1.
         13    1    4    4    0    0  0.20034383267E+01 -0.10965388082E+02 -0.25385387350E+03  0.25409851191E+03  0.10566000000E+00 0. -1.
        -13    1    4    4    0    0  0.52286984383E+00 -0.19227719545E+01 -0.38864545061E+02  0.38915735529E+02  0.10566000000E+00 0. -1.
         14    1    4    4    0    0  0.13483059531E+01 -0.29061233204E+01 -0.63294123860E+02  0.63375149680E+02  0.00000000000E+00 0. -1.
<mgrwt>
<rscale>  0 0.79409836E+02</rscale>
<asrwt>0</asrwt>
<pdfrwt beam="1">  1        2 0.57316114E-01 0.79409836E+02</pdfrwt>
<pdfrwt beam="2">  1       -1 0.65100625E-03 0.79409836E+02</pdfrwt>
<totfact> 0.28092633E+05</totfact>
</mgrwt>
</event>
<event>
 8    1  0.2389776E-024  0.7993397E+02  0.7818608E-02  0.1329239E+00
         -1   -1    0    0    0  501 -0.00000000000E+00  0.00000000000E+00  0.11156266622E+03  0.11156266634E+03  0.50400000000E-02 0.  1.
          2   -1    0    0  501    0  0.00000000000E+00 -0.00000000000E+00 -0.14318048977E+02  0.14318049204E+02  0.25500000000E-02 0. -1.
         24    2    1    2    0    0  0.88817841970E-15  0.00000000000E+00  0.97244617247E+02  0.12588071554E+03  0.79933966259E+02 0.  0.
         66    2    3    3    0    0  0.69517244058E+01  0.17175513978E+02 -0.70704292230E+01  0.19932780986E+02  0.20000089520E+01 0.  0.
        -13    1    3    3    0    0 -0.69517244058E+01 -0.17175513978E+02  0.10431504647E+03  0.10594793456E+03  0.10566000000E+00 0.  1.
         13    1    4    4    0    0  0.13398237231E+01  0.42702356772E+01 -0.11759537458E+01  0.46286144358E+01  0.10566000000E+00 0.  1.
        -13    1    4    4    0    0  0.33579554788E+01  0.90681025343E+01 -0.41790606830E+01  0.10534802362E+02  0.10566000000E+00 0. -1.
         14    1    4    4    0    0  0.22539452039E+01  0.38371757667E+01 -0.17154147942E+01  0.47693641886E+01  0.00000000000E+00 0. -1.
<mgrwt>
<rscale>  0 0.79933966E+02</rscale>
<asrwt>0</asrwt>
<pdfrwt beam="1">  1        2 0.22027769E-02 0.79933966E+02</pdfrwt>
<pdfrwt beam="2">  1       -1 0.17163486E-01 0.79933966E+02</pdfrwt>
<totfact> 0.11597267E+05</totfact>
</mgrwt>
</event>
<event>
 8    1  0.2389776E-024  0.7530945E+02  0.7818608E-02  0.1342915E+00
         -1   -1    0    0    0  501 -0.00000000000E+00  0.00000000000E+00  0.19137499165E+01  0.19137565531E+01  0.50400000000E-02 0.  1.
          2   -1    0    0  501    0  0.00000000000E+00 -0.00000000000E+00 -0.74088869494E+03  0.74088869494E+03  0.25500000000E-02 0. -1.
         24    2    1    2    0    0  0.00000000000E+00  0.00000000000E+00 -0.73897494502E+03  0.74280245150E+03  0.75309445478E+02 0.  0.
         66    2    3    3    0    0  0.24503189617E+02  0.22472017875E+02 -0.54354240947E+03  0.54456197882E+03  0.19999999610E+01 0.  0.
        -13    1    3    3    0    0 -0.24503189617E+02 -0.22472017875E+02 -0.19543253555E+03  0.19824047267E+03  0.10566000000E+00 0.  1.
         13    1    4    4    0    0  0.14413403646E+02  0.12740487055E+02 -0.32359728049E+03  0.32416859398E+03  0.10566000000E+00 0. -1.
        -13    1    4    4    0    0  0.99890134111E+01  0.95415722693E+01 -0.21774837796E+03  0.21818613444E+03  0.10566000000E+00 0.  1.
         14    1    4    4    0    0  0.10077255961E+00  0.18995855144E+00 -0.21967510145E+01  0.22072504117E+01  0.00000000000E+00 0. -1.
<mgrwt>
<rscale>  0 0.75309445E+02</rscale>
<asrwt>0</asrwt>
<pdfrwt beam="1">  1        2 0.11398265E+00 0.75309445E+02</pdfrwt>
<pdfrwt beam="2">  1       -1 0.29442417E-03 0.75309445E+02</pdfrwt>
<totfact> 0.39607036E+05</totfact>
</mgrwt>
</event>
<event>
 8    1  0.2389776E-024  0.7665541E+02  0.7818608E-02  0.1338820E+00
         -1   -1    0    0    0  501 -0.00000000000E+00  0.00000000000E+00  0.14104957797E+02  0.14104958698E+02  0.50400000000E-02 0.  1.
          2   -1    0    0  501    0  0.00000000000E+00 -0.00000000000E+00 -0.10414869434E+03  0.10414869437E+03  0.25500000000E-02 0. -1.
         24    2    1    2    0    0  0.00000000000E+00  0.00000000000E+00 -0.90043736540E+02  0.11825365307E+03  0.76655410595E+02 0.  0.
         66    2    3    3    0    0 -0.11753948383E+02  0.26117815750E+02 -0.84283249473E+02  0.89039102283E+02  0.19999978937E+01 0.  0.
        -13    1    3    3    0    0  0.11753948383E+02 -0.26117815750E+02 -0.57604870671E+01  0.29214550783E+02  0.10566000000E+00 0.  1.
         13    1    4    4    0    0 -0.19706595255E+01  0.35221330827E+01 -0.12211726930E+02  0.12861817875E+02  0.10566000000E+00 0.  1.
        -13    1    4    4    0    0 -0.50435222425E+01  0.10619950987E+02 -0.36411687906E+02  0.38262810349E+02  0.10566000000E+00 0. -1.
        -14    1    4    4    0    0 -0.47397666148E+01  0.11975731681E+02 -0.35659834637E+02  0.37914474059E+02  0.00000000000E+00 0.  1.
<mgrwt>
<rscale>  0 0.76655411E+02</rscale>
<asrwt>0</asrwt>
<pdfrwt beam="1">  1        2 0.16022876E-01 0.76655411E+02</pdfrwt>
<pdfrwt beam="2">  1       -1 0.21699937E-02 0.76655411E+02</pdfrwt>
<totfact> 0.20095381E+05</totfact>
</mgrwt>
</event>
<event>
 8    1  0.2389776E-024  0.7851943E+02  0.7818608E-02  0.1333306E+00
          2   -1    0    0  501    0  0.00000000000E+00  0.00000000000E+00  0.57069944805E+03  0.57069944806E+03  0.25500000000E-02 0. -1.
         -1   -1    0    0    0  501 -0.00000000000E+00 -0.00000000000E+00 -0.27007625778E+01  0.27007672805E+01  0.50400000000E-02 0.  1.
         24    2    1    2    0    0  0.00000000000E+00  0.00000000000E+00  0.56799868548E+03  0.57340021534E+03  0.78519425937E+02 0.  0.
         66    2    3    3    0    0 -0.35633660866E+02  0.61842559848E+01  0.39525002567E+03  0.39690626803E+03  0.19999998605E+01 0.  0.
        -13    1    3    3    0    0  0.35633660866E+02 -0.61842559848E+01  0.17274865980E+03  0.17649394731E+03  0.10566000000E+00 0.  1.
         13    1    4    4    0    0 -0.63123292869E+01  0.13347824076E+01  0.78102760217E+02  0.78368867943E+02  0.10566000000E+00 0. -1.
        -13    1    4    4    0    0 -0.18994918819E+01  0.26349182199E+00  0.19304076687E+02  0.19399382416E+02  0.10566000000E+00 0. -1.
         14    1    4    4    0    0 -0.27421839697E+02  0.45859817552E+01  0.29784318877E+03  0.29913801767E+03  0.00000000000E+00 0. -1.
<mgrwt>
<rscale>  0 0.78519426E+02</rscale>
<asrwt>0</asrwt>
<pdfrwt beam="1">  1        2 0.87799944E-01 0.78519426E+02</pdfrwt>
<pdfrwt beam="2">  1       -1 0.41550216E-03 0.78519426E+02</pdfrwt>
<totfact> 0.33286369E+05</totfact>
</mgrwt>
</event>
<event>
 8    1  0.2389776E-024  0.8234065E+02  0.7818608E-02  0.1322537E+00
          2   -1    0    0  501    0  0.00000000000E+00  0.00000000000E+00  0.46486528584E+03  0.46486528584E+03  0.25500000000E-02 0. -1.
         -1   -1    0    0    0  501 -0.00000000000E+00 -0.00000000000E+00 -0.36462067263E+01  0.36462102096E+01  0.50400000000E-02 0.  1.
         24    2    1    2    0    0  0.00000000000E+00  0.00000000000E+00  0.46121907911E+03  0.46851149605E+03  0.82340652164E+02 0.  0.
         66    2    3    3    0    0 -0.39776786308E+02 -0.84983843779E+01  0.26608481569E+03  0.26918310572E+03  0.20000002977E+01 0.  0.
        -13    1    3    3    0    0  0.39776786308E+02  0.84983843779E+01  0.19513426342E+03  0.19932839033E+03  0.10566000000E+00 0.  1.
         13    1    4    4    0    0 -0.25282736848E+02 -0.51616713430E+01  0.17392934845E+03  0.17583312842E+03  0.10566000000E+00 0. -1.
        -13    1    4    4    0    0 -0.16745509893E+01 -0.55897279134E+00  0.10756262899E+02  0.10900684712E+02  0.10566000000E+00 0.  1.
         14    1    4    4    0    0 -0.12819498471E+02 -0.27777402435E+01  0.81399204337E+02  0.82449292590E+02  0.00000000000E+00 0. -1.
<mgrwt>
<rscale>  0 0.82340652E+02</rscale>
<asrwt>0</asrwt>
<pdfrwt beam="1">  1        2 0.71517704E-01 0.82340652E+02</pdfrwt>
<pdfrwt beam="2">  1       -1 0.56095540E-03 0.82340652E+02</pdfrwt>
<totfact> 0.27581276E+05</totfact>
</mgrwt>
</event>
<event>
 8    1  0.2389776E-024  0.8085968E+02  0.7818608E-02  0.1326629E+00
          2   -1    0    0  501    0  0.00000000000E+00  0.00000000000E+00  0.18593404003E+02  0.18593404178E+02  0.25500000000E-02 0. -1.
         -1   -1    0    0    0  501 -0.00000000000E+00 -0.00000000000E+00 -0.87911387784E+02  0.87911387928E+02  0.50400000000E-02 0.  1.
         24    2    1    2    0    0 -0.88817841970E-15  0.00000000000E+00 -0.69317983781E+02  0.10650479211E+03  0.80859680102E+02 0.  0.
         66    2    3    3    0    0  0.51615768161E+01  0.39146915844E+02 -0.45968100160E+02  0.60631585064E+02  0.19999949239E+01 0.  0.
        -13    1    3    3    0    0 -0.51615768161E+01 -0.39146915844E+02 -0.23349883620E+02  0.45873207043E+02  0.10566000000E+00 0.  1.
         13    1    4    4    0    0  0.30905165373E+01  0.24086282091E+02 -0.28274187093E+02  0.37271183202E+02  0.10566000000E+00 0. -1.
        -13    1    4    4    0    0 -0.15699399110E-01  0.33744700839E+01 -0.41736674266E+01  0.53682360829E+01  0.10566000000E+00 0.  1.
        -14    1    4    4    0    0  0.20867596779E+01  0.11686163669E+02 -0.13520245640E+02  0.17992165779E+02  0.00000000000E+00 0.  1.
<mgrwt>
<rscale>  0 0.80859680E+02</rscale>
<asrwt>0</asrwt>
<pdfrwt beam="1">  1        2 0.28605237E-02 0.80859680E+02</pdfrwt>
<pdfrwt beam="2">  1       -1 0.13524829E-01 0.80859680E+02</pdfrwt>
<totfact> 0.11860274E+05</totfact>
</mgrwt>
</event>
<event>
 8    1  0.2389776E-024  0.8004940E+02  0.7818608E-02  0.1328911E+00
          2   -1    0    0  501    0  0.00000000000E+00  0.00000000000E+00  0.61248989632E+03  0.61248989633E+03  0.25500000000E-02 0. -1.
         -1   -1    0    0    0  501 -0.00000000000E+00 -0.00000000000E+00 -0.26155130446E+01  0.26155179005E+01  0.50400000000E-02 0.  1.
         24    2    1    2    0    0  0.00000000000E+00  0.00000000000E+00  0.60987438328E+03  0.61510541423E+03  0.80049404960E+02 0.  0.
         66    2    3    3    0    0 -0.18092117422E+02 -0.41768985882E+01  0.57736455614E+03  0.57766651441E+03  0.19999990219E+01 0.  0.
        -13    1    3    3    0    0  0.18092117422E+02  0.41768985882E+01  0.32509827140E+02  0.37438899814E+02  0.10566000000E+00 0.  1.
         13    1    4    4    0    0 -0.64157214483E+00 -0.39774193962E+00  0.33901341399E+02  0.33909908967E+02  0.10566000000E+00 0. -1.
        -13    1    4    4    0    0 -0.12916221148E+02 -0.26671799014E+01  0.39761651095E+03  0.39783519649E+03  0.10566000000E+00 0.  1.
         14    1    4    4    0    0 -0.45343241292E+01 -0.11119767471E+01  0.14584670379E+03  0.14592140896E+03  0.00000000000E+00 0. -1.
<mgrwt>
<rscale>  0 0.80049405E+02</rscale>
<asrwt>0</asrwt>
<pdfrwt beam="1">  1        2 0.94229150E-01 0.80049405E+02</pdfrwt>
<pdfrwt beam="2">  1       -1 0.40238727E-03 0.80049405E+02</pdfrwt>
<totfact> 0.32294627E+05</totfact>
</mgrwt>
</event>
<event>
 8    1  0.2389776E-024  0.7918506E+02  0.7818608E-02  0.1331380E+00
         -1   -1    0    0    0  501 -0.00000000000E+00  0.00000000000E+00  0.72331885847E+01  0.72331903406E+01  0.50400000000E-02 0.  1.
          2   -1    0    0  501    0  0.00000000000E+00 -0.00000000000E+00 -0.21671883542E+03  0.21671883543E+03  0.25500000000E-02 0. -1.
         24    2    1    2    0    0 -0.35527136788E-14  0.00000000000E+00 -0.20948564683E+03  0.22395202577E+03  0.79185059316E+02 0.  0.
         66    2    3    3    0    0 -0.23660452745E+02 -0.15085255947E+02 -0.18370494886E+03  0.18584641564E+03  0.20000006182E+01 0.  0.
        -13    1    3    3    0    0  0.23660452745E+02  0.15085255947E+02 -0.25780697977E+02  0.38105610129E+02  0.10566000000E+00 0.  1.
         13    1    4    4    0    0 -0.17833830899E+02 -0.11146391860E+02 -0.13760613735E+03  0.13920397903E+03  0.10566000000E+00 0. -1.
        -13    1    4    4    0    0 -0.37184040328E+01 -0.25677744829E+01 -0.32530950258E+02  0.32843475502E+02  0.10566000000E+00 0.  1.
        -14    1    4    4    0    0 -0.21082178133E+01 -0.13710896044E+01 -0.13567861247E+02  0.13798961115E+02  0.00000000000E+00 0.  1.
<mgrwt>
<rscale>  0 0.79185059E+02</rscale>
<asrwt>0</asrwt>
<pdfrwt beam="1">  1        2 0.33341354E-01 0.79185059E+02</pdfrwt>
<pdfrwt beam="2">  1       -1 0.11127985E-02 0.79185059E+02</pdfrwt>
<totfact> 0.23306832E+05</totfact>
</mgrwt>
</event>
<event>
 8    1  0.2389776E-024  0.7798149E+02  0.7818608E-02  0.1334879E+00
          2   -1    0    0  501    0  0.00000000000E+00  0.00000000000E+00  0.14238947647E+03  0.14238947649E+03  0.25500000000E-02 0. -1.
         -1   -1    0    0    0  501 -0.00000000000E+00 -0.00000000000E+00 -0.10676899336E+02  0.10676900526E+02  0.50400000000E-02 0.  1.
         24    2    1    2    0    0  0.00000000000E+00  0.00000000000E+00  0.13171257713E+03  0.15306637702E+03  0.77981490100E+02 0.  0.
         66    2    3    3    0    0 -0.13527656693E+02  0.35473846982E+02  0.48688708970E+02  0.61773632705E+02  0.20000002894E+01 0.  0.
        -13    1    3    3    0    0  0.13527656693E+02 -0.35473846982E+02  0.83023868163E+02  0.91292744312E+02  0.10566000000E+00 0.  1.
         13    1    4    4    0    0 -0.14840320474E+01  0.47037199557E+01  0.68906737029E+01  0.84746610938E+01  0.10566000000E+00 0. -1.
        -13    1    4    4    0    0 -0.10181891655E+02  0.25040969931E+02  0.33547150340E+02  0.43082984492E+02  0.10566000000E+00 0.  1.
        -14    1    4    4    0    0 -0.18617329908E+01  0.57291570949E+01  0.82508849267E+01  0.10215987119E+02  0.00000000000E+00 0.  1.
<mgrwt>
<rscale>  0 0.77981490E+02</rscale>
<asrwt>0</asrwt>
<pdfrwt beam="1">  1        2 0.21906073E-01 0.77981490E+02</pdfrwt>
<pdfrwt beam="2">  1       -1 0.16426000E-02 0.77981490E+02</pdfrwt>
<totfact> 0.21081021E+05</totfact>
</mgrwt>
</event>
<event>
 8    1  0.2389776E-024  0.8048500E+02  0.7818608E-02  0.1327681E+00
          2   -1    0    0  501    0  0.00000000000E+00  0.00000000000E+00  0.25855482633E+03  0.25855482634E+03  0.25500000000E-02 0. -1.
         -1   -1    0    0    0  501 -0.00000000000E+00 -0.00000000000E+00 -0.62635018661E+01  0.62635038938E+01  0.50400000000E-02 0.  1.
         24    2    1    2    0    0  0.00000000000E+00  0.35527136788E-14  0.25229132446E+03  0.26481833023E+03  0.80485002512E+02 0.  0.
         66    2    3    3    0    0  0.14728342720E+02 -0.29853168563E+02  0.20047867544E+03  0.20323344966E+03  0.20000005889E+01 0.  0.
        -13    1    3    3    0    0 -0.14728342720E+02  0.29853168563E+02  0.51812649021E+02  0.61584880572E+02  0.10566000000E+00 0.  1.
         13    1    4    4    0    0  0.51354386812E+01 -0.11841744427E+02  0.75075288340E+02  0.76176831943E+02  0.10566000000E+00 0. -1.
        -13    1    4    4    0    0  0.27056402412E+01 -0.44475271621E+01  0.30231833677E+02  0.30676960711E+02  0.10566000000E+00 0.  1.
        -14    1    4    4    0    0  0.68872637971E+01 -0.13563896974E+02  0.95171553421E+02  0.96379657005E+02  0.00000000000E+00 0.  1.
<mgrwt>
<rscale>  0 0.80485003E+02</rscale>
<asrwt>0</asrwt>
<pdfrwt beam="1">  1        2 0.39777657E-01 0.80485003E+02</pdfrwt>
<pdfrwt beam="2">  1       -1 0.96361605E-03 0.80485003E+02</pdfrwt>
<totfact> 0.23777813E+05</totfact>
</mgrwt>
</event>
<event>
 8    1  0.2389776E-024  0.7917313E+02  0.7818608E-02  0.1331414E+00
         -1   -1    0    0    0  501 -0.00000000000E+00  0.00000000000E+00  0.29579832856E+03  0.29579832861E+03  0.50400000000E-02 0.  1.
          2   -1    0    0  501    0  0.00000000000E+00 -0.00000000000E+00 -0.52978522587E+01  0.52978528723E+01  0.25500000000E-02 0. -1.
         24    2    1    2    0    0  0.71054273576E-14  0.00000000000E+00  0.29050047630E+03  0.30109618148E+03  0.79173125287E+02 0.  0.
         66    2    3    3    0    0 -0.37788976975E+02 -0.54408096953E+01  0.10591555883E+03  0.11260423971E+03  0.20000015099E+01 0.  0.
        -13    1    3    3    0    0  0.37788976975E+02  0.54408096953E+01  0.18458491747E+03  0.18849194177E+03  0.10566000000E+00 0.  1.
         13    1    4    4    0    0 -0.26944666977E+02 -0.32958568899E+01  0.76781460253E+02  0.81438820926E+02  0.10566000000E+00 0. -1.
        -13    1    4    4    0    0 -0.77202061296E+01 -0.12954586647E+01  0.20417274764E+02  0.21866780025E+02  0.10566000000E+00 0.  1.
         14    1    4    4    0    0 -0.31241038679E+01 -0.84949414076E+00  0.87168238166E+01  0.92986387564E+01  0.00000000000E+00 0. -1.
<mgrwt>
<rscale>  0 0.79173125E+02</rscale>
<asrwt>0</asrwt>
<pdfrwt beam="1">  1        2 0.81505417E-03 0.79173125E+02</pdfrwt>
<pdfrwt beam="2">  1       -1 0.45507440E-01 0.79173125E+02</pdfrwt>
<totfact> 0.89270905E+04</totfact>
</mgrwt>
</event>
<event>
 8    1  0.2389776E-024  0.8068177E+02  0.7818608E-02  0.1327128E+00
          2   -1    0    0  501    0  0.00000000000E+00  0.00000000000E+00  0.13617715446E+04  0.13617715446E+04  0.25500000000E-02 0. -1.
         -1   -1    0    0    0  501 -0.00000000000E+00 -0.00000000000E+00 -0.11950461392E+01  0.11950567670E+01  0.50400000000E-02 0.  1.
         24    2    1    2    0    0  0.35527136788E-14  0.44408920985E-15  0.13605764984E+04  0.13629666013E+04  0.80681771698E+02 0.  0.
         66    2    3    3    0    0  0.19874993218E+02 -0.37632785020E+01  0.12698377501E+04  0.12700004288E+04  0.19999998059E+01 0.  0.
        -13    1    3    3    0    0 -0.19874993218E+02  0.37632785020E+01  0.90738748321E+02  0.92966172511E+02  0.10566000000E+00 0.  1.
         13    1    4    4    0    0  0.11357854149E+02 -0.16427385508E+01  0.74056524838E+03  0.74065416876E+03  0.10566000000E+00 0. -1.
        -13    1    4    4    0    0  0.43156158495E+01 -0.71052071558E+00  0.24129614417E+03  0.24133580284E+03  0.10566000000E+00 0.  1.
        -14    1    4    4    0    0  0.42015232195E+01 -0.14100192357E+01  0.28797635755E+03  0.28801045720E+03  0.00000000000E+00 0.  1.
<mgrwt>
<rscale>  0 0.80681772E+02</rscale>
<asrwt>0</asrwt>
<pdfrwt beam="1">  1        2 0.20950370E+00 0.80681772E+02</pdfrwt>
<pdfrwt beam="2">  1       -1 0.18385373E-03 0.80681772E+02</pdfrwt>
<totfact> 0.33516939E+05</totfact>
</mgrwt>
</event>
<event>
 8    1  0.2389776E-024  0.7914315E+02  0.7818608E-02  0.1331501E+00
         -1   -1    0    0    0  501 -0.00000000000E+00  0.00000000000E+00  0.51262470156E+01  0.51262494932E+01  0.50400000000E-02 0.  1.
          2   -1    0    0  501    0  0.00000000000E+00 -0.00000000000E+00 -0.30546892988E+03  0.30546892989E+03  0.25500000000E-02 0. -1.
         24    2    1    2    0    0  0.00000000000E+00  0.35527136788E-14 -0.30034268287E+03  0.31059517939E+03  0.79143150723E+02 0.  0.
         66    2    3    3    0    0 -0.15950653271E+01  0.22376394160E+02 -0.27807818065E+03  0.27898874852E+03  0.19999998981E+01 0.  0.
        -13    1    3    3    0    0  0.15950653271E+01 -0.22376394160E+02 -0.22264502219E+02  0.31606430866E+02  0.10566000000E+00 0.  1.
         13    1    4    4    0    0 -0.11665090915E+01  0.13183228732E+02 -0.15802015870E+03  0.15857345296E+03  0.10566000000E+00 0. -1.
        -13    1    4    4    0    0  0.18839226489E+00  0.60021850993E+01 -0.80882025066E+02  0.81104715402E+02  0.10566000000E+00 0.  1.
        -14    1    4    4    0    0 -0.61694850053E+00  0.31909803280E+01 -0.39175996877E+02  0.39310580156E+02  0.00000000000E+00 0.  1.
<mgrwt>
<rscale>  0 0.79143151E+02</rscale>
<asrwt>0</asrwt>
<pdfrwt beam="1">  1        2 0.46995206E-01 0.79143151E+02</pdfrwt>
<pdfrwt beam="2">  1       -1 0.78865382E-03 0.79143151E+02</pdfrwt>
<totfact> 0.26395961E+05</totfact>
</mgrwt>
</event>
<event>
 8    1  0.2389776E-024  0.8091297E+02  0.7818608E-02  0.1326480E+00
         -1   -1    0    0    0  501 -0.00000000000E+00  0.00000000000E+00  0.21679738780E+01  0.21679797364E+01  0.50400000000E-02 0.  1.
          2   -1    0    0  501    0  0.00000000000E+00 -0.00000000000E+00 -0.75495600646E+03  0.75495600647E+03  0.25500000000E-02 0. -1.
         24    2    1    2    0    0  0.00000000000E+00  0.00000000000E+00 -0.75278803258E+03  0.75712398620E+03  0.80912968564E+02 0.  0.
         66    2    3    3    0    0  0.28773664517E+02  0.22266685550E+01 -0.64159096924E+03  0.64224283072E+03  0.19999975478E+01 0.  0.
        -13    1    3    3    0    0 -0.28773664517E+02 -0.22266685550E+01 -0.11119706335E+03  0.11488115548E+03  0.10566000000E+00 0.  1.
         13    1    4    4    0    0  0.22922680876E+01  0.45967258969E+00 -0.61169730389E+02  0.61214482532E+02  0.10566000000E+00 0.  1.
        -13    1    4    4    0    0  0.33550532060E+01 -0.30192950976E-01 -0.75312371959E+02  0.75387146303E+02  0.10566000000E+00 0. -1.
         14    1    4    4    0    0  0.23126343223E+02  0.17971889162E+01 -0.50510886689E+03  0.50564120189E+03  0.00000000000E+00 0. -1.
<mgrwt>
<rscale>  0 0.80912969E+02</rscale>
<asrwt>0</asrwt>
<pdfrwt beam="1">  1        2 0.11614687E+00 0.80912969E+02</pdfrwt>
<pdfrwt beam="2">  1       -1 0.33353550E-03 0.80912969E+02</pdfrwt>
<totfact> 0.33009175E+05</totfact>
</mgrwt>
</event>
<event>
 8    1  0.2389776E-024  0.8006074E+02  0.7818608E-02  0.1328879E+00
         -1   -1    0    0    0  501 -0.00000000000E+00  0.00000000000E+00  0.15991569779E+01  0.15991649200E+01  0.50400000000E-02 0.  1.
          2   -1    0    0  501    0  0.00000000000E+00 -0.00000000000E+00 -0.10020445694E+04  0.10020445694E+04  0.25500000000E-02 0. -1.
         24    2    1    2    0    0  0.00000000000E+00  0.88817841970E-15 -0.10004454124E+04  0.10036437343E+04  0.80060740753E+02 0.  0.
         66    2    3    3    0    0 -0.22791513186E+02  0.65328047710E+01 -0.90447724558E+03  0.90479015157E+03  0.20000002122E+01 0.  0.
        -13    1    3    3    0    0  0.22791513186E+02 -0.65328047710E+01 -0.95968166856E+02  0.98853582764E+02  0.10566000000E+00 0.  1.
         13    1    4    4    0    0 -0.46812012357E+01  0.79192418958E+00 -0.17830822631E+03  0.17837145377E+03  0.10566000000E+00 0. -1.
        -13    1    4    4    0    0 -0.35262463144E+01  0.10500171196E+01 -0.12226997344E+03  0.12232536335E+03  0.10566000000E+00 0.  1.
         14    1    4    4    0    0 -0.14584065636E+02  0.46908634618E+01 -0.60389904583E+03  0.60409333445E+03  0.00000000000E+00 0. -1.
<mgrwt>
<rscale>  0 0.80060741E+02</rscale>
<asrwt>0</asrwt>
<pdfrwt beam="1">  1        2 0.15416020E+00 0.80060741E+02</pdfrwt>
<pdfrwt beam="2">  1       -1 0.24602556E-03 0.80060741E+02</pdfrwt>
<totfact> 0.35164774E+05</totfact>
</mgrwt>
</event>
<event>
 8    1  0.2389776E-024  0.8043216E+02  0.7818608E-02  0.1327829E+00
         -1   -1    0    0    0  501 -0.00000000000E+00  0.00000000000E+00  0.24043104014E+02  0.24043104542E+02  0.50400000000E-02 0.  1.
          2   -1    0    0  501    0  0.00000000000E+00 -0.00000000000E+00 -0.67268069741E+02  0.67268069789E+02  0.25500000000E-02 0. -1.
         24    2    1    2    0    0  0.00000000000E+00  0.35527136788E-14 -0.43224965727E+02  0.91311174331E+02  0.80432163316E+02 0.  0.
         66    2    3    3    0    0  0.16800079031E+00 -0.23556661392E+02 -0.58593787497E+02  0.63183672365E+02  0.20000000203E+01 0.  0.
        -13    1    3    3    0    0 -0.16800079031E+00  0.23556661392E+02  0.15368821770E+02  0.28127501966E+02  0.10566000000E+00 0.  1.
         13    1    4    4    0    0 -0.18086144871E+00 -0.14336320656E+02 -0.36297626141E+02  0.39026806535E+02  0.10566000000E+00 0. -1.
        -13    1    4    4    0    0  0.67262884877E+00 -0.58162542842E+01 -0.14857762199E+02  0.15970144178E+02  0.10566000000E+00 0.  1.
        -14    1    4    4    0    0 -0.32376660974E+00 -0.34040864521E+01 -0.74383991577E+01  0.81867216527E+01  0.00000000000E+00 0.  1.
<mgrwt>
<rscale>  0 0.80432163E+02</rscale>
<asrwt>0</asrwt>
<pdfrwt beam="1">  1        2 0.10348934E-01 0.80432163E+02</pdfrwt>
<pdfrwt beam="2">  1       -1 0.36989392E-02 0.80432163E+02</pdfrwt>
<totfact> 0.15759546E+05</totfact>
</mgrwt>
</event>
<event>
 8    1  0.2389776E-024  0.7632739E+02  0.7818608E-02  0.1339809E+00
         -1   -1    0    0    0  501 -0.00000000000E+00  0.00000000000E+00  0.72718361628E+01  0.72718379093E+01  0.50400000000E-02 0.  1.
          2   -1    0    0  501    0  0.00000000000E+00 -0.00000000000E+00 -0.20028880651E+03  0.20028880652E+03  0.25500000000E-02 0. -1.
         24    2    1    2    0    0  0.71054273576E-14  0.00000000000E+00 -0.19301697035E+03  0.20756064443E+03  0.76327388770E+02 0.  0.
         66    2    3    3    0    0  0.34466406408E+02  0.16183427072E+02 -0.10242349236E+03  0.10929047653E+03  0.19999975759E+01 0.  0.
        -13    1    3    3    0    0 -0.34466406408E+02 -0.16183427072E+02 -0.90593477990E+02  0.98270167908E+02  0.10566000000E+00 0.  1.
         13    1    4    4    0    0  0.67203162982E+01  0.33984718656E+01 -0.20808012415E+02  0.22129094127E+02  0.10566000000E+00 0. -1.
        -13    1    4    4    0    0  0.21230679028E+01  0.58208527736E+00 -0.53259873286E+01  0.57639869578E+01  0.10566000000E+00 0.  1.
        -14    1    4    4    0    0  0.25623022207E+02  0.12202869929E+02 -0.76289492612E+02  0.81397395441E+02  0.00000000000E+00 0.  1.
<mgrwt>
<rscale>  0 0.76327389E+02</rscale>
<asrwt>0</asrwt>
<pdfrwt beam="1">  1        2 0.30813658E-01 0.76327389E+02</pdfrwt>
<pdfrwt beam="2">  1       -1 0.11187443E-02 0.76327389E+02</pdfrwt>
<totfact> 0.24975646E+05</totfact>
</mgrwt>
</event>
<event>
 8    1  0.2389776E-024  0.8202976E+02  0.7818608E-02  0.1323388E+00
         -1   -1    0    0    0  501 -0.00000000000E+00  0.00000000000E+00  0.70066799705E+01  0.70066817832E+01  0.50400000000E-02 0.  1.
          2   -1    0    0  501    0  0.00000000000E+00 -0.00000000000E+00 -0.24008803908E+03  0.24008803909E+03  0.25500000000E-02 0. -1.
         24    2    1    2    0    0  0.00000000000E+00 -0.88817841970E-15 -0.23308135911E+03  0.24709472087E+03  0.82029757532E+02 0.  0.
         66    2    3    3    0    0  0.25164045682E+02  0.51954274065E+01 -0.21281324104E+03  0.21436813481E+03  0.20000004621E+01 0.  0.
        -13    1    3    3    0    0 -0.25164045682E+02 -0.51954274065E+01 -0.20268118069E+02  0.32726586059E+02  0.10566000000E+00 0.  1.
         13    1    4    4    0    0  0.12249226431E+02  0.24086429094E+01 -0.99476329322E+02  0.10025665249E+03  0.10566000000E+00 0. -1.
        -13    1    4    4    0    0  0.11474595050E+02  0.28758771109E+01 -0.10117818250E+03  0.10186742747E+03  0.10566000000E+00 0.  1.
        -14    1    4    4    0    0  0.14402242006E+01 -0.89092613791E-01 -0.12158729213E+02  0.12244054856E+02  0.00000000000E+00 0.  1.
<mgrwt>
<rscale>  0 0.82029758E+02</rscale>
<asrwt>0</asrwt>
<pdfrwt beam="1">  1        2 0.36936615E-01 0.82029758E+02</pdfrwt>
<pdfrwt beam="2">  1       -1 0.10779511E-02 0.82029758E+02</pdfrwt>
<totfact> 0.22023159E+05</totfact>
</mgrwt>
</event>
<event>
 8    1  0.2389776E-024  0.7617169E+02  0.7818608E-02  0.1340281E+00
         -1   -1    0    0    0  501 -0.00000000000E+00  0.00000000000E+00  0.70047442109E+01  0.70047460241E+01  0.50400000000E-02 0.  1.
          2   -1    0    0  501    0  0.00000000000E+00 -0.00000000000E+00 -0.20707840160E+03  0.20707840162E+03  0.25500000000E-02 0. -1.
         24    2    1    2    0    0  0.00000000000E+00 -0.35527136788E-14 -0.20007365739E+03  0.21408314764E+03  0.76171685831E+02 0.  0.
         66    2    3    3    0    0 -0.48734923296E+01  0.21123047618E+02 -0.18802604076E+03  0.18928213357E+03  0.20000048292E+01 0.  0.
        -13    1    3    3    0    0  0.48734923296E+01 -0.21123047618E+02 -0.12047616632E+02  0.24801014066E+02  0.10566000000E+00 0.  1.
         13    1    4    4    0    0 -0.11315444639E+01  0.63261435329E+01 -0.54456465719E+02  0.54834462773E+02  0.10566000000E+00 0. -1.
        -13    1    4    4    0    0 -0.11579227670E+01  0.76201421985E+01 -0.65449202619E+02  0.65901567810E+02  0.10566000000E+00 0.  1.
         14    1    4    4    0    0 -0.25840250987E+01  0.71767618862E+01 -0.68120372419E+02  0.68546102992E+02  0.00000000000E+00 0. -1.
<mgrwt>
<rscale>  0 0.76171686E+02</rscale>
<asrwt>0</asrwt>
<pdfrwt beam="1">  1        2 0.31858211E-01 0.76171686E+02</pdfrwt>
<pdfrwt beam="2">  1       -1 0.10776533E-02 0.76171686E+02</pdfrwt>
<totfact> 0.25401421E+05</totfact>
</mgrwt>
</event>
<event>
 8    1  0.2389776E-024  0.7954254E+02  0.7818608E-02  0.1330355E+00
         -1   -1    0    0    0  501 -0.00000000000E+00  0.00000000000E+00  0.20568719879E+02  0.20568720496E+02  0.50400000000E-02 0.  1.
          2   -1    0    0  501    0  0.00000000000E+00 -0.00000000000E+00 -0.76900941276E+02  0.76900941318E+02  0.25500000000E-02 0. -1.
         24    2    1    2    0    0  0.00000000000E+00 -0.35527136788E-14 -0.56332221397E+02  0.97469661814E+02  0.79542540861E+02 0.  0.
         66    2    3    3    0    0  0.13880042483E+02  0.30777727755E+02 -0.53882493819E+02  0.63617978926E+02  0.19999993564E+01 0.  0.
        -13    1    3    3    0    0 -0.13880042483E+02 -0.30777727755E+02 -0.24497275779E+01  0.33851682888E+02  0.10566000000E+00 0.  1.
         13    1    4    4    0    0  0.35240705211E+00  0.62544253143E+00 -0.81012419571E+00  0.10875818767E+01  0.10566000000E+00 0.  1.
        -13    1    4    4    0    0  0.36023029415E+01  0.85567620549E+01 -0.15745716027E+02  0.18279318931E+02  0.10566000000E+00 0.  1.
         14    1    4    4    0    0  0.99253324890E+01  0.21595523169E+02 -0.37326653597E+02  0.44251078119E+02  0.00000000000E+00 0. -1.
<mgrwt>
<rscale>  0 0.79542541E+02</rscale>
<asrwt>0</asrwt>
<pdfrwt beam="1">  1        2 0.11830914E-01 0.79542541E+02</pdfrwt>
<pdfrwt beam="2">  1       -1 0.31644185E-02 0.79542541E+02</pdfrwt>
<totfact> 0.16786051E+05</totfact>
</mgrwt>
</event>
<event>
 8    1  0.2389776E-024  0.7994000E+02  0.7818608E-02  0.1329222E+00
          2   -1    0    0  501    0  0.00000000000E+00  0.00000000000E+00  0.25191009940E+03  0.25191009941E+03  0.25500000000E-02 0. -1.
         -1   -1    0    0    0  501 -0.00000000000E+00 -0.00000000000E+00 -0.63419469880E+01  0.63419489907E+01  0.50400000000E-02 0.  1.
         24    2    1    2    0    0  0.00000000000E+00 -0.35527136788E-14  0.24556815241E+03  0.25825204840E+03  0.79939996407E+02 0.  0.
         66    2    3    3    0    0  0.23931541610E+02 -0.31895060557E+02  0.13049350568E+03  0.13646453239E+03  0.20000011538E+01 0.  0.
        -13    1    3    3    0    0 -0.23931541610E+02  0.31895060557E+02  0.11507464673E+03  0.12178751601E+03  0.10566000000E+00 0.  1.
         13    1    4    4    0    0  0.10767811838E+02 -0.14733339819E+02  0.60369891249E+02  0.63067836553E+02  0.10566000000E+00 0. -1.
        -13    1    4    4    0    0  0.83666153039E+01 -0.10139023620E+02  0.44223094029E+02  0.46135596465E+02  0.10566000000E+00 0.  1.
        -14    1    4    4    0    0  0.47971144681E+01 -0.70226971177E+01  0.25900520401E+02  0.27261099374E+02  0.00000000000E+00 0.  1.
<mgrwt>
<rscale>  0 0.79939996E+02</rscale>
<asrwt>0</asrwt>
<pdfrwt beam="1">  1        2 0.38755402E-01 0.79939996E+02</pdfrwt>
<pdfrwt beam="2">  1       -1 0.97568425E-03 0.79939996E+02</pdfrwt>
<totfact> 0.23980803E+05</totfact>
</mgrwt>
</event>
<event>
 8    1  0.2389776E-024  0.8014433E+02  0.7818608E-02  0.1328642E+00
         -1   -1    0    0    0  501 -0.00000000000E+00  0.00000000000E+00  0.42057932049E+02  0.42057932351E+02  0.50400000000E-02 0.  1.
          2   -1    0    0  501    0  0.00000000000E+00 -0.00000000000E+00 -0.38180159142E+02  0.38180159227E+02  0.25500000000E-02 0. -1.
         24    2    1    2    0    0  0.00000000000E+00  0.88817841970E-15  0.38777729072E+01  0.80238091578E+02  0.80144333658E+02 0.  0.
         66    2    3    3    0    0  0.34136628768E+02 -0.70796028172E+01 -0.17789393509E+02  0.39190467235E+02  0.20000002365E+01 0.  0.
        -13    1    3    3    0    0 -0.34136628768E+02  0.70796028172E+01  0.21667166416E+02  0.41047624344E+02  0.10566000000E+00 0.  1.
         13    1    4    4    0    0  0.47096166757E+01 -0.56443942272E+00 -0.27355452012E+01  0.54766278564E+01  0.10566000000E+00 0.  1.
        -13    1    4    4    0    0  0.11353004080E+02 -0.22593444422E+01 -0.51593176630E+01  0.12673794291E+02  0.10566000000E+00 0. -1.
         14    1    4    4    0    0  0.18074008012E+02 -0.42558189522E+01 -0.98945306450E+01  0.21040045087E+02  0.00000000000E+00 0. -1.
<mgrwt>
<rscale>  0 0.80144334E+02</rscale>
<asrwt>0</asrwt>
<pdfrwt beam="1">  1        2 0.58738706E-02 0.80144334E+02</pdfrwt>
<pdfrwt beam="2">  1       -1 0.64704511E-02 0.80144334E+02</pdfrwt>
<totfact> 0.14049714E+05</totfact>
</mgrwt>
</event>
<event>
 8    1  0.2389776E-024  0.7966242E+02  0.7818608E-02  0.1330012E+00
          2   -1    0    0  501    0  0.00000000000E+00  0.00000000000E+00  0.19407810382E+03  0.19407810384E+03  0.25500000000E-02 0. -1.
         -1   -1    0    0    0  501 -0.00000000000E+00 -0.00000000000E+00 -0.81746741398E+01  0.81746756934E+01  0.50400000000E-02 0.  1.
         24    2    1    2    0    0  0.00000000000E+00  0.00000000000E+00  0.18590342968E+03  0.20225277953E+03  0.79662423143E+02 0.  0.
         66    2    3    3    0    0  0.18887977116E+02 -0.20022183417E+01  0.18182556203E+03  0.18282587225E+03  0.19999998495E+01 0.  0.
        -13    1    3    3    0    0 -0.18887977116E+02  0.20022183417E+01  0.40778676517E+01  0.19426907280E+02  0.10566000000E+00 0.  1.
         13    1    4    4    0    0  0.63986704361E+01 -0.13360555603E+01  0.67145667831E+02  0.67463174401E+02  0.10566000000E+00 0. -1.
        -13    1    4    4    0    0  0.71165893216E+00  0.10635719515E+00  0.61198044958E+01  0.61628679518E+01  0.10566000000E+00 0.  1.
         14    1    4    4    0    0  0.11777647748E+02 -0.77251997652E+00  0.10856008971E+03  0.10919982990E+03  0.00000000000E+00 0. -1.
<mgrwt>
<rscale>  0 0.79662423E+02</rscale>
<asrwt>0</asrwt>
<pdfrwt beam="1">  1        2 0.29858169E-01 0.79662423E+02</pdfrwt>
<pdfrwt beam="2">  1       -1 0.12576424E-02 0.79662423E+02</pdfrwt>
<totfact> 0.22075200E+05</totfact>
</mgrwt>
</event>
<event>
 8    1  0.2389776E-024  0.7467505E+02  0.7818608E-02  0.1344880E+00
          2   -1    0    0  501    0  0.00000000000E+00  0.00000000000E+00  0.55645126944E+02  0.55645127002E+02  0.25500000000E-02 0. -1.
         -1   -1    0    0    0  501 -0.00000000000E+00 -0.00000000000E+00 -0.25053243074E+02  0.25053243581E+02  0.50400000000E-02 0.  1.
         24    2    1    2    0    0  0.00000000000E+00 -0.35527136788E-14  0.30591883870E+02  0.80698370583E+02  0.74675053773E+02 0.  0.
         66    2    3    3    0    0  0.26261922899E+02  0.20865423786E+02  0.32966061670E+02  0.47072452181E+02  0.20000070503E+01 0.  0.
        -13    1    3    3    0    0 -0.26261922899E+02 -0.20865423786E+02 -0.23741777996E+01  0.33625918402E+02  0.10566000000E+00 0.  1.
         13    1    4    4    0    0  0.10680893311E+02  0.89189411279E+01  0.12924814455E+02  0.18991866299E+02  0.10566000000E+00 0. -1.
        -13    1    4    4    0    0  0.56315368814E+01  0.50025942774E+01  0.74559013963E+01  0.10599140853E+02  0.10566000000E+00 0.  1.
        -14    1    4    4    0    0  0.99494927069E+01  0.69438883806E+01  0.12585345818E+02  0.17481445030E+02  0.00000000000E+00 0.  1.
<mgrwt>
<rscale>  0 0.74675054E+02</rscale>
<asrwt>0</asrwt>
<pdfrwt beam="1">  1        2 0.85607888E-02 0.74675054E+02</pdfrwt>
<pdfrwt beam="2">  1       -1 0.38543451E-02 0.74675054E+02</pdfrwt>
<totfact> 0.18446663E+05</totfact>
</mgrwt>
</event>
<event>
 8    1  0.2389776E-024  0.7635766E+02  0.7818608E-02  0.1339718E+00
          2   -1    0    0  501    0  0.00000000000E+00  0.00000000000E+00  0.16847194057E+02  0.16847194250E+02  0.25500000000E-02 0. -1.
         -1   -1    0    0    0  501 -0.00000000000E+00 -0.00000000000E+00 -0.86520219537E+02  0.86520219683E+02  0.50400000000E-02 0.  1.
         24    2    1    2    0    0  0.00000000000E+00 -0.35527136788E-14 -0.69673025480E+02  0.10336741393E+03  0.76357657007E+02 0.  0.
         66    2    3    3    0    0  0.31306095734E+01  0.19720870506E+02  0.91494094868E+01  0.22055047912E+02  0.19999986517E+01 0.  0.
        -13    1    3    3    0    0 -0.31306095734E+01 -0.19720870506E+02 -0.78822434967E+02  0.81312366021E+02  0.10566000000E+00 0.  1.
         13    1    4    4    0    0  0.20238506452E+01  0.15163283367E+02  0.72333022838E+01  0.16921966784E+02  0.10566000000E+00 0. -1.
        -13    1    4    4    0    0  0.11382691123E+01  0.32665947144E+01  0.15402648349E+01  0.37881232025E+01  0.10566000000E+00 0.  1.
         14    1    4    4    0    0 -0.31510184063E-01  0.12909924252E+01  0.37584236808E+00  0.13449579247E+01  0.00000000000E+00 0. -1.
<mgrwt>
<rscale>  0 0.76357657E+02</rscale>
<asrwt>0</asrwt>
<pdfrwt beam="1">  1        2 0.25918761E-02 0.76357657E+02</pdfrwt>
<pdfrwt beam="2">  1       -1 0.13310803E-01 0.76357657E+02</pdfrwt>
<totfact> 0.13714051E+05</totfact>
</mgrwt>
</event>
<event>
 8    1  0.2389776E-024  0.8507559E+02  0.7818608E-02  0.1315235E+00
         -1   -1    0    0    0  501 -0.00000000000E+00  0.00000000000E+00  0.13558807794E+03  0.13558807803E+03  0.50400000000E-02 0.  1.
          2   -1    0    0  501    0  0.00000000000E+00 -0.00000000000E+00 -0.13345301886E+02  0.13345302130E+02  0.25500000000E-02 0. -1.
         24    2    1    2    0    0  0.71054273576E-14  0.00000000000E+00  0.12224277605E+03  0.14893338016E+03  0.85075586564E+02 0.  0.
         66    2    3    3    0    0  0.31199485819E+02 -0.23547626494E+02  0.31884935055E+02  0.50483142870E+02  0.20000004376E+01 0.  0.
        -13    1    3    3    0    0 -0.31199485819E+02  0.23547626494E+02  0.90357840996E+02  0.98450237290E+02  0.10566000000E+00 0.  1.
         13    1    4    4    0    0  0.11599783550E+02 -0.79663093602E+01  0.11270544257E+02  0.18029237231E+02  0.10566000000E+00 0. -1.
        -13    1    4    4    0    0  0.17014970991E+02 -0.13395902068E+02  0.18313015264E+02  0.28360837825E+02  0.10566000000E+00 0.  1.
        -14    1    4    4    0    0  0.25847312773E+01 -0.21854150663E+01  0.23013755334E+01  0.40930678144E+01  0.00000000000E+00 0.  1.
<mgrwt>
<rscale>  0 0.85075587E+02</rscale>
<asrwt>0</asrwt>
<pdfrwt beam="1">  1        2 0.20531235E-02 0.85075587E+02</pdfrwt>
<pdfrwt beam="2">  1       -1 0.20859703E-01 0.85075587E+02</pdfrwt>
<totfact> 0.94725783E+04</totfact>
</mgrwt>
</event>
<event>
 8    1  0.2389776E-024  0.7886460E+02  0.7818608E-02  0.1332305E+00
          2   -1    0    0  501    0  0.00000000000E+00  0.00000000000E+00  0.13746608965E+03  0.13746608967E+03  0.25500000000E-02 0. -1.
         -1   -1    0    0    0  501 -0.00000000000E+00 -0.00000000000E+00 -0.11311198700E+02  0.11311199823E+02  0.50400000000E-02 0.  1.
         24    2    1    2    0    0  0.00000000000E+00 -0.44408920985E-15  0.12615489095E+03  0.14877728950E+03  0.78864601434E+02 0.  0.
         66    2    3    3    0    0  0.14226102093E+02  0.36493329844E+01  0.13210263444E+03  0.13293158255E+03  0.20000000251E+01 0.  0.
        -13    1    3    3    0    0 -0.14226102093E+02 -0.36493329844E+01 -0.59477434933E+01  0.15845706948E+02  0.10566000000E+00 0.  1.
         13    1    4    4    0    0  0.88182417252E+01  0.22826830455E+01  0.81462590871E+02  0.81970341615E+02  0.10566000000E+00 0. -1.
        -13    1    4    4    0    0  0.11739219351E+01  0.77993966047E+00  0.14750187119E+02  0.14817745532E+02  0.10566000000E+00 0.  1.
         14    1    4    4    0    0  0.42339384323E+01  0.58671027843E+00  0.35889856452E+02  0.36143495400E+02  0.00000000000E+00 0. -1.
<mgrwt>
<rscale>  0 0.78864601E+02</rscale>
<asrwt>0</asrwt>
<pdfrwt beam="1">  1        2 0.21148631E-01 0.78864601E+02</pdfrwt>
<pdfrwt beam="2">  1       -1 0.17401844E-02 0.78864601E+02</pdfrwt>
<totfact> 0.20235787E+05</totfact>
</mgrwt>
</event>
<event>
 8    1  0.2389776E-024  0.7912349E+02  0.7818608E-02  0.1331557E+00
         -1   -1    0    0    0  501 -0.00000000000E+00  0.00000000000E+00  0.81801459610E+02  0.81801459765E+02  0.50400000000E-02 0.  1.
          2   -1    0    0  501    0  0.00000000000E+00 -0.00000000000E+00 -0.19133296589E+02  0.19133296759E+02  0.25500000000E-02 0. -1.
         24    2    1    2    0    0  0.00000000000E+00  0.00000000000E+00  0.62668163022E+02  0.10093475652E+03  0.79123488409E+02 0.  0.
         66    2    3    3    0    0 -0.22548894524E+02  0.32397655530E+02  0.34225259860E+02  0.52282206412E+02  0.19999916819E+01 0.  0.
        -13    1    3    3    0    0  0.22548894524E+02 -0.32397655530E+02  0.28442903162E+02  0.48652550112E+02  0.10566000000E+00 0.  1.
         13    1    4    4    0    0 -0.54199735321E+01  0.81584553590E+01  0.81130144799E+01  0.12718831508E+02  0.10566000000E+00 0.  1.
        -13    1    4    4    0    0 -0.14809582377E+01  0.15037840906E+01  0.16129835777E+01  0.26584739891E+01  0.10566000000E+00 0. -1.
         14    1    4    4    0    0 -0.15647962755E+02  0.22735416080E+02  0.24499261802E+02  0.36904900915E+02  0.00000000000E+00 0. -1.
<mgrwt>
<rscale>  0 0.79123488E+02</rscale>
<asrwt>0</asrwt>
<pdfrwt beam="1">  1        2 0.29435841E-02 0.79123488E+02</pdfrwt>
<pdfrwt beam="2">  1       -1 0.12584840E-01 0.79123488E+02</pdfrwt>
<totfact> 0.12700830E+05</totfact>
</mgrwt>
</event>
<event>
 8    1  0.2389776E-024  0.8003533E+02  0.7818608E-02  0.1328951E+00
          2   -1    0    0  501    0  0.00000000000E+00  0.00000000000E+00  0.73363672122E+03  0.73363672123E+03  0.25500000000E-02 0. -1.
         -1   -1    0    0    0  501 -0.00000000000E+00 -0.00000000000E+00 -0.21828398350E+01  0.21828456535E+01  0.50400000000E-02 0.  1.
         24    2    1    2    0    0  0.00000000000E+00  0.00000000000E+00  0.73145388139E+03  0.73581956688E+03  0.80035332243E+02 0.  0.
         66    2    3    3    0    0  0.28483849501E+02 -0.57927353825E+01  0.61849217957E+03  0.61917805323E+03  0.19999860755E+01 0.  0.
        -13    1    3    3    0    0 -0.28483849501E+02  0.57927353825E+01  0.11296170182E+03  0.11664151366E+03  0.10566000000E+00 0.  1.
         13    1    4    4    0    0  0.10426642484E+02 -0.23805187774E+01  0.23988288747E+03  0.24012120399E+03  0.10566000000E+00 0. -1.
        -13    1    4    4    0    0  0.77965960089E+01 -0.99516824265E+00  0.15482240264E+03  0.15502182038E+03  0.10566000000E+00 0.  1.
        -14    1    4    4    0    0  0.10260611009E+02 -0.24170483625E+01  0.22378688946E+03  0.22403502886E+03  0.00000000000E+00 0.  1.
<mgrwt>
<rscale>  0 0.80035332E+02</rscale>
<asrwt>0</asrwt>
<pdfrwt beam="1">  1        2 0.11286717E+00 0.80035332E+02</pdfrwt>
<pdfrwt beam="2">  1       -1 0.33582201E-03 0.80035332E+02</pdfrwt>
<totfact> 0.33759952E+05</totfact>
</mgrwt>
</event>
<event>
 8    1  0.2389776E-024  0.8025948E+02  0.7818608E-02  0.1328317E+00
         -1   -1    0    0    0  501 -0.00000000000E+00  0.00000000000E+00  0.16243891467E+01  0.16243969655E+01  0.50400000000E-02 0.  1.
          2   -1    0    0  501    0  0.00000000000E+00 -0.00000000000E+00 -0.99138316093E+03  0.99138316094E+03  0.25500000000E-02 0. -1.
         24    2    1    2    0    0  0.35527136788E-14  0.00000000000E+00 -0.98975877179E+03  0.99300755790E+03  0.80259477461E+02 0.  0.
         66    2    3    3    0    0 -0.23639185295E+02 -0.10189702750E+01 -0.89582098649E+03  0.89613564219E+03  0.19999998290E+01 0.  0.
        -13    1    3    3    0    0  0.23639185295E+02  0.10189702750E+01 -0.93937785300E+02  0.96871915708E+02  0.10566000000E+00 0.  1.
         13    1    4    4    0    0 -0.59381658382E+01 -0.89468797572E+00 -0.23218049636E+03  0.23225816742E+03  0.10566000000E+00 0. -1.
        -13    1    4    4    0    0 -0.35293022977E+01  0.15955590196E+00 -0.14798793677E+03  0.14803013891E+03  0.10566000000E+00 0.  1.
         14    1    4    4    0    0 -0.14171717159E+02 -0.28383820126E+00 -0.51565255336E+03  0.51584733586E+03  0.00000000000E+00 0. -1.
<mgrwt>
<rscale>  0 0.80259477E+02</rscale>
<asrwt>0</asrwt>
<pdfrwt beam="1">  1        2 0.15252000E+00 0.80259477E+02</pdfrwt>
<pdfrwt beam="2">  1       -1 0.24990742E-03 0.80259477E+02</pdfrwt>
<totfact> 0.34922603E+05</totfact>
</mgrwt>
</event>
<event>
 8    1  0.2389776E-024  0.7921063E+02  0.7818608E-02  0.1331307E+00
          2   -1    0    0  501    0  0.00000000000E+00  0.00000000000E+00  0.26300524122E+02  0.26300524246E+02  0.25500000000E-02 0. -1.
         -1   -1    0    0    0  501 -0.00000000000E+00 -0.00000000000E+00 -0.59640678002E+02  0.59640678214E+02  0.50400000000E-02 0.  1.
         24    2    1    2    0    0  0.00000000000E+00  0.00000000000E+00 -0.33340153879E+02  0.85941202461E+02  0.79210633249E+02 0.  0.
         66    2    3    3    0    0 -0.37985549529E+02  0.49560620853E+01 -0.58792698512E+01  0.38807606799E+02  0.20000017671E+01 0.  0.
        -13    1    3    3    0    0  0.37985549529E+02 -0.49560620853E+01 -0.27460884028E+02  0.47133595662E+02  0.10566000000E+00 0.  1.
         13    1    4    4    0    0 -0.99297055256E+01  0.17191547366E+01 -0.12551278349E+01  0.10155838456E+02  0.10566000000E+00 0. -1.
        -13    1    4    4    0    0 -0.24170029297E+02  0.23228901722E+01 -0.41080528555E+01  0.24626680598E+02  0.10566000000E+00 0.  1.
        -14    1    4    4    0    0 -0.38858147060E+01  0.91401717650E+00 -0.51608916084E+00  0.40250877444E+01  0.00000000000E+00 0.  1.
<mgrwt>
<rscale>  0 0.79210633E+02</rscale>
<asrwt>0</asrwt>
<pdfrwt beam="1">  1        2 0.40462345E-02 0.79210633E+02</pdfrwt>
<pdfrwt beam="2">  1       -1 0.91754889E-02 0.79210633E+02</pdfrwt>
<totfact> 0.13482743E+05</totfact>
</mgrwt>
</event>
<event>
 8    1  0.2389776E-024  0.7594153E+02  0.7818608E-02  0.1340980E+00
         -1   -1    0    0    0  501 -0.00000000000E+00  0.00000000000E+00  0.14971760370E+02  0.14971761218E+02  0.50400000000E-02 0.  1.
          2   -1    0    0  501    0  0.00000000000E+00 -0.00000000000E+00 -0.96299889476E+02  0.96299889510E+02  0.25500000000E-02 0. -1.
         24    2    1    2    0    0  0.35527136788E-14  0.35527136788E-14 -0.81328129106E+02  0.11127165073E+03  0.75941527979E+02 0.  0.
         66    2    3    3    0    0  0.26638241106E+02  0.23101419268E+02 -0.20152716324E+02  0.40662063882E+02  0.20000006242E+01 0.  0.
        -13    1    3    3    0    0 -0.26638241106E+02 -0.23101419268E+02 -0.61175412782E+02  0.70609586846E+02  0.10566000000E+00 0.  1.
         13    1    4    4    0    0  0.79478031017E+01  0.68672197223E+01 -0.61749224721E+01  0.12184708139E+02  0.10566000000E+00 0. -1.
        -13    1    4    4    0    0  0.17712799314E+02  0.15486411019E+02 -0.12853734399E+02  0.26810480000E+02  0.10566000000E+00 0.  1.
        -14    1    4    4    0    0  0.97763869011E+00  0.74778852586E+00 -0.11240594532E+01  0.16668757429E+01  0.00000000000E+00 0.  1.
<mgrwt>
<rscale>  0 0.75941528E+02</rscale>
<asrwt>0</asrwt>
<pdfrwt beam="1">  1        2 0.14815367E-01 0.75941528E+02</pdfrwt>
<pdfrwt beam="2">  1       -1 0.23033479E-02 0.75941528E+02</pdfrwt>
<totfact> 0.20160427E+05</totfact>
</mgrwt>
</event>
<event>
 8    1  0.2389776E-024  0.8073457E+02  0.7818608E-02  0.1326980E+00
         -1   -1    0    0    0  501 -0.00000000000E+00  0.00000000000E+00  0.32696860777E+01  0.32696899621E+01  0.50400000000E-02 0.  1.
          2   -1    0    0  501    0  0.00000000000E+00 -0.00000000000E+00 -0.49837101526E+03  0.49837101527E+03  0.25500000000E-02 0. -1.
         24    2    1    2    0    0  0.00000000000E+00  0.00000000000E+00 -0.49510132918E+03  0.50164070523E+03  0.80734571184E+02 0.  0.
         66    2    3    3    0    0 -0.22947145116E+02  0.27887318714E+02 -0.35941289895E+03  0.36122832943E+03  0.20000095887E+01 0.  0.
        -13    1    3    3    0    0  0.22947145116E+02 -0.27887318714E+02 -0.13568843023E+03  0.14041237580E+03  0.10566000000E+00 0.  1.
         13    1    4    4    0    0 -0.15893151613E+02  0.19156836806E+02 -0.24968524924E+03  0.25092291947E+03  0.10566000000E+00 0. -1.
        -13    1    4    4    0    0 -0.60445762575E+01  0.68690065648E+01 -0.90583486497E+02  0.91044491010E+02  0.10566000000E+00 0.  1.
        -14    1    4    4    0    0 -0.10094172453E+01  0.18614753423E+01 -0.19144163214E+02  0.19260918950E+02  0.00000000000E+00 0.  1.
<mgrwt>
<rscale>  0 0.80734571E+02</rscale>
<asrwt>0</asrwt>
<pdfrwt beam="1">  1        2 0.76672404E-01 0.80734571E+02</pdfrwt>
<pdfrwt beam="2">  1       -1 0.50302932E-03 0.80734571E+02</pdfrwt>
<totfact> 0.29703237E+05</totfact>
</mgrwt>
</event>
<event>
 8    1  0.2389776E-024  0.7813035E+02  0.7818608E-02  0.1334443E+00
         -1   -1    0    0    0  501 -0.00000000000E+00  0.00000000000E+00  0.12399287800E+01  0.12399390231E+01  0.50400000000E-02 0.  1.
          2   -1    0    0  501    0  0.00000000000E+00 -0.00000000000E+00 -0.12307815864E+04  0.12307815864E+04  0.25500000000E-02 0. -1.
         24    2    1    2    0    0  0.35527136788E-14 -0.17763568394E-14 -0.12295416576E+04  0.12320215254E+04  0.78130348069E+02 0.  0.
         66    2    3    3    0    0 -0.18462973853E+02  0.80315018856E+01 -0.11425902081E+04  0.11427693425E+04  0.19999994802E+01 0.  0.
        -13    1    3    3    0    0  0.18462973853E+02 -0.80315018856E+01 -0.86951449481E+02  0.89252182925E+02  0.10566000000E+00 0.  1.
         13    1    4    4    0    0 -0.98424637992E+01  0.48818303994E+01 -0.60792033425E+03  0.60801961343E+03  0.10566000000E+00 0. -1.
        -13    1    4    4    0    0 -0.79450475724E+01  0.25901509196E+01 -0.47755747019E+03  0.47763059069E+03  0.10566000000E+00 0.  1.
         14    1    4    4    0    0 -0.67546248142E+00  0.55952056656E+00 -0.57112403666E+02  0.57119138346E+02  0.00000000000E+00 0. -1.
<mgrwt>
<rscale>  0 0.78130348E+02</rscale>
<asrwt>0</asrwt>
<pdfrwt beam="1">  1        2 0.18935004E+00 0.78130348E+02</pdfrwt>
<pdfrwt beam="2">  1       -1 0.19076005E-03 0.78130348E+02</pdfrwt>
<totfact> 0.37138394E+05</totfact>
</mgrwt>
</event>
<event>
 8    1  0.2389776E-024  0.7999010E+02  0.7818608E-02  0.1329080E+00
          2   -1    0    0  501    0  0.00000000000E+00  0.00000000000E+00  0.46713708914E+02  0.46713708984E+02  0.25500000000E-02 0. -1.
         -1   -1    0    0    0  501 -0.00000000000E+00 -0.00000000000E+00 -0.34242707771E+02  0.34242708142E+02  0.50400000000E-02 0.  1.
         24    2    1    2    0    0  0.00000000000E+00  0.00000000000E+00  0.12471001143E+02  0.80956417126E+02  0.79990096915E+02 0.  0.
         66    2    3    3    0    0  0.22122819909E+02 -0.30035495833E+01  0.39793458276E+02  0.45672308824E+02  0.20000002376E+01 0.  0.
        -13    1    3    3    0    0 -0.22122819909E+02  0.30035495833E+01 -0.27322457133E+02  0.35284108302E+02  0.10566000000E+00 0.  1.
         13    1    4    4    0    0  0.11865552402E+02 -0.71315837192E+00  0.21265829103E+02  0.24362811417E+02  0.10566000000E+00 0.  1.
        -13    1    4    4    0    0  0.35068935203E+01 -0.71949626173E+00  0.57827635690E+01  0.68020214322E+01  0.10566000000E+00 0. -1.
        -14    1    4    4    0    0  0.67503739870E+01 -0.15708949496E+01  0.12744865604E+02  0.14507475975E+02  0.00000000000E+00 0.  1.
<mgrwt>
<rscale>  0 0.79990097E+02</rscale>
<asrwt>0</asrwt>
<pdfrwt beam="1">  1        2 0.71867244E-02 0.79990097E+02</pdfrwt>
<pdfrwt beam="2">  1       -1 0.52681089E-02 0.79990097E+02</pdfrwt>
<totfact> 0.14730653E+05</totfact>
</mgrwt>
</event>
<event>
 8    1  0.2389776E-024  0.8268958E+02  0.7818608E-02  0.1321588E+00
          2   -1    0    0  501    0  0.00000000000E+00  0.00000000000E+00  0.10651014444E+03  0.10651014447E+03  0.25500000000E-02 0. -1.
         -1   -1    0    0    0  501 -0.00000000000E+00 -0.00000000000E+00 -0.16049098190E+02  0.16049098982E+02  0.50400000000E-02 0.  1.
         24    2    1    2    0    0  0.00000000000E+00  0.00000000000E+00  0.90461046249E+02  0.12255924345E+03  0.82689583788E+02 0.  0.
         66    2    3    3    0    0  0.36402973821E+02  0.17381823697E+02  0.31993226453E+02  0.51525438726E+02  0.19999997702E+01 0.  0.
        -13    1    3    3    0    0 -0.36402973821E+02 -0.17381823697E+02  0.58467819796E+02  0.71033804725E+02  0.10566000000E+00 0.  1.
         13    1    4    4    0    0  0.26371112689E+02  0.12460398142E+02  0.23256773721E+02  0.37303964860E+02  0.10566000000E+00 0. -1.
        -13    1    4    4    0    0  0.60789280545E+01  0.35245944540E+01  0.55855754935E+01  0.89769677501E+01  0.10566000000E+00 0.  1.
         14    1    4    4    0    0  0.39529330769E+01  0.13968311009E+01  0.31508772384E+01  0.52445061165E+01  0.00000000000E+00 0. -1.
<mgrwt>
<rscale>  0 0.82689584E+02</rscale>
<asrwt>0</asrwt>
<pdfrwt beam="1">  1        2 0.16386176E-01 0.82689584E+02</pdfrwt>
<pdfrwt beam="2">  1       -1 0.24690921E-02 0.82689584E+02</pdfrwt>
<totfact> 0.16515090E+05</totfact>
</mgrwt>
</event>
<event>
 8    1  0.2389776E-024  0.7615777E+02  0.7818608E-02  0.1340323E+00
         -1   -1    0    0    0  501 -0.00000000000E+00  0.00000000000E+00  0.34583436289E+02  0.34583436656E+02  0.50400000000E-02 0.  1.
          2   -1    0    0  501    0  0.00000000000E+00 -0.00000000000E+00 -0.41927629672E+02  0.41927629749E+02  0.25500000000E-02 0. -1.
         24    2    1    2    0    0  0.35527136788E-14  0.00000000000E+00 -0.73441933828E+01  0.76511066406E+02  0.76157771147E+02 0.  0.
         66    2    3    3    0    0  0.24903806621E+02 -0.62102182292E+01 -0.31898188306E+02  0.40990984404E+02  0.19999976378E+01 0.  0.
        -13    1    3    3    0    0 -0.24903806621E+02  0.62102182292E+01  0.24553994923E+02  0.35520082001E+02  0.10566000000E+00 0.  1.
         13    1    4    4    0    0  0.52528381800E+01 -0.97889045815E+00 -0.76527532257E+01  0.93341486727E+01  0.10566000000E+00 0. -1.
        -13    1    4    4    0    0  0.15199341329E+02 -0.39558903588E+01 -0.19270122374E+02  0.24859964314E+02  0.10566000000E+00 0.  1.
        -14    1    4    4    0    0  0.44516271116E+01 -0.12754374122E+01 -0.49753127065E+01  0.67968714171E+01  0.00000000000E+00 0.  1.
<mgrwt>
<rscale>  0 0.76157771E+02</rscale>
<asrwt>0</asrwt>
<pdfrwt beam="1">  1        2 0.64504046E-02 0.76157771E+02</pdfrwt>
<pdfrwt beam="2">  1       -1 0.53205287E-02 0.76157771E+02</pdfrwt>
<totfact> 0.16479678E+05</totfact>
</mgrwt>
</event>
<event>
 8    1  0.2389776E-024  0.7772201E+02  0.7818608E-02  0.1335643E+00
         -1   -1    0    0    0  501 -0.00000000000E+00  0.00000000000E+00  0.27696290843E+01  0.27696336701E+01  0.50400000000E-02 0.  1.
          2   -1    0    0  501    0  0.00000000000E+00 -0.00000000000E+00 -0.54526309194E+03  0.54526309195E+03  0.25500000000E-02 0. -1.
         24    2    1    2    0    0  0.88817841970E-15 -0.35527136788E-14 -0.54249346286E+03  0.54803272562E+03  0.77722011715E+02 0.  0.
         66    2    3    3    0    0  0.57208687927E+01  0.30359964635E+02 -0.43734877397E+03  0.43844316153E+03  0.20000010465E+01 0.  0.
        -13    1    3    3    0    0 -0.57208687927E+01 -0.30359964635E+02 -0.10514468889E+03  0.10958956409E+03  0.10566000000E+00 0.  1.
         13    1    4    4    0    0  0.75888355825E+00  0.60943093176E+01 -0.77877891190E+02  0.78119738931E+02  0.10566000000E+00 0. -1.
        -13    1    4    4    0    0  0.89753850189E+00  0.37318835592E+01 -0.55331415040E+02  0.55464485796E+02  0.10566000000E+00 0.  1.
         14    1    4    4    0    0  0.40644467326E+01  0.20533771758E+02 -0.30413946774E+03  0.30485893680E+03  0.00000000000E+00 0. -1.
<mgrwt>
<rscale>  0 0.77722012E+02</rscale>
<asrwt>0</asrwt>
<pdfrwt beam="1">  1        2 0.83886544E-01 0.77722012E+02</pdfrwt>
<pdfrwt beam="2">  1       -1 0.42609757E-03 0.77722012E+02</pdfrwt>
<totfact> 0.33721835E+05</totfact>
</mgrwt>
</event>
<event>
 8    1  0.2389776E-024  0.7828560E+02  0.7818608E-02  0.1333988E+00
         -1   -1    0    0    0  501 -0.00000000000E+00  0.00000000000E+00  0.48615551450E+01  0.48615577575E+01  0.50400000000E-02 0.  1.
          2   -1    0    0  501    0  0.00000000000E+00 -0.00000000000E+00 -0.31515808841E+03  0.31515808842E+03  0.25500000000E-02 0. -1.
         24    2    1    2    0    0  0.71054273576E-14  0.00000000000E+00 -0.31029653326E+03  0.32001964617E+03  0.78285601380E+02 0.  0.
         66    2    3    3    0    0  0.37108065930E+02 -0.70521765708E+01 -0.19681929609E+03  0.20042099956E+03  0.20000001566E+01 0.  0.
        -13    1    3    3    0    0 -0.37108065930E+02  0.70521765708E+01 -0.11347723718E+03  0.11959864662E+03  0.10566000000E+00 0.  1.
         13    1    4    4    0    0  0.61736654454E+01 -0.83630287799E+00 -0.29606032801E+02  0.30254617661E+02  0.10566000000E+00 0.  1.
        -13    1    4    4    0    0  0.14858939148E+02 -0.29055185511E+01 -0.77985293222E+02  0.79441470490E+02  0.10566000000E+00 0. -1.
        -14    1    4    4    0    0  0.16075461336E+02 -0.33103551417E+01 -0.89227970062E+02  0.90724911407E+02  0.00000000000E+00 0.  1.
<mgrwt>
<rscale>  0 0.78285601E+02</rscale>
<asrwt>0</asrwt>
<pdfrwt beam="1">  1        2 0.48485844E-01 0.78285601E+02</pdfrwt>
<pdfrwt beam="2">  1       -1 0.74793201E-03 0.78285601E+02</pdfrwt>
<totfact> 0.27466994E+05</totfact>
</mgrwt>
</event>
<event>
 8    1  0.2389776E-024  0.7996660E+02  0.7818608E-02  0.1329146E+00
         -1   -1    0    0    0  501 -0.00000000000E+00  0.00000000000E+00  0.10128710810E+02  0.10128712064E+02  0.50400000000E-02 0.  1.
          2   -1    0    0  501    0  0.00000000000E+00 -0.00000000000E+00 -0.15783492392E+03  0.15783492394E+03  0.25500000000E-02 0. -1.
         24    2    1    2    0    0  0.17763568394E-14 -0.88817841970E-15 -0.14770621311E+03  0.16796363600E+03  0.79966603207E+02 0.  0.
         66    2    3    3    0    0 -0.79332829830E+01  0.75223890618E+01 -0.15462581490E+03  0.15502472689E+03  0.19999993577E+01 0.  0.
        -13    1    3    3    0    0  0.79332829830E+01 -0.75223890618E+01  0.69196017912E+01  0.12938909114E+02  0.10566000000E+00 0.  1.
         13    1    4    4    0    0 -0.16668496467E+01  0.14218047726E+01 -0.26609396805E+02  0.26699645671E+02  0.10566000000E+00 0. -1.
        -13    1    4    4    0    0 -0.78691917762E-01  0.22952277996E+00 -0.87643588891E+01  0.87683535454E+01  0.10566000000E+00 0.  1.
        -14    1    4    4    0    0 -0.61877414185E+01  0.58710615092E+01 -0.11925205920E+03  0.11955672767E+03  0.00000000000E+00 0.  1.
<mgrwt>
<rscale>  0 0.79966603E+02</rscale>
<asrwt>0</asrwt>
<pdfrwt beam="1">  1        2 0.24282294E-01 0.79966603E+02</pdfrwt>
<pdfrwt beam="2">  1       -1 0.15582634E-02 0.79966603E+02</pdfrwt>
<totfact> 0.20386338E+05</totfact>
</mgrwt>
</event>
<event>
 8    1  0.2389776E-024  0.8127823E+02  0.7818608E-02  0.1325463E+00
          2   -1    0    0  501    0  0.00000000000E+00  0.00000000000E+00  0.64455439064E+02  0.64455439115E+02  0.25500000000E-02 0. -1.
         -1   -1    0    0    0  501 -0.00000000000E+00 -0.00000000000E+00 -0.25622939430E+02  0.25622939926E+02  0.50400000000E-02 0.  1.
         24    2    1    2    0    0  0.00000000000E+00  0.00000000000E+00  0.38832499634E+02  0.90078379041E+02  0.81278234127E+02 0.  0.
         66    2    3    3    0    0  0.22320503958E+02 -0.13048750809E+01  0.57005176534E+02  0.61265795927E+02  0.20000007621E+01 0.  0.
        -13    1    3    3    0    0 -0.22320503958E+02  0.13048750809E+01 -0.18172676900E+02  0.28812583113E+02  0.10566000000E+00 0.  1.
         13    1    4    4    0    0  0.76634821469E+01 -0.13641869595E+00  0.19840297765E+02  0.21269606205E+02  0.10566000000E+00 0. -1.
        -13    1    4    4    0    0  0.12198191780E+02 -0.15116680898E+01  0.30483464569E+02  0.32868431652E+02  0.10566000000E+00 0.  1.
        -14    1    4    4    0    0  0.24588300304E+01  0.34321170483E+00  0.66814141998E+01  0.71277580698E+01  0.00000000000E+00 0.  1.
<mgrwt>
<rscale>  0 0.81278234E+02</rscale>
<asrwt>0</asrwt>
<pdfrwt beam="1">  1        2 0.99162213E-02 0.81278234E+02</pdfrwt>
<pdfrwt beam="2">  1       -1 0.39419908E-02 0.81278234E+02</pdfrwt>
<totfact> 0.15161924E+05</totfact>
</mgrwt>
</event>
<event>
 8    1  0.2389776E-024  0.7912141E+02  0.7818608E-02  0.1331563E+00
          2   -1    0    0  501    0  0.00000000000E+00  0.00000000000E+00  0.39856866274E+02  0.39856866355E+02  0.25500000000E-02 0. -1.
         -1   -1    0    0    0  501 -0.00000000000E+00 -0.00000000000E+00 -0.39266743399E+02  0.39266743723E+02  0.50400000000E-02 0.  1.
         24    2    1    2    0    0  0.35527136788E-14 -0.35527136788E-14  0.59012287412E+00  0.79123610078E+02  0.79121409408E+02 0.  0.
         66    2    3    3    0    0 -0.30901600743E+02  0.24416037816E+02  0.37583756494E+01  0.39612841662E+02  0.20000014828E+01 0.  0.
        -13    1    3    3    0    0  0.30901600743E+02 -0.24416037816E+02 -0.31682527753E+01  0.39510768416E+02  0.10566000000E+00 0.  1.
         13    1    4    4    0    0 -0.26402744617E+02  0.20134000639E+02  0.33610959380E+01  0.33373507981E+02  0.10566000000E+00 0. -1.
        -13    1    4    4    0    0 -0.37669055655E+01  0.35666573933E+01  0.17266913135E+00  0.51914931538E+01  0.10566000000E+00 0.  1.
         14    1    4    4    0    0 -0.73195056098E+00  0.71537978387E+00  0.22461058012E+00  0.10478405278E+01  0.00000000000E+00 0. -1.
<mgrwt>
<rscale>  0 0.79121409E+02</rscale>
<asrwt>0</asrwt>
<pdfrwt beam="1">  1        2 0.61318256E-02 0.79121409E+02</pdfrwt>
<pdfrwt beam="2">  1       -1 0.60410375E-02 0.79121409E+02</pdfrwt>
<totfact> 0.14686010E+05</totfact>
</mgrwt>
</event>
<event>
 8    1  0.3369572E-024  0.7897623E+02  0.7818608E-02  0.1331982E+00
         -1   -1    0    0    0  501 -0.00000000000E+00  0.00000000000E+00  0.36260093559E+01  0.36260128586E+01  0.50400000000E-02 0.  1.
          2   -1    0    0  501    0  0.00000000000E+00 -0.00000000000E+00 -0.43003486183E+03  0.43003486184E+03  0.25500000000E-02 0. -1.
         24    2    1    2    0    0  0.71054273576E-14 -0.17763568394E-14 -0.42640885247E+03  0.43366087470E+03  0.78976229170E+02 0.  0.
         66    2    3    3    0    0  0.32133044326E+02  0.91339625559E+01 -0.32869743565E+03  0.33039667978E+03  0.19999994933E+01 0.  0.
        -13    1    3    3    0    0 -0.32133044326E+02 -0.91339625559E+01 -0.97711416829E+02  0.10326419492E+03  0.10566000000E+00 0.  1.
         13    1    4    4    0    0  0.77041850676E+01  0.25598382264E+01 -0.76055673754E+02  0.76487802384E+02  0.10566000000E+00 0. -1.
        -13    1    4    4    0    0  0.90911327131E+00  0.40082817190E+00 -0.82089504689E+01  0.82695333605E+01  0.10566000000E+00 0. -1.
         14    1    4    4    0    0  0.23519745987E+02  0.61732961576E+01 -0.24443281142E+03  0.24563934403E+03  0.00000000000E+00 0. -1.
<mgrwt>
<rscale>  0 0.78976229E+02</rscale>
<asrwt>0</asrwt>
<pdfrwt beam="1">  1        2 0.66159169E-01 0.78976229E+02</pdfrwt>
<pdfrwt beam="2">  1       -1 0.55784821E-03 0.78976229E+02</pdfrwt>
<totfact> 0.29959600E+05</totfact>
</mgrwt>
</event>
<event>
 8    1  0.2389776E-024  0.7859161E+02  0.7818608E-02  0.1333096E+00
          2   -1    0    0  501    0  0.00000000000E+00  0.00000000000E+00  0.19618745007E+02  0.19618745173E+02  0.25500000000E-02 0. -1.
         -1   -1    0    0    0  501 -0.00000000000E+00 -0.00000000000E+00 -0.78708409565E+02  0.78708409727E+02  0.50400000000E-02 0.  1.
         24    2    1    2    0    0  0.35527136788E-14  0.17763568394E-14 -0.59089664558E+02  0.98327154900E+02  0.78591608541E+02 0.  0.
         66    2    3    3    0    0  0.18209267807E+02  0.85814700884E+01  0.12621796524E+02  0.23843842155E+02  0.19999995648E+01 0.  0.
        -13    1    3    3    0    0 -0.18209267807E+02 -0.85814700884E+01 -0.71711461082E+02  0.74483312745E+02  0.10566000000E+00 0.  1.
         13    1    4    4    0    0  0.12510901191E+02  0.50046219667E+01  0.84076502882E+01  0.15882966884E+02  0.10566000000E+00 0. -1.
        -13    1    4    4    0    0  0.23991020762E+01  0.14527845551E+01  0.14329254645E+01  0.31513034062E+01  0.10566000000E+00 0.  1.
         14    1    4    4    0    0  0.32992645394E+01  0.21240635666E+01  0.27812207714E+01  0.48095718640E+01  0.00000000000E+00 0. -1.
<mgrwt>
<rscale>  0 0.78591609E+02</rscale>
<asrwt>0</asrwt>
<pdfrwt beam="1">  1        2 0.30182685E-02 0.78591609E+02</pdfrwt>
<pdfrwt beam="2">  1       -1 0.12108986E-01 0.78591609E+02</pdfrwt>
<totfact> 0.13014363E+05</totfact>
</mgrwt>
</event>
<event>
 8    1  0.2389776E-024  0.8007364E+02  0.7818608E-02  0.1328843E+00
          2   -1    0    0  501    0  0.00000000000E+00  0.00000000000E+00  0.34256851577E+02  0.34256851672E+02  0.25500000000E-02 0. -1.
         -1   -1    0    0    0  501 -0.00000000000E+00 -0.00000000000E+00 -0.46792010164E+02  0.46792010436E+02  0.50400000000E-02 0.  1.
         24    2    1    2    0    0  0.00000000000E+00  0.35527136788E-14 -0.12535158588E+02  0.81048862107E+02  0.80073640157E+02 0.  0.
         66    2    3    3    0    0 -0.13639488807E+02 -0.15097724658E+02  0.28600478101E+02  0.35156284117E+02  0.20000051252E+01 0.  0.
        -13    1    3    3    0    0  0.13639488807E+02  0.15097724658E+02 -0.41135636689E+02  0.45892577990E+02  0.10566000000E+00 0.  1.
         13    1    4    4    0    0 -0.30257055130E+01 -0.29643628732E+01  0.48405050039E+01  0.64330392370E+01  0.10566000000E+00 0. -1.
        -13    1    4    4    0    0 -0.30821290379E+01 -0.40512717019E+01  0.73717424983E+01  0.89591335131E+01  0.10566000000E+00 0.  1.
        -14    1    4    4    0    0 -0.75316542558E+01 -0.80820900829E+01  0.16388230599E+02  0.19764111367E+02  0.00000000000E+00 0.  1.
<mgrwt>
<rscale>  0 0.80073640E+02</rscale>
<asrwt>0</asrwt>
<pdfrwt beam="1">  1        2 0.52702849E-02 0.80073640E+02</pdfrwt>
<pdfrwt beam="2">  1       -1 0.71987709E-02 0.80073640E+02</pdfrwt>
<totfact> 0.13779118E+05</totfact>
</mgrwt>
</event>
<event>
 8    1  0.2389776E-024  0.8113065E+02  0.7818608E-02  0.1325873E+00
         -1   -1    0    0    0  501 -0.00000000000E+00  0.00000000000E+00  0.28109862337E+02  0.28109862789E+02  0.50400000000E-02 0.  1.
          2   -1    0    0  501    0  0.00000000000E+00 -0.00000000000E+00 -0.58539795512E+02  0.58539795568E+02  0.25500000000E-02 0. -1.
         24    2    1    2    0    0  0.00000000000E+00  0.88817841970E-15 -0.30429933175E+02  0.86649658356E+02  0.81130650560E+02 0.  0.
         66    2    3    3    0    0 -0.27888814651E+02 -0.79069849181E+01 -0.45493530557E+02  0.53981179309E+02  0.20000009921E+01 0.  0.
        -13    1    3    3    0    0  0.27888814651E+02  0.79069849181E+01  0.15063597381E+02  0.32668479047E+02  0.10566000000E+00 0.  1.
         13    1    4    4    0    0 -0.33748630126E+01 -0.10514159262E+01 -0.53968785898E+01  0.64523358834E+01  0.10566000000E+00 0. -1.
        -13    1    4    4    0    0 -0.16806713054E+02 -0.51018418703E+01 -0.26231989978E+02  0.31569334114E+02  0.10566000000E+00 0.  1.
        -14    1    4    4    0    0 -0.77072385848E+01 -0.17537271215E+01 -0.13864661988E+02  0.15959509312E+02  0.00000000000E+00 0.  1.
<mgrwt>
<rscale>  0 0.81130651E+02</rscale>
<asrwt>0</asrwt>
<pdfrwt beam="1">  1        2 0.90061224E-02 0.81130651E+02</pdfrwt>
<pdfrwt beam="2">  1       -1 0.43245943E-02 0.81130651E+02</pdfrwt>
<totfact> 0.14897281E+05</totfact>
</mgrwt>
</event>
<event>
 8    1  0.2389776E-024  0.7922737E+02  0.7818608E-02  0.1331258E+00
         -1   -1    0    0    0  501 -0.00000000000E+00  0.00000000000E+00  0.14255567900E+02  0.14255568791E+02  0.50400000000E-02 0.  1.
          2   -1    0    0  501    0  0.00000000000E+00 -0.00000000000E+00 -0.11007937530E+03  0.11007937533E+03  0.25500000000E-02 0. -1.
         24    2    1    2    0    0  0.00000000000E+00  0.00000000000E+00 -0.95823807404E+02  0.12433494412E+03  0.79227370682E+02 0.  0.
         66    2    3    3    0    0 -0.13297693530E+02  0.21877432504E+02 -0.95329980950E+02  0.98728192383E+02  0.19999992751E+01 0.  0.
        -13    1    3    3    0    0  0.13297693530E+02 -0.21877432504E+02 -0.49382645376E+00  0.25606751742E+02  0.10566000000E+00 0.  1.
         13    1    4    4    0    0 -0.71106827387E+01  0.10198526888E+02 -0.45785485533E+02  0.47443583436E+02  0.10566000000E+00 0. -1.
        -13    1    4    4    0    0 -0.18175460372E+01  0.36478276897E+01 -0.13827262052E+02  0.14415771237E+02  0.10566000000E+00 0.  1.
         14    1    4    4    0    0 -0.43694647536E+01  0.80310779264E+01 -0.35717233364E+02  0.36868837710E+02  0.00000000000E+00 0. -1.
<mgrwt>
<rscale>  0 0.79227371E+02</rscale>
<asrwt>0</asrwt>
<pdfrwt beam="1">  1        2 0.16935288E-01 0.79227371E+02</pdfrwt>
<pdfrwt beam="2">  1       -1 0.21931644E-02 0.79227371E+02</pdfrwt>
<totfact> 0.18695972E+05</totfact>
</mgrwt>
</event>
<event>
 8    1  0.2389776E-024  0.7953648E+02  0.7818608E-02  0.1330372E+00
         -1   -1    0    0    0  501 -0.00000000000E+00  0.00000000000E+00  0.19081882417E+02  0.19081883083E+02  0.50400000000E-02 0.  1.
          2   -1    0    0  501    0  0.00000000000E+00 -0.00000000000E+00 -0.82880337730E+02  0.82880337769E+02  0.25500000000E-02 0. -1.
         24    2    1    2    0    0  0.00000000000E+00  0.00000000000E+00 -0.63798455313E+02  0.10196222085E+03  0.79536479560E+02 0.  0.
         66    2    3    3    0    0  0.11690737927E+02 -0.26521998389E+02 -0.66778587335E+02  0.72824923400E+02  0.19999975043E+01 0.  0.
        -13    1    3    3    0    0 -0.11690737927E+02  0.26521998389E+02  0.29801320220E+01  0.29137297451E+02  0.10566000000E+00 0.  1.
         13    1    4    4    0    0  0.50107772809E+01 -0.12634637948E+02 -0.30700065745E+02  0.33574501721E+02  0.10566000000E+00 0. -1.
        -13    1    4    4    0    0  0.32509236969E+01 -0.63180252568E+01 -0.15203878716E+02  0.16782581448E+02  0.10566000000E+00 0.  1.
         14    1    4    4    0    0  0.34290369497E+01 -0.75693351844E+01 -0.20874642873E+02  0.22467840231E+02  0.00000000000E+00 0. -1.
<mgrwt>
<rscale>  0 0.79536480E+02</rscale>
<asrwt>0</asrwt>
<pdfrwt beam="1">  1        2 0.12750821E-01 0.79536480E+02</pdfrwt>
<pdfrwt beam="2">  1       -1 0.29356743E-02 0.79536480E+02</pdfrwt>
<totfact> 0.17114732E+05</totfact>
</mgrwt>
</event>
<event>
 8    1  0.2389776E-024  0.7843711E+02  0.7818608E-02  0.1333546E+00
          2   -1    0    0  501    0  0.00000000000E+00  0.00000000000E+00  0.89413228179E+01  0.89413231816E+01  0.25500000000E-02 0. -1.
         -1   -1    0    0    0  501 -0.00000000000E+00 -0.00000000000E+00 -0.17202097722E+03  0.17202097729E+03  0.50400000000E-02 0.  1.
         24    2    1    2    0    0  0.00000000000E+00  0.44408920985E-15 -0.16307965440E+03  0.18096230048E+03  0.78437111838E+02 0.  0.
         66    2    3    3    0    0 -0.38442677111E+02  0.24341183939E+01 -0.64903912193E+02  0.75500213078E+02  0.20000002643E+01 0.  0.
        -13    1    3    3    0    0  0.38442677111E+02 -0.24341183939E+01 -0.98175742209E+02  0.10546208740E+03  0.10566000000E+00 0.  1.
         13    1    4    4    0    0 -0.14745760005E+02  0.13576752701E+01 -0.23523908901E+02  0.27796873462E+02  0.10566000000E+00 0. -1.
        -13    1    4    4    0    0 -0.13217527421E+02  0.22147422328E+00 -0.23071767450E+02  0.26590782223E+02  0.10566000000E+00 0.  1.
         14    1    4    4    0    0 -0.10479389685E+02  0.85496890046E+00 -0.18308235842E+02  0.21112557392E+02  0.00000000000E+00 0. -1.
<mgrwt>
<rscale>  0 0.78437112E+02</rscale>
<asrwt>0</asrwt>
<pdfrwt beam="1">  1        2 0.13755883E-02 0.78437112E+02</pdfrwt>
<pdfrwt beam="2">  1       -1 0.26464763E-01 0.78437112E+02</pdfrwt>
<totfact> 0.10936921E+05</totfact>
</mgrwt>
</event>
<event>
 8    1  0.2389776E-024  0.8319291E+02  0.7818608E-02  0.1320227E+00
         -1   -1    0    0    0  501 -0.00000000000E+00  0.00000000000E+00  0.14098873023E+02  0.14098873924E+02  0.50400000000E-02 0.  1.
          2   -1    0    0  501    0  0.00000000000E+00 -0.00000000000E+00 -0.12272363795E+03  0.12272363798E+03  0.25500000000E-02 0. -1.
         24    2    1    2    0    0  0.11102230246E-15  0.71054273576E-14 -0.10862476493E+03  0.13682251190E+03  0.83192909597E+02 0.  0.
         66    2    3    3    0    0  0.65226202757E+00  0.41269731753E+02 -0.46179263365E+02  0.61968867807E+02  0.20000019113E+01 0.  0.
        -13    1    3    3    0    0 -0.65226202757E+00 -0.41269731753E+02 -0.62445501562E+02  0.74853644093E+02  0.10566000000E+00 0.  1.
         13    1    4    4    0    0  0.26948652731E+00  0.80213746900E+00 -0.92395037196E+00  0.12573368017E+01  0.10566000000E+00 0. -1.
        -13    1    4    4    0    0  0.63841487257E-01  0.68528895962E+01 -0.76141187369E+01  0.10244615158E+02  0.10566000000E+00 0. -1.
         14    1    4    4    0    0  0.31893401301E+00  0.33614704687E+02 -0.37641194256E+02  0.50466915848E+02  0.00000000000E+00 0. -1.
<mgrwt>
<rscale>  0 0.83192910E+02</rscale>
<asrwt>0</asrwt>
<pdfrwt beam="1">  1        2 0.18880559E-01 0.83192910E+02</pdfrwt>
<pdfrwt beam="2">  1       -1 0.21690575E-02 0.83192910E+02</pdfrwt>
<totfact> 0.16945509E+05</totfact>
</mgrwt>
</event>
<event>
 8    1  0.2389776E-024  0.8611984E+02  0.7818608E-02  0.1312530E+00
          2   -1    0    0  501    0  0.00000000000E+00  0.00000000000E+00  0.91650726249E+01  0.91650729796E+01  0.25500000000E-02 0. -1.
         -1   -1    0    0    0  501 -0.00000000000E+00 -0.00000000000E+00 -0.20230679729E+03  0.20230679735E+03  0.50400000000E-02 0.  1.
         24    2    1    2    0    0  0.00000000000E+00 -0.35527136788E-14 -0.19314172466E+03  0.21147187033E+03  0.86119835898E+02 0.  0.
         66    2    3    3    0    0 -0.13191322832E+02  0.26065669660E+02 -0.19021039180E+02  0.34917475285E+02  0.20000039748E+01 0.  0.
        -13    1    3    3    0    0  0.13191322832E+02 -0.26065669660E+02 -0.17412068548E+03  0.17655439504E+03  0.10566000000E+00 0.  1.
         13    1    4    4    0    0 -0.41019898758E+01  0.92108557585E+01 -0.73005585910E+01  0.12448915797E+02  0.10566000000E+00 0. -1.
        -13    1    4    4    0    0 -0.57695429047E+01  0.98129994053E+01 -0.68921468219E+01  0.13307720861E+02  0.10566000000E+00 0.  1.
         14    1    4    4    0    0 -0.33197900511E+01  0.70418144961E+01 -0.48283337674E+01  0.91608386270E+01  0.00000000000E+00 0. -1.
<mgrwt>
<rscale>  0 0.86119836E+02</rscale>
<asrwt>0</asrwt>
<pdfrwt beam="1">  1        2 0.14100113E-02 0.86119836E+02</pdfrwt>
<pdfrwt beam="2">  1       -1 0.31124120E-01 0.86119836E+02</pdfrwt>
<totfact> 0.82253458E+04</totfact>
</mgrwt>
</event>
<event>
 8    1  0.2389776E-024  0.7878002E+02  0.7818608E-02  0.1332550E+00
          2   -1    0    0  501    0  0.00000000000E+00  0.00000000000E+00  0.22034202475E+03  0.22034202477E+03  0.25500000000E-02 0. -1.
         -1   -1    0    0    0  501 -0.00000000000E+00 -0.00000000000E+00 -0.70416549197E+01  0.70416567234E+01  0.50400000000E-02 0.  1.
         24    2    1    2    0    0  0.00000000000E+00 -0.44408920985E-15  0.21330036983E+03  0.22738368149E+03  0.78780015470E+02 0.  0.
         66    2    3    3    0    0 -0.36639449239E+02  0.30953104049E+01  0.14728528211E+03  0.15181892014E+03  0.19999996958E+01 0.  0.
        -13    1    3    3    0    0  0.36639449239E+02 -0.30953104049E+01  0.66015087719E+02  0.75564761348E+02  0.10566000000E+00 0.  1.
         13    1    4    4    0    0 -0.25544718505E+02  0.22311857065E+01  0.10349306991E+03  0.10662240626E+03  0.10566000000E+00 0. -1.
        -13    1    4    4    0    0 -0.75882429637E+01  0.84419651206E+00  0.31654012392E+02  0.32561968055E+02  0.10566000000E+00 0.  1.
         14    1    4    4    0    0 -0.35064877700E+01  0.19928186388E-01  0.12138199813E+02  0.12634545829E+02  0.00000000000E+00 0. -1.
<mgrwt>
<rscale>  0 0.78780015E+02</rscale>
<asrwt>0</asrwt>
<pdfrwt beam="1">  1        2 0.33898766E-01 0.78780015E+02</pdfrwt>
<pdfrwt beam="2">  1       -1 0.10833319E-02 0.78780015E+02</pdfrwt>
<totfact> 0.23761719E+05</totfact>
</mgrwt>
</event>
<event>
 8    1  0.2389776E-024  0.8094192E+02  0.7818608E-02  0.1326399E+00
         -1   -1    0    0    0  501 -0.00000000000E+00  0.00000000000E+00  0.18660539607E+01  0.18660607669E+01  0.50400000000E-02 0.  1.
          2   -1    0    0  501    0  0.00000000000E+00 -0.00000000000E+00 -0.87773211980E+03  0.87773211980E+03  0.25500000000E-02 0. -1.
         24    2    1    2    0    0  0.00000000000E+00 -0.35527136788E-14 -0.87586606584E+03  0.87959818057E+03  0.80941917288E+02 0.  0.
         66    2    3    3    0    0  0.13574268634E+02  0.31658042106E+02 -0.66857071736E+03  0.66946045177E+03  0.19999945150E+01 0.  0.
        -13    1    3    3    0    0 -0.13574268634E+02 -0.31658042106E+02 -0.20729534848E+03  0.21013772880E+03  0.10566000000E+00 0.  1.
         13    1    4    4    0    0  0.33957583849E+01  0.98026665659E+01 -0.19895767840E+03  0.19922799102E+03  0.10566000000E+00 0. -1.
        -13    1    4    4    0    0  0.27322583608E+01  0.56665966587E+01 -0.13046346605E+03  0.13061509365E+03  0.10566000000E+00 0.  1.
         14    1    4    4    0    0  0.74462518881E+01  0.16188778882E+02 -0.33914957291E+03  0.33961736710E+03  0.00000000000E+00 0. -1.
<mgrwt>
<rscale>  0 0.80941917E+02</rscale>
<asrwt>0</asrwt>
<pdfrwt beam="1">  1        2 0.13503538E+00 0.80941917E+02</pdfrwt>
<pdfrwt beam="2">  1       -1 0.28708645E-03 0.80941917E+02</pdfrwt>
<totfact> 0.33800246E+05</totfact>
</mgrwt>
</event>
<event>
 8    1  0.2389776E-024  0.8211450E+02  0.7818608E-02  0.1323156E+00
         -1   -1    0    0    0  501 -0.00000000000E+00  0.00000000000E+00  0.58277255898E+01  0.58277277692E+01  0.50400000000E-02 0.  1.
          2   -1    0    0  501    0  0.00000000000E+00 -0.00000000000E+00 -0.28925478104E+03  0.28925478105E+03  0.25500000000E-02 0. -1.
         24    2    1    2    0    0 -0.35527136788E-14  0.00000000000E+00 -0.28342705545E+03  0.29508250882E+03  0.82114500854E+02 0.  0.
         66    2    3    3    0    0 -0.20003445499E+02  0.20865691499E+02 -0.24645407361E+03  0.24815141610E+03  0.20000002213E+01 0.  0.
        -13    1    3    3    0    0  0.20003445499E+02 -0.20865691499E+02 -0.36972981841E+02  0.46931092719E+02  0.10566000000E+00 0.  1.
         13    1    4    4    0    0 -0.13301450972E+02  0.14418855268E+02 -0.17351940880E+03  0.17462482177E+03  0.10566000000E+00 0. -1.
        -13    1    4    4    0    0 -0.45593920237E+01  0.46518339098E+01 -0.51608681798E+02  0.52018216187E+02  0.10566000000E+00 0.  1.
        -14    1    4    4    0    0 -0.21426025030E+01  0.17950023210E+01 -0.21325983011E+02  0.21508378139E+02  0.00000000000E+00 0.  1.
<mgrwt>
<rscale>  0 0.82114501E+02</rscale>
<asrwt>0</asrwt>
<pdfrwt beam="1">  1        2 0.44500724E-01 0.82114501E+02</pdfrwt>
<pdfrwt beam="2">  1       -1 0.89657356E-03 0.82114501E+02</pdfrwt>
<totfact> 0.23493638E+05</totfact>
</mgrwt>
</event>
<event>
 8    1  0.2389776E-024  0.8031302E+02  0.7818608E-02  0.1328165E+00
          2   -1    0    0  501    0  0.00000000000E+00  0.00000000000E+00  0.19349209137E+02  0.19349209305E+02  0.25500000000E-02 0. -1.
         -1   -1    0    0    0  501 -0.00000000000E+00 -0.00000000000E+00 -0.83339069898E+02  0.83339070051E+02  0.50400000000E-02 0.  1.
         24    2    1    2    0    0  0.00000000000E+00  0.00000000000E+00 -0.63989860761E+02  0.10268827936E+03  0.80313015364E+02 0.  0.
         66    2    3    3    0    0  0.24839601053E+02 -0.27046120774E+02 -0.52712324447E+02  0.64273537150E+02  0.19999999263E+01 0.  0.
        -13    1    3    3    0    0 -0.24839601053E+02  0.27046120774E+02 -0.11277536313E+02  0.38414742206E+02  0.10566000000E+00 0.  1.
         13    1    4    4    0    0  0.66591430183E+01 -0.62704775741E+01 -0.13709849396E+02  0.16481329110E+02  0.10566000000E+00 0. -1.
        -13    1    4    4    0    0  0.14668216975E+02 -0.16245806253E+02 -0.30789476183E+02  0.37776789404E+02  0.10566000000E+00 0.  1.
        -14    1    4    4    0    0  0.35122410602E+01 -0.45298369468E+01 -0.82129988681E+01  0.10015418635E+02  0.00000000000E+00 0.  1.
<mgrwt>
<rscale>  0 0.80313015E+02</rscale>
<asrwt>0</asrwt>
<pdfrwt beam="1">  1        2 0.29768015E-02 0.80313015E+02</pdfrwt>
<pdfrwt beam="2">  1       -1 0.12821395E-01 0.80313015E+02</pdfrwt>
<totfact> 0.12194724E+05</totfact>
</mgrwt>
</event>
<event>
 8    1  0.2389776E-024  0.7816534E+02  0.7818608E-02  0.1334340E+00
         -1   -1    0    0    0  501 -0.00000000000E+00  0.00000000000E+00  0.21874217284E+03  0.21874217289E+03  0.50400000000E-02 0.  1.
          2   -1    0    0  501    0  0.00000000000E+00 -0.00000000000E+00 -0.69829023332E+01  0.69829027988E+01  0.25500000000E-02 0. -1.
         24    2    1    2    0    0  0.00000000000E+00 -0.17763568394E-14  0.21175927050E+03  0.22572507569E+03  0.78165344960E+02 0.  0.
         66    2    3    3    0    0  0.35617782863E+02  0.12782904637E+02  0.78036923852E+02  0.86751314627E+02  0.19999995516E+01 0.  0.
        -13    1    3    3    0    0 -0.35617782863E+02 -0.12782904637E+02  0.13372234665E+03  0.13897376107E+03  0.10566000000E+00 0.  1.
         13    1    4    4    0    0  0.12292422394E+02  0.38733682714E+01  0.27166896944E+02  0.30069221534E+02  0.10566000000E+00 0. -1.
        -13    1    4    4    0    0  0.90200194866E+00  0.49610234782E+00  0.17169726526E+01  0.20047154861E+01  0.10566000000E+00 0. -1.
        -14    1    4    4    0    0  0.22423358520E+02  0.84134340180E+01  0.49153054256E+02  0.54677377607E+02  0.00000000000E+00 0.  1.
<mgrwt>
<rscale>  0 0.78165345E+02</rscale>
<asrwt>0</asrwt>
<pdfrwt beam="1">  1        2 0.10742927E-02 0.78165345E+02</pdfrwt>
<pdfrwt beam="2">  1       -1 0.33652643E-01 0.78165345E+02</pdfrwt>
<totfact> 0.10276266E+05</totfact>
</mgrwt>
</event>
<event>
 8    1  0.2389776E-024  0.7885526E+02  0.7818608E-02  0.1332332E+00
          2   -1    0    0  501    0  0.00000000000E+00  0.00000000000E+00  0.16200873692E+03  0.16200873694E+03  0.25500000000E-02 0. -1.
         -1   -1    0    0    0  501 -0.00000000000E+00 -0.00000000000E+00 -0.95953958602E+01  0.95953971838E+01  0.50400000000E-02 0.  1.
         24    2    1    2    0    0  0.00000000000E+00  0.00000000000E+00  0.15241334106E+03  0.17160413412E+03  0.78855261811E+02 0.  0.
         66    2    3    3    0    0  0.85440263523E+01 -0.94432597634E+01  0.15740028680E+03  0.15792728020E+03  0.20000012725E+01 0.  0.
        -13    1    3    3    0    0 -0.85440263523E+01  0.94432597634E+01 -0.49869457445E+01  0.13676853921E+02  0.10566000000E+00 0.  1.
         13    1    4    4    0    0  0.22100758762E+01 -0.21961789807E+01  0.39361274448E+02  0.39484537831E+02  0.10566000000E+00 0. -1.
        -13    1    4    4    0    0  0.23903050193E+01 -0.17715927591E+01  0.41655460424E+02  0.41761712682E+02  0.10566000000E+00 0.  1.
        -14    1    4    4    0    0  0.39436454568E+01 -0.54754880236E+01  0.76383551931E+02  0.76681029689E+02  0.00000000000E+00 0.  1.
<mgrwt>
<rscale>  0 0.78855262E+02</rscale>
<asrwt>0</asrwt>
<pdfrwt beam="1">  1        2 0.24924422E-01 0.78855262E+02</pdfrwt>
<pdfrwt beam="2">  1       -1 0.14762148E-02 0.78855262E+02</pdfrwt>
<totfact> 0.21337737E+05</totfact>
</mgrwt>
</event>
<event>
 8    1  0.2389776E-024  0.7910022E+02  0.7818608E-02  0.1331624E+00
          2   -1    0    0  501    0  0.00000000000E+00  0.00000000000E+00  0.77333072775E+03  0.77333072776E+03  0.25500000000E-02 0. -1.
         -1   -1    0    0    0  501 -0.00000000000E+00 -0.00000000000E+00 -0.20226905555E+01  0.20226968347E+01  0.50400000000E-02 0.  1.
         24    2    1    2    0    0  0.00000000000E+00  0.00000000000E+00  0.77130803720E+03  0.77535342459E+03  0.79100219854E+02 0.  0.
         66    2    3    3    0    0 -0.23491806702E+02  0.43620357164E+01  0.69452240320E+03  0.69493615599E+03  0.20000027977E+01 0.  0.
        -13    1    3    3    0    0  0.23491806702E+02 -0.43620357164E+01  0.76785633994E+02  0.80417268603E+02  0.10566000000E+00 0.  1.
         13    1    4    4    0    0 -0.31072051083E+01  0.50165324033E+00  0.82512595698E+02  0.82572670977E+02  0.10566000000E+00 0. -1.
        -13    1    4    4    0    0 -0.11526159781E+02  0.28902364579E+01  0.36101679960E+03  0.36121232894E+03  0.10566000000E+00 0.  1.
        -14    1    4    4    0    0 -0.88584418125E+01  0.97014601812E+00  0.25099300791E+03  0.25115115607E+03  0.00000000000E+00 0.  1.
<mgrwt>
<rscale>  0 0.79100220E+02</rscale>
<asrwt>0</asrwt>
<pdfrwt beam="1">  1        2 0.11897423E+00 0.79100220E+02</pdfrwt>
<pdfrwt beam="2">  1       -1 0.31118294E-03 0.79100220E+02</pdfrwt>
<totfact> 0.35174219E+05</totfact>
</mgrwt>
</event>
<event>
 8    1  0.2389776E-024  0.7913318E+02  0.7818608E-02  0.1331529E+00
          2   -1    0    0  501    0  0.00000000000E+00  0.00000000000E+00  0.55675449239E+03  0.55675449240E+03  0.25500000000E-02 0. -1.
         -1   -1    0    0    0  501 -0.00000000000E+00 -0.00000000000E+00 -0.28118564734E+01  0.28118609902E+01  0.50400000000E-02 0.  1.
         24    2    1    2    0    0 -0.88817841970E-15 -0.71054273576E-14  0.55394263592E+03  0.55956635339E+03  0.79133178602E+02 0.  0.
         66    2    3    3    0    0  0.53618168328E+01  0.19156553058E+02  0.51879111301E+03  0.51917621434E+03  0.20000006826E+01 0.  0.
        -13    1    3    3    0    0 -0.53618168328E+01 -0.19156553058E+02  0.35151522914E+02  0.40390139044E+02  0.10566000000E+00 0.  1.
         13    1    4    4    0    0 -0.41291717286E-01  0.11376985231E+01  0.26297978231E+02  0.26322820632E+02  0.10566000000E+00 0. -1.
        -13    1    4    4    0    0  0.15353726767E+01  0.36662868036E+01  0.10318564948E+03  0.10326223149E+03  0.10566000000E+00 0.  1.
         14    1    4    4    0    0  0.38677358734E+01  0.14352567732E+02  0.38930748529E+03  0.38959116223E+03  0.00000000000E+00 0. -1.
<mgrwt>
<rscale>  0 0.79133179E+02</rscale>
<asrwt>0</asrwt>
<pdfrwt beam="1">  1        2 0.85654524E-01 0.79133179E+02</pdfrwt>
<pdfrwt beam="2">  1       -1 0.43259372E-03 0.79133179E+02</pdfrwt>
<totfact> 0.32382870E+05</totfact>
</mgrwt>
</event>
<event>
 8    1  0.2389776E-024  0.8283546E+02  0.7818608E-02  0.1321192E+00
         -1   -1    0    0    0  501 -0.00000000000E+00  0.00000000000E+00  0.13816340001E+03  0.13816340010E+03  0.50400000000E-02 0.  1.
          2   -1    0    0  501    0  0.00000000000E+00 -0.00000000000E+00 -0.12415939494E+02  0.12415939756E+02  0.25500000000E-02 0. -1.
         24    2    1    2    0    0 -0.17763568394E-14  0.00000000000E+00  0.12574746052E+03  0.15057933986E+03  0.82835462008E+02 0.  0.
         66    2    3    3    0    0  0.69299294400E+01 -0.24156038557E+02  0.31187448981E+01  0.25402060854E+02  0.20000012740E+01 0.  0.
        -13    1    3    3    0    0 -0.69299294400E+01  0.24156038557E+02  0.12262871562E+03  0.12517727901E+03  0.10566000000E+00 0.  1.
         13    1    4    4    0    0  0.28812820987E+01 -0.87501958656E+01  0.12704459551E+01  0.93001565137E+01  0.10566000000E+00 0. -1.
        -13    1    4    4    0    0  0.14429946743E+01 -0.67717119984E+01  0.14477130315E+01  0.70742741024E+01  0.10566000000E+00 0.  1.
         14    1    4    4    0    0  0.26056526670E+01 -0.86341306929E+01  0.40058591150E+00  0.90276302381E+01  0.00000000000E+00 0. -1.
<mgrwt>
<rscale>  0 0.82835462E+02</rscale>
<asrwt>0</asrwt>
<pdfrwt beam="1">  1        2 0.19101446E-02 0.82835462E+02</pdfrwt>
<pdfrwt beam="2">  1       -1 0.21255908E-01 0.82835462E+02</pdfrwt>
<totfact> 0.10084986E+05</totfact>
</mgrwt>
</event>
<event>
 8    1  0.2389776E-024  0.8091981E+02  0.7818608E-02  0.1326461E+00
          2   -1    0    0  501    0  0.00000000000E+00  0.00000000000E+00  0.32375993002E+03  0.32375993003E+03  0.25500000000E-02 0. -1.
         -1   -1    0    0    0  501 -0.00000000000E+00 -0.00000000000E+00 -0.50562263022E+01  0.50562288141E+01  0.50400000000E-02 0.  1.
         24    2    1    2    0    0  0.71054273576E-14 -0.88817841970E-15  0.31870370372E+03  0.32881615885E+03  0.80919809402E+02 0.  0.
         66    2    3    3    0    0  0.37632662746E+02 -0.76714148693E+01  0.21083726862E+03  0.21431617240E+03  0.20000001532E+01 0.  0.
        -13    1    3    3    0    0 -0.37632662746E+02  0.76714148693E+01  0.10786643510E+03  0.11449998645E+03  0.10566000000E+00 0.  1.
         13    1    4    4    0    0  0.12864147006E+02 -0.33590108971E+01  0.73277182962E+02  0.74473659365E+02  0.10566000000E+00 0.  1.
        -13    1    4    4    0    0  0.98201024067E+01 -0.12713561962E+01  0.52755754601E+02  0.53677104667E+02  0.10566000000E+00 0. -1.
         14    1    4    4    0    0  0.14948413334E+02 -0.30410477759E+01  0.84804331061E+02  0.86165408369E+02  0.00000000000E+00 0. -1.
<mgrwt>
<rscale>  0 0.80919809E+02</rscale>
<asrwt>0</asrwt>
<pdfrwt beam="1">  1        2 0.49809227E-01 0.80919809E+02</pdfrwt>
<pdfrwt beam="2">  1       -1 0.77788105E-03 0.80919809E+02</pdfrwt>
<totfact> 0.25432918E+05</totfact>
</mgrwt>
</event>
<event>
 8    1  0.2389776E-024  0.8197508E+02  0.7818608E-02  0.1323538E+00
          2   -1    0    0  501    0  0.00000000000E+00  0.00000000000E+00  0.18915044560E+03  0.18915044562E+03  0.25500000000E-02 0. -1.
         -1   -1    0    0    0  501 -0.00000000000E+00 -0.00000000000E+00 -0.88817043870E+01  0.88817058170E+01  0.50400000000E-02 0.  1.
         24    2    1    2    0    0  0.00000000000E+00  0.00000000000E+00  0.18026874122E+03  0.19803215144E+03  0.81975081234E+02 0.  0.
         66    2    3    3    0    0 -0.94117241097E+01  0.33544437216E+02  0.38141625081E+02  0.51697131282E+02  0.20000000300E+01 0.  0.
        -13    1    3    3    0    0  0.94117241097E+01 -0.33544437216E+02  0.14212711614E+03  0.14633502016E+03  0.10566000000E+00 0.  1.
         13    1    4    4    0    0 -0.10234571464E+01  0.25010938014E+01  0.30681062114E+01  0.40899113064E+01  0.10566000000E+00 0. -1.
        -13    1    4    4    0    0 -0.14117994286E+01  0.54283321236E+01  0.53168822168E+01  0.77291893374E+01  0.10566000000E+00 0.  1.
         14    1    4    4    0    0 -0.69764675347E+01  0.25615011291E+02  0.29756636652E+02  0.39878030638E+02  0.00000000000E+00 0. -1.
<mgrwt>
<rscale>  0 0.81975081E+02</rscale>
<asrwt>0</asrwt>
<pdfrwt beam="1">  1        2 0.29100067E-01 0.81975081E+02</pdfrwt>
<pdfrwt beam="2">  1       -1 0.13664162E-02 0.81975081E+02</pdfrwt>
<totfact> 0.20286159E+05</totfact>
</mgrwt>
</event>
<event>
 8    1  0.2389776E-024  0.8573568E+02  0.7818608E-02  0.1313520E+00
         -1   -1    0    0    0  501 -0.00000000000E+00  0.00000000000E+00  0.42932048419E+01  0.42932078002E+01  0.50400000000E-02 0.  1.
          2   -1    0    0  501    0  0.00000000000E+00 -0.00000000000E+00 -0.42803711352E+03  0.42803711353E+03  0.25500000000E-02 0. -1.
         24    2    1    2    0    0  0.35527136788E-14  0.00000000000E+00 -0.42374390868E+03  0.43233032133E+03  0.85735678673E+02 0.  0.
         66    2    3    3    0    0  0.26894342138E+02 -0.28815477109E+02 -0.29666789006E+03  0.29928159705E+03  0.19999950655E+01 0.  0.
        -13    1    3    3    0    0 -0.26894342138E+02  0.28815477109E+02 -0.12707601862E+03  0.13304872428E+03  0.10566000000E+00 0.  1.
         13    1    4    4    0    0  0.14597106890E+02 -0.16427700509E+02 -0.16475536959E+03  0.16621458373E+03  0.10566000000E+00 0. -1.
        -13    1    4    4    0    0  0.77019267843E+01 -0.76206273055E+01 -0.85826588892E+02  0.86507850289E+02  0.10566000000E+00 0.  1.
        -14    1    4    4    0    0  0.45953084634E+01 -0.47671492948E+01 -0.46085931576E+02  0.46559163024E+02  0.00000000000E+00 0.  1.
<mgrwt>
<rscale>  0 0.85735679E+02</rscale>
<asrwt>0</asrwt>
<pdfrwt beam="1">  1        2 0.65851830E-01 0.85735679E+02</pdfrwt>
<pdfrwt beam="2">  1       -1 0.66049362E-03 0.85735679E+02</pdfrwt>
<totfact> 0.24126427E+05</totfact>
</mgrwt>
</event>
<event>
 8    1  0.2389776E-024  0.7622055E+02  0.7818608E-02  0.1340132E+00
          2   -1    0    0  501    0  0.00000000000E+00  0.00000000000E+00  0.25595624514E+03  0.25595624516E+03  0.25500000000E-02 0. -1.
         -1   -1    0    0    0  501 -0.00000000000E+00 -0.00000000000E+00 -0.56743796733E+01  0.56743819115E+01  0.50400000000E-02 0.  1.
         24    2    1    2    0    0  0.35527136788E-14 -0.35527136788E-14  0.25028186547E+03  0.26163062707E+03  0.76220553899E+02 0.  0.
         66    2    3    3    0    0  0.20472492336E+02  0.26021767019E+02  0.18982197120E+03  0.19269830315E+03  0.19999965935E+01 0.  0.
        -13    1    3    3    0    0 -0.20472492336E+02 -0.26021767019E+02  0.60459894274E+02  0.68932323919E+02  0.10566000000E+00 0.  1.
         13    1    4    4    0    0  0.94711936010E+01  0.12724632523E+02  0.93869527087E+02  0.95200415233E+02  0.10566000000E+00 0. -1.
        -13    1    4    4    0    0  0.42349027155E+01  0.57412434715E+01  0.37779461671E+02  0.38447303752E+02  0.10566000000E+00 0.  1.
        -14    1    4    4    0    0  0.67663960194E+01  0.75558910239E+01  0.58172982440E+02  0.59050584165E+02  0.00000000000E+00 0.  1.
<mgrwt>
<rscale>  0 0.76220554E+02</rscale>
<asrwt>0</asrwt>
<pdfrwt beam="1">  1        2 0.39377888E-01 0.76220554E+02</pdfrwt>
<pdfrwt beam="2">  1       -1 0.87298157E-03 0.76220554E+02</pdfrwt>
<totfact> 0.27326619E+05</totfact>
</mgrwt>
</event>
<event>
 8    1  0.2389776E-024  0.8997168E+02  0.7818608E-02  0.1302920E+00
         -1   -1    0    0    0  501 -0.00000000000E+00  0.00000000000E+00  0.25615034807E+01  0.25615084391E+01  0.50400000000E-02 0.  1.
          2   -1    0    0  501    0  0.00000000000E+00 -0.00000000000E+00 -0.79005320910E+03  0.79005320910E+03  0.25500000000E-02 0. -1.
         24    2    1    2    0    0  0.17763568394E-14  0.88817841970E-15 -0.78749170562E+03  0.79261471754E+03  0.89971684695E+02 0.  0.
         66    2    3    3    0    0 -0.11944112239E+02  0.62587756361E+01 -0.77181807214E+03  0.77193844999E+03  0.19999982865E+01 0.  0.
        -13    1    3    3    0    0  0.11944112239E+02 -0.62587756361E+01 -0.15673633477E+02  0.20676267556E+02  0.10566000000E+00 0.  1.
         13    1    4    4    0    0 -0.31040242603E+01  0.17458232990E+01 -0.19542941476E+03  0.19546188934E+03  0.10566000000E+00 0.  1.
        -13    1    4    4    0    0 -0.82112890747E+01  0.46077823138E+01 -0.54677092318E+03  0.54685200057E+03  0.10566000000E+00 0. -1.
        -14    1    4    4    0    0 -0.62879890421E+00 -0.94829976650E-01 -0.29617734198E+02  0.29624560078E+02  0.00000000000E+00 0.  1.
<mgrwt>
<rscale>  0 0.89971685E+02</rscale>
<asrwt>0</asrwt>
<pdfrwt beam="1">  1        2 0.12154645E+00 0.89971685E+02</pdfrwt>
<pdfrwt beam="2">  1       -1 0.39407847E-03 0.89971685E+02</pdfrwt>
<totfact> 0.25226950E+05</totfact>
</mgrwt>
</event>
<event>
 8    1  0.2389776E-024  0.8214515E+02  0.7818608E-02  0.1323072E+00
          2   -1    0    0  501    0  0.00000000000E+00  0.00000000000E+00  0.55393197092E+03  0.55393197093E+03  0.25500000000E-02 0. -1.
         -1   -1    0    0    0  501 -0.00000000000E+00 -0.00000000000E+00 -0.30454193479E+01  0.30454235183E+01  0.50400000000E-02 0.  1.
         24    2    1    2    0    0  0.00000000000E+00 -0.17763568394E-14  0.55088655157E+03  0.55697739445E+03  0.82145147263E+02 0.  0.
         66    2    3    3    0    0 -0.26106423521E+02 -0.11929246537E+02  0.47457362875E+03  0.47544503507E+03  0.19999981399E+01 0.  0.
        -13    1    3    3    0    0  0.26106423521E+02  0.11929246537E+02  0.76312922824E+02  0.81532359379E+02  0.10566000000E+00 0.  1.
         13    1    4    4    0    0 -0.53997610058E+01 -0.22131132308E+01  0.10621415297E+03  0.10637439891E+03  0.10566000000E+00 0. -1.
        -13    1    4    4    0    0 -0.15041459948E+02 -0.65737411935E+01  0.26010631116E+03  0.26062379757E+03  0.10566000000E+00 0.  1.
         14    1    4    4    0    0 -0.56652025672E+01 -0.31423921127E+01  0.10825316462E+03  0.10844683859E+03  0.00000000000E+00 0. -1.
<mgrwt>
<rscale>  0 0.82145147E+02</rscale>
<asrwt>0</asrwt>
<pdfrwt beam="1">  1        2 0.85220199E-01 0.82145147E+02</pdfrwt>
<pdfrwt beam="2">  1       -1 0.46852695E-03 0.82145147E+02</pdfrwt>
<totfact> 0.29334785E+05</totfact>
</mgrwt>
</event>
<event>
 8    1  0.2389776E-024  0.7873562E+02  0.7818608E-02  0.1332678E+00
          2   -1    0    0  501    0  0.00000000000E+00  0.00000000000E+00  0.72487361519E+03  0.72487361519E+03  0.25500000000E-02 0. -1.
         -1   -1    0    0    0  501 -0.00000000000E+00 -0.00000000000E+00 -0.21380586514E+01  0.21380645917E+01  0.50400000000E-02 0.  1.
         24    2    1    2    0    0  0.00000000000E+00  0.00000000000E+00  0.72273555653E+03  0.72701167978E+03  0.78735620023E+02 0.  0.
         66    2    3    3    0    0  0.20624645557E+02 -0.23308196538E+02  0.58381547565E+03  0.58464789201E+03  0.19999999228E+01 0.  0.
        -13    1    3    3    0    0 -0.20624645557E+02  0.23308196538E+02  0.13892008089E+03  0.14236378777E+03  0.10566000000E+00 0.  1.
         13    1    4    4    0    0  0.10151190613E+02 -0.11574204758E+02  0.29997401997E+03  0.30036882779E+03  0.10566000000E+00 0. -1.
        -13    1    4    4    0    0  0.57770011643E+01 -0.56890434724E+01  0.14917454531E+03  0.14939476259E+03  0.10566000000E+00 0. -1.
         14    1    4    4    0    0  0.46964537796E+01 -0.60449483076E+01  0.13466691036E+03  0.13488430163E+03  0.00000000000E+00 0. -1.
<mgrwt>
<rscale>  0 0.78735620E+02</rscale>
<asrwt>0</asrwt>
<pdfrwt beam="1">  1        2 0.11151896E+00 0.78735620E+02</pdfrwt>
<pdfrwt beam="2">  1       -1 0.32893274E-03 0.78735620E+02</pdfrwt>
<totfact> 0.35136263E+05</totfact>
</mgrwt>
</event>
<event>
 8    1  0.2389776E-024  0.8020328E+02  0.7818608E-02  0.1328476E+00
          2   -1    0    0  501    0  0.00000000000E+00  0.00000000000E+00  0.33613004919E+02  0.33613005016E+02  0.25500000000E-02 0. -1.
         -1   -1    0    0    0  501 -0.00000000000E+00 -0.00000000000E+00 -0.47842837719E+02  0.47842837985E+02  0.50400000000E-02 0.  1.
         24    2    1    2    0    0  0.17763568394E-14 -0.71054273576E-14 -0.14229832800E+02  0.81455843001E+02  0.80203280590E+02 0.  0.
         66    2    3    3    0    0 -0.14982034027E+02  0.35587533990E+02  0.37815472258E+01  0.38848861255E+02  0.20000005777E+01 0.  0.
        -13    1    3    3    0    0  0.14982034027E+02 -0.35587533990E+02 -0.18011380026E+02  0.42606981746E+02  0.10566000000E+00 0.  1.
         13    1    4    4    0    0 -0.64391594946E+01  0.15366888576E+02  0.24914560060E+01  0.16847034058E+02  0.10566000000E+00 0. -1.
        -13    1    4    4    0    0 -0.43845182638E+01  0.94409987860E+01  0.64297747377E+00  0.10429815077E+02  0.10566000000E+00 0.  1.
         14    1    4    4    0    0 -0.41583562689E+01  0.10779646628E+02  0.64711374612E+00  0.11572012119E+02  0.00000000000E+00 0. -1.
<mgrwt>
<rscale>  0 0.80203281E+02</rscale>
<asrwt>0</asrwt>
<pdfrwt beam="1">  1        2 0.51712315E-02 0.80203281E+02</pdfrwt>
<pdfrwt beam="2">  1       -1 0.73604367E-02 0.80203281E+02</pdfrwt>
<totfact> 0.13665177E+05</totfact>
</mgrwt>
</event>
<event>
 8    1  0.2389776E-024  0.8229267E+02  0.7818608E-02  0.1322668E+00
         -1   -1    0    0    0  501 -0.00000000000E+00  0.00000000000E+00  0.45593297489E+01  0.45593325345E+01  0.50400000000E-02 0.  1.
          2   -1    0    0  501    0  0.00000000000E+00 -0.00000000000E+00 -0.37133092939E+03  0.37133092940E+03  0.25500000000E-02 0. -1.
         24    2    1    2    0    0  0.00000000000E+00  0.00000000000E+00 -0.36677159964E+03  0.37589026193E+03  0.82292665001E+02 0.  0.
         66    2    3    3    0    0  0.20443780302E+01  0.39919305670E+02 -0.22761086001E+03  0.23110264829E+03  0.20000009930E+01 0.  0.
        -13    1    3    3    0    0 -0.20443780302E+01 -0.39919305670E+02 -0.13916073963E+03  0.14478761365E+03  0.10566000000E+00 0.  1.
         13    1    4    4    0    0  0.32160831235E+00  0.60909717201E+01 -0.34321227688E+02  0.34859162389E+02  0.10566000000E+00 0. -1.
        -13    1    4    4    0    0  0.14257102720E+00  0.10707291259E+02 -0.56898659007E+02  0.57897624938E+02  0.10566000000E+00 0.  1.
        -14    1    4    4    0    0  0.15801986907E+01  0.23121042691E+02 -0.13639097332E+03  0.13834586096E+03  0.00000000000E+00 0.  1.
<mgrwt>
<rscale>  0 0.82292665E+02</rscale>
<asrwt>0</asrwt>
<pdfrwt beam="1">  1        2 0.57127812E-01 0.82292665E+02</pdfrwt>
<pdfrwt beam="2">  1       -1 0.70143585E-03 0.82292665E+02</pdfrwt>
<totfact> 0.25559548E+05</totfact>
</mgrwt>
</event>
<event>
 8    1  0.2389776E-024  0.8230860E+02  0.7818608E-02  0.1322625E+00
          2   -1    0    0  501    0  0.00000000000E+00  0.00000000000E+00  0.24848341691E+03  0.24848341692E+03  0.25500000000E-02 0. -1.
         -1   -1    0    0    0  501 -0.00000000000E+00 -0.00000000000E+00 -0.68160530959E+01  0.68160549593E+01  0.50400000000E-02 0.  1.
         24    2    1    2    0    0  0.00000000000E+00  0.00000000000E+00  0.24166736381E+03  0.25529947188E+03  0.82308599857E+02 0.  0.
         66    2    3    3    0    0  0.33165935018E+02  0.20054051219E+02  0.16360606484E+03  0.16814603375E+03  0.19999997192E+01 0.  0.
        -13    1    3    3    0    0 -0.33165935018E+02 -0.20054051219E+02  0.78061298972E+02  0.87153438126E+02  0.10566000000E+00 0.  1.
         13    1    4    4    0    0  0.73491727433E+01  0.51603113979E+01  0.39293100432E+02  0.40306302973E+02  0.10566000000E+00 0. -1.
        -13    1    4    4    0    0  0.18706670607E+02  0.10287414532E+02  0.88970151074E+02  0.91495734158E+02  0.10566000000E+00 0.  1.
        -14    1    4    4    0    0  0.71100916686E+01  0.46063252896E+01  0.35342813333E+02  0.36343996622E+02  0.00000000000E+00 0.  1.
<mgrwt>
<rscale>  0 0.82308600E+02</rscale>
<asrwt>0</asrwt>
<pdfrwt beam="1">  1        2 0.38228214E-01 0.82308600E+02</pdfrwt>
<pdfrwt beam="2">  1       -1 0.10486238E-02 0.82308600E+02</pdfrwt>
<totfact> 0.22097587E+05</totfact>
</mgrwt>
</event>
<event>
 8    1  0.2389776E-024  0.8164317E+02  0.7818608E-02  0.1324452E+00
         -1   -1    0    0    0  501 -0.00000000000E+00  0.00000000000E+00  0.62595575374E+02  0.62595575577E+02  0.50400000000E-02 0.  1.
          2   -1    0    0  501    0  0.00000000000E+00 -0.00000000000E+00 -0.26621715557E+02  0.26621715679E+02  0.25500000000E-02 0. -1.
         24    2    1    2    0    0  0.00000000000E+00 -0.71054273576E-14  0.35973859818E+02  0.89217291256E+02  0.81643165476E+02 0.  0.
         66    2    3    3    0    0  0.11197216090E+02 -0.37397534943E+02  0.50473943518E+01  0.39413569525E+02  0.20000012459E+01 0.  0.
        -13    1    3    3    0    0 -0.11197216090E+02  0.37397534943E+02  0.30926465466E+02  0.49803721731E+02  0.10566000000E+00 0.  1.
         13    1    4    4    0    0  0.81465814427E+01 -0.26350216172E+02  0.38083287846E+01  0.27842686898E+02  0.10566000000E+00 0. -1.
        -13    1    4    4    0    0  0.83306077728E+00 -0.45880212173E+01  0.74866189143E+00  0.47239377232E+01  0.10566000000E+00 0.  1.
        -14    1    4    4    0    0  0.22175738702E+01 -0.64592975540E+01  0.49040367584E+00  0.68469449046E+01  0.00000000000E+00 0.  1.
<mgrwt>
<rscale>  0 0.81643165E+02</rscale>
<asrwt>0</asrwt>
<pdfrwt beam="1">  1        2 0.40956486E-02 0.81643165E+02</pdfrwt>
<pdfrwt beam="2">  1       -1 0.96300885E-02 0.81643165E+02</pdfrwt>
<totfact> 0.12408245E+05</totfact>
</mgrwt>
</event>
<event>
 8    1  0.2389776E-024  0.7910305E+02  0.7818608E-02  0.1331616E+00
         -1   -1    0    0    0  501 -0.00000000000E+00  0.00000000000E+00  0.55697663268E+01  0.55697686071E+01  0.50400000000E-02 0.  1.
          2   -1    0    0  501    0  0.00000000000E+00 -0.00000000000E+00 -0.28085970493E+03  0.28085970494E+03  0.25500000000E-02 0. -1.
         24    2    1    2    0    0 -0.17763568394E-14  0.35527136788E-14 -0.27528993861E+03  0.28642947355E+03  0.79103053173E+02 0.  0.
         66    2    3    3    0    0 -0.86876731879E+01  0.21634144355E+02 -0.25330941626E+03  0.25438783823E+03  0.20000015066E+01 0.  0.
        -13    1    3    3    0    0  0.86876731879E+01 -0.21634144355E+02 -0.21980522345E+02  0.32041635320E+02  0.10566000000E+00 0.  1.
         13    1    4    4    0    0 -0.16498830846E+01  0.41916340923E+01 -0.44176672548E+02  0.44405872045E+02  0.10566000000E+00 0. -1.
        -13    1    4    4    0    0 -0.44798014131E+00  0.46924997357E+00 -0.69059706854E+01  0.69371807594E+01  0.10566000000E+00 0.  1.
         14    1    4    4    0    0 -0.65898099620E+01  0.16973260289E+02 -0.20222677303E+03  0.20304478543E+03  0.00000000000E+00 0. -1.
<mgrwt>
<rscale>  0 0.79103053E+02</rscale>
<asrwt>0</asrwt>
<pdfrwt beam="1">  1        2 0.43209174E-01 0.79103053E+02</pdfrwt>
<pdfrwt beam="2">  1       -1 0.85688753E-03 0.79103053E+02</pdfrwt>
<totfact> 0.25639929E+05</totfact>
</mgrwt>
</event>
<event>
 8    1  0.2389776E-024  0.8062126E+02  0.7818608E-02  0.1327298E+00
         -1   -1    0    0    0  501 -0.00000000000E+00  0.00000000000E+00  0.71594224569E+02  0.71594224747E+02  0.50400000000E-02 0.  1.
          2   -1    0    0  501    0  0.00000000000E+00 -0.00000000000E+00 -0.22696621507E+02  0.22696621651E+02  0.25500000000E-02 0. -1.
         24    2    1    2    0    0 -0.35527136788E-14  0.71054273576E-14  0.48897603062E+02  0.94290846397E+02  0.80621263505E+02 0.  0.
         66    2    3    3    0    0 -0.18739628260E+02  0.35419138282E+02  0.29321751839E+02  0.49693602771E+02  0.20000003759E+01 0.  0.
        -13    1    3    3    0    0  0.18739628260E+02 -0.35419138282E+02  0.19575851223E+02  0.44597243626E+02  0.10566000000E+00 0.  1.
         13    1    4    4    0    0 -0.78381408567E+01  0.13942488686E+02  0.12008264858E+02  0.20000975771E+02  0.10566000000E+00 0. -1.
        -13    1    4    4    0    0 -0.97837724099E+01  0.19974978757E+02  0.15760784004E+02  0.27260510916E+02  0.10566000000E+00 0.  1.
        -14    1    4    4    0    0 -0.11177149937E+01  0.15016708383E+01  0.15527029774E+01  0.24321160847E+01  0.00000000000E+00 0.  1.
<mgrwt>
<rscale>  0 0.80621264E+02</rscale>
<asrwt>0</asrwt>
<pdfrwt beam="1">  1        2 0.34917879E-02 0.80621264E+02</pdfrwt>
<pdfrwt beam="2">  1       -1 0.11014496E-01 0.80621264E+02</pdfrwt>
<totfact> 0.12456649E+05</totfact>
</mgrwt>
</event>
<event>
 8    1  0.2389776E-024  0.8378728E+02  0.7818608E-02  0.1318635E+00
         -1   -1    0    0    0  501 -0.00000000000E+00  0.00000000000E+00  0.31852663232E+01  0.31852703106E+01  0.50400000000E-02 0.  1.
          2   -1    0    0  501    0  0.00000000000E+00 -0.00000000000E+00 -0.55099820892E+03  0.55099820893E+03  0.25500000000E-02 0. -1.
         24    2    1    2    0    0  0.00000000000E+00  0.00000000000E+00 -0.54781294260E+03  0.55418347924E+03  0.83787281745E+02 0.  0.
         66    2    3    3    0    0 -0.22887652666E+01  0.20127220101E+02 -0.51642693648E+03  0.51682794444E+03  0.20000010042E+01 0.  0.
        -13    1    3    3    0    0  0.22887652666E+01 -0.20127220101E+02 -0.31386006121E+02  0.37355534793E+02  0.10566000000E+00 0.  1.
         13    1    4    4    0    0 -0.62866965430E+00  0.99510693756E+01 -0.25421035326E+03  0.25440584482E+03  0.10566000000E+00 0. -1.
        -13    1    4    4    0    0 -0.82191367870E-01  0.49460034651E+00 -0.80450610891E+01  0.80613619746E+01  0.10566000000E+00 0.  1.
         14    1    4    4    0    0 -0.15779042444E+01  0.96815503789E+01 -0.25417152213E+03  0.25436073765E+03  0.00000000000E+00 0. -1.
<mgrwt>
<rscale>  0 0.83787282E+02</rscale>
<asrwt>0</asrwt>
<pdfrwt beam="1">  1        2 0.84768879E-01 0.83787282E+02</pdfrwt>
<pdfrwt beam="2">  1       -1 0.49004172E-03 0.83787282E+02</pdfrwt>
<totfact> 0.27811671E+05</totfact>
</mgrwt>
</event>
<event>
 8    1  0.2389776E-024  0.7980286E+02  0.7818608E-02  0.1329612E+00
          2   -1    0    0  501    0  0.00000000000E+00  0.00000000000E+00  0.11064109575E+02  0.11064109869E+02  0.25500000000E-02 0. -1.
         -1   -1    0    0    0  501 -0.00000000000E+00 -0.00000000000E+00 -0.14389987161E+03  0.14389987170E+03  0.50400000000E-02 0.  1.
         24    2    1    2    0    0  0.00000000000E+00  0.00000000000E+00 -0.13283576204E+03  0.15496398157E+03  0.79802856513E+02 0.  0.
         66    2    3    3    0    0  0.18280539433E+02  0.19383345925E+02 -0.88479228289E+01  0.28145656171E+02  0.20000004240E+01 0.  0.
        -13    1    3    3    0    0 -0.18280539433E+02 -0.19383345925E+02 -0.12398783921E+03  0.12681832540E+03  0.10566000000E+00 0.  1.
         13    1    4    4    0    0  0.46088760710E+01  0.46368709337E+01 -0.15765156932E+01  0.67259851665E+01  0.10566000000E+00 0. -1.
        -13    1    4    4    0    0  0.11617940373E+02  0.12771532942E+02 -0.58057203655E+01  0.18215546799E+02  0.10566000000E+00 0.  1.
        -14    1    4    4    0    0  0.20537229888E+01  0.19749420498E+01 -0.14656867703E+01  0.32041242053E+01  0.00000000000E+00 0.  1.
<mgrwt>
<rscale>  0 0.79802857E+02</rscale>
<asrwt>0</asrwt>
<pdfrwt beam="1">  1        2 0.17021708E-02 0.79802857E+02</pdfrwt>
<pdfrwt beam="2">  1       -1 0.22138441E-01 0.79802857E+02</pdfrwt>
<totfact> 0.10968911E+05</totfact>
</mgrwt>
</event>
<event>
 8    1  0.2389776E-024  0.7721935E+02  0.7818608E-02  0.1337133E+00
          2   -1    0    0  501    0  0.00000000000E+00  0.00000000000E+00  0.88896514916E+02  0.88896514953E+02  0.25500000000E-02 0. -1.
         -1   -1    0    0    0  501 -0.00000000000E+00 -0.00000000000E+00 -0.16769013535E+02  0.16769014292E+02  0.50400000000E-02 0.  1.
         24    2    1    2    0    0 -0.17763568394E-14  0.22204460493E-15  0.72127501381E+02  0.10566552924E+03  0.77219347414E+02 0.  0.
         66    2    3    3    0    0  0.15481459977E+02 -0.12363287768E+01  0.84419023804E+02  0.85859045474E+02  0.19999994541E+01 0.  0.
        -13    1    3    3    0    0 -0.15481459977E+02  0.12363287768E+01 -0.12291522423E+02  0.19806483771E+02  0.10566000000E+00 0.  1.
         13    1    4    4    0    0  0.49621617594E+01 -0.28637615241E+00  0.25331025699E+02  0.25814280692E+02  0.10566000000E+00 0. -1.
        -13    1    4    4    0    0  0.43976309060E+01 -0.86999220799E+00  0.21650185792E+02  0.22109675549E+02  0.10566000000E+00 0.  1.
         14    1    4    4    0    0  0.61216673114E+01 -0.79960416421E-01  0.37437812314E+02  0.37935089234E+02  0.00000000000E+00 0. -1.
<mgrwt>
<rscale>  0 0.77219347E+02</rscale>
<asrwt>0</asrwt>
<pdfrwt beam="1">  1        2 0.13676387E-01 0.77219347E+02</pdfrwt>
<pdfrwt beam="2">  1       -1 0.25798483E-02 0.77219347E+02</pdfrwt>
<totfact> 0.18871755E+05</totfact>
</mgrwt>
</event>
<event>
 8    1  0.2389776E-024  0.8439726E+02  0.7818608E-02  0.1317016E+00
         -1   -1    0    0    0  501 -0.00000000000E+00  0.00000000000E+00  0.54736206655E+02  0.54736206887E+02  0.50400000000E-02 0.  1.
          2   -1    0    0  501    0  0.00000000000E+00 -0.00000000000E+00 -0.32532839987E+02  0.32532840087E+02  0.25500000000E-02 0. -1.
         24    2    1    2    0    0  0.00000000000E+00  0.00000000000E+00  0.22203366668E+02  0.87269046974E+02  0.84397257469E+02 0.  0.
         66    2    3    3    0    0 -0.20528506365E+02 -0.22756287070E+02 -0.18851256767E+02  0.36036621263E+02  0.20000039039E+01 0.  0.
        -13    1    3    3    0    0  0.20528506365E+02  0.22756287070E+02  0.41054623435E+02  0.51232425710E+02  0.10566000000E+00 0.  1.
         13    1    4    4    0    0 -0.78975192389E+01 -0.91194974885E+01 -0.83157001171E+01  0.14652579194E+02  0.10566000000E+00 0. -1.
        -13    1    4    4    0    0 -0.72390382889E+01 -0.80301040068E+01 -0.56619875962E+01  0.12204733233E+02  0.10566000000E+00 0.  1.
        -14    1    4    4    0    0 -0.53919488367E+01 -0.56066855742E+01 -0.48735690540E+01  0.91793088362E+01  0.00000000000E+00 0.  1.
<mgrwt>
<rscale>  0 0.84397257E+02</rscale>
<asrwt>0</asrwt>
<pdfrwt beam="1">  1        2 0.50050523E-02 0.84397257E+02</pdfrwt>
<pdfrwt beam="2">  1       -1 0.84209549E-02 0.84397257E+02</pdfrwt>
<totfact> 0.11768053E+05</totfact>
</mgrwt>
</event>
<event>
 8    1  0.2389776E-024  0.7461068E+02  0.7818608E-02  0.1345081E+00
          2   -1    0    0  501    0  0.00000000000E+00  0.00000000000E+00  0.34280979136E+02  0.34280979231E+02  0.25500000000E-02 0. -1.
         -1   -1    0    0    0  501 -0.00000000000E+00 -0.00000000000E+00 -0.40596521632E+02  0.40596521945E+02  0.50400000000E-02 0.  1.
         24    2    1    2    0    0  0.00000000000E+00 -0.88817841970E-15 -0.63155424962E+01  0.74877501176E+02  0.74610683588E+02 0.  0.
         66    2    3    3    0    0 -0.36202268305E+02 -0.59180482587E+01  0.35011820563E+01  0.36903736936E+02  0.19999996007E+01 0.  0.
        -13    1    3    3    0    0  0.36202268305E+02  0.59180482587E+01 -0.98167245525E+01  0.37973764241E+02  0.10566000000E+00 0.  1.
         13    1    4    4    0    0 -0.13417921772E+02 -0.13123317822E+01  0.12499068561E+01  0.13540172472E+02  0.10566000000E+00 0. -1.
        -13    1    4    4    0    0 -0.13624600218E+02 -0.25665476387E+01  0.10771641674E+01  0.13906413792E+02  0.10566000000E+00 0.  1.
         14    1    4    4    0    0 -0.91597463147E+01 -0.20391688379E+01  0.11741110328E+01  0.94571506712E+01  0.00000000000E+00 0. -1.
<mgrwt>
<rscale>  0 0.74610684E+02</rscale>
<asrwt>0</asrwt>
<pdfrwt beam="1">  1        2 0.52739968E-02 0.74610684E+02</pdfrwt>
<pdfrwt beam="2">  1       -1 0.62456188E-02 0.74610684E+02</pdfrwt>
<totfact> 0.16758237E+05</totfact>
</mgrwt>
</event>
<event>
 8    1  0.2389776E-024  0.8030823E+02  0.7818608E-02  0.1328179E+00
          2   -1    0    0  501    0  0.00000000000E+00  0.00000000000E+00  0.11366452461E+02  0.11366452747E+02  0.25500000000E-02 0. -1.
         -1   -1    0    0    0  501 -0.00000000000E+00 -0.00000000000E+00 -0.14185190206E+03  0.14185190215E+03  0.50400000000E-02 0.  1.
         24    2    1    2    0    0  0.35527136788E-14  0.35527136788E-14 -0.13048544960E+03  0.15321835490E+03  0.80308229469E+02 0.  0.
         66    2    3    3    0    0 -0.31695297520E+02 -0.23622238778E+02 -0.52099937446E+02  0.65429393580E+02  0.20000031328E+01 0.  0.
        -13    1    3    3    0    0  0.31695297520E+02  0.23622238778E+02 -0.78385512154E+02  0.87788961319E+02  0.10566000000E+00 0.  1.
         13    1    4    4    0    0 -0.25017965611E+01 -0.23880575922E+01 -0.47380746909E+01  0.58670538526E+01  0.10566000000E+00 0.  1.
        -13    1    4    4    0    0 -0.35119636592E+01 -0.30235657045E+01 -0.60768726942E+01  0.76429957537E+01  0.10566000000E+00 0.  1.
         14    1    4    4    0    0 -0.25681537300E+02 -0.18210615481E+02 -0.41284990061E+02  0.51919343973E+02  0.00000000000E+00 0. -1.
<mgrwt>
<rscale>  0 0.80308229E+02</rscale>
<asrwt>0</asrwt>
<pdfrwt beam="1">  1        2 0.17486851E-02 0.80308229E+02</pdfrwt>
<pdfrwt beam="2">  1       -1 0.21823368E-01 0.80308229E+02</pdfrwt>
<totfact> 0.10834085E+05</totfact>
</mgrwt>
</event>
<event>
 8    1  0.2389776E-024  0.7849505E+02  0.7818608E-02  0.1333377E+00
         -1   -1    0    0    0  501 -0.00000000000E+00  0.00000000000E+00  0.39353926877E+01  0.39353959150E+01  0.50400000000E-02 0.  1.
          2   -1    0    0  501    0  0.00000000000E+00 -0.00000000000E+00 -0.39141395948E+03  0.39141395949E+03  0.25500000000E-02 0. -1.
         24    2    1    2    0    0 -0.35527136788E-14  0.35527136788E-14 -0.38747856679E+03  0.39534935540E+03  0.78495051401E+02 0.  0.
         66    2    3    3    0    0  0.25361825064E+02  0.17585935528E+02 -0.31577535089E+03  0.31728624226E+03  0.19999995133E+01 0.  0.
        -13    1    3    3    0    0 -0.25361825064E+02 -0.17585935528E+02 -0.71703215897E+02  0.78063113139E+02  0.10566000000E+00 0.  1.
         13    1    4    4    0    0  0.43151134313E+01  0.32340194578E+01 -0.61171576438E+02  0.61408891976E+02  0.10566000000E+00 0. -1.
        -13    1    4    4    0    0  0.81091211310E+01  0.48986276760E+01 -0.94489980472E+02  0.94963792955E+02  0.10566000000E+00 0.  1.
        -14    1    4    4    0    0  0.12937590502E+02  0.94532883942E+01 -0.16011379398E+03  0.16091355733E+03  0.00000000000E+00 0.  1.
<mgrwt>
<rscale>  0 0.78495051E+02</rscale>
<asrwt>0</asrwt>
<pdfrwt beam="1">  1        2 0.60217502E-01 0.78495051E+02</pdfrwt>
<pdfrwt beam="2">  1       -1 0.60544559E-03 0.78495051E+02</pdfrwt>
<totfact> 0.29464590E+05</totfact>
</mgrwt>
</event>
<event>
 8    1  0.2389776E-024  0.8009302E+02  0.7818608E-02  0.1328788E+00
         -1   -1    0    0    0  501 -0.00000000000E+00  0.00000000000E+00  0.45017523574E+01  0.45017551787E+01  0.50400000000E-02 0.  1.
          2   -1    0    0  501    0  0.00000000000E+00 -0.00000000000E+00 -0.35624400452E+03  0.35624400453E+03  0.25500000000E-02 0. -1.
         24    2    1    2    0    0  0.00000000000E+00  0.17763568394E-14 -0.35174225217E+03  0.36074575971E+03  0.80093015868E+02 0.  0.
         66    2    3    3    0    0 -0.18366116537E+02 -0.11855699131E+02 -0.32697458831E+03  0.32771062424E+03  0.20000005750E+01 0.  0.
        -13    1    3    3    0    0  0.18366116537E+02  0.11855699131E+02 -0.24767663856E+02  0.33035135469E+02  0.10566000000E+00 0.  1.
         13    1    4    4    0    0 -0.53790510546E+01 -0.39481470013E+01 -0.10020860126E+03  0.10043055803E+03  0.10566000000E+00 0. -1.
        -13    1    4    4    0    0 -0.24853418432E+01 -0.22243240619E+01 -0.49390170696E+02  0.49502774337E+02  0.10566000000E+00 0.  1.
        -14    1    4    4    0    0 -0.10501723639E+02 -0.56832280675E+01 -0.17737581635E+03  0.17777729188E+03  0.00000000000E+00 0.  1.
<mgrwt>
<rscale>  0 0.80093016E+02</rscale>
<asrwt>0</asrwt>
<pdfrwt beam="1">  1        2 0.54806748E-01 0.80093016E+02</pdfrwt>
<pdfrwt beam="2">  1       -1 0.69257778E-03 0.80093016E+02</pdfrwt>
<totfact> 0.27037728E+05</totfact>
</mgrwt>
</event>
<event>
 8    1  0.2389776E-024  0.8079466E+02  0.7818608E-02  0.1326811E+00
          2   -1    0    0  501    0  0.00000000000E+00  0.00000000000E+00  0.71003713141E+03  0.71003713142E+03  0.25500000000E-02 0. -1.
         -1   -1    0    0    0  501 -0.00000000000E+00 -0.00000000000E+00 -0.22983899538E+01  0.22983954797E+01  0.50400000000E-02 0.  1.
         24    2    1    2    0    0 -0.35527136788E-14  0.00000000000E+00  0.70773874146E+03  0.71233552690E+03  0.80794657730E+02 0.  0.
         66    2    3    3    0    0 -0.29838904315E+02  0.13514632840E+02  0.56215284432E+03  0.56310995897E+03  0.20000024198E+01 0.  0.
        -13    1    3    3    0    0  0.29838904315E+02 -0.13514632840E+02  0.14558589714E+03  0.14922556792E+03  0.10566000000E+00 0.  1.
         13    1    4    4    0    0 -0.94752673848E+01  0.43948816297E+01  0.18085584518E+03  0.18115723440E+03  0.10566000000E+00 0. -1.
        -13    1    4    4    0    0 -0.60144141708E+01  0.35110289628E+01  0.11880559579E+03  0.11900958473E+03  0.10566000000E+00 0.  1.
         14    1    4    4    0    0 -0.14349222759E+02  0.56087222472E+01  0.26249140335E+03  0.26294313985E+03  0.00000000000E+00 0. -1.
<mgrwt>
<rscale>  0 0.80794658E+02</rscale>
<asrwt>0</asrwt>
<pdfrwt beam="1">  1        2 0.10923659E+00 0.80794658E+02</pdfrwt>
<pdfrwt beam="2">  1       -1 0.35359854E-03 0.80794658E+02</pdfrwt>
<totfact> 0.32707954E+05</totfact>
</mgrwt>
</event>
<event>
 8    1  0.2389776E-024  0.8010123E+02  0.7818608E-02  0.1328764E+00
         -1   -1    0    0    0  501 -0.00000000000E+00  0.00000000000E+00  0.30680894801E+01  0.30680936198E+01  0.50400000000E-02 0.  1.
          2   -1    0    0  501    0  0.00000000000E+00 -0.00000000000E+00 -0.52281749716E+03  0.52281749716E+03  0.25500000000E-02 0. -1.
         24    2    1    2    0    0  0.00000000000E+00  0.00000000000E+00 -0.51974940768E+03  0.52588559078E+03  0.80101234777E+02 0.  0.
         66    2    3    3    0    0 -0.26311863573E+02  0.26495420710E+02 -0.35465932012E+03  0.35662523022E+03  0.20000001401E+01 0.  0.
        -13    1    3    3    0    0  0.26311863573E+02 -0.26495420710E+02 -0.16509008756E+03  0.16926036056E+03  0.10566000000E+00 0.  1.
         13    1    4    4    0    0 -0.17670028558E+02  0.18818850378E+02 -0.24003086125E+03  0.24141500482E+03  0.10566000000E+00 0. -1.
        -13    1    4    4    0    0 -0.30200977861E+01  0.25393508509E+01 -0.38507643056E+02  0.38709417861E+02  0.10566000000E+00 0. -1.
         14    1    4    4    0    0 -0.56217372280E+01  0.51372194807E+01 -0.76120815819E+02  0.76500807541E+02  0.00000000000E+00 0. -1.
<mgrwt>
<rscale>  0 0.80101235E+02</rscale>
<asrwt>0</asrwt>
<pdfrwt beam="1">  1        2 0.80433391E-01 0.80101235E+02</pdfrwt>
<pdfrwt beam="2">  1       -1 0.47201450E-03 0.80101235E+02</pdfrwt>
<totfact> 0.30780049E+05</totfact>
</mgrwt>
</event>
<event>
 8    1  0.2389776E-024  0.7826811E+02  0.7818608E-02  0.1334039E+00
         -1   -1    0    0    0  501 -0.00000000000E+00  0.00000000000E+00  0.62598660131E+01  0.62598680420E+01  0.50400000000E-02 0.  1.
          2   -1    0    0  501    0  0.00000000000E+00 -0.00000000000E+00 -0.24464965366E+03  0.24464965367E+03  0.25500000000E-02 0. -1.
         24    2    1    2    0    0  0.00000000000E+00 -0.35527136788E-14 -0.23838978764E+03  0.25090952171E+03  0.78268111214E+02 0.  0.
         66    2    3    3    0    0  0.32073964832E+02 -0.22343199795E+02 -0.11533113699E+03  0.12179174423E+03  0.20000015188E+01 0.  0.
        -13    1    3    3    0    0 -0.32073964832E+02  0.22343199795E+02 -0.12305865065E+03  0.12911777748E+03  0.10566000000E+00 0.  1.
         13    1    4    4    0    0  0.99942046906E+01 -0.67444456772E+01 -0.33206815555E+02  0.35328111161E+02  0.10566000000E+00 0. -1.
        -13    1    4    4    0    0  0.17618123483E+01 -0.13745387475E+01 -0.73962994372E+01  0.77272083522E+01  0.10566000000E+00 0. -1.
         14    1    4    4    0    0  0.20317947794E+02 -0.14224215370E+02 -0.74728022001E+02  0.78736424719E+02  0.00000000000E+00 0. -1.
<mgrwt>
<rscale>  0 0.78268111E+02</rscale>
<asrwt>0</asrwt>
<pdfrwt beam="1">  1        2 0.37638401E-01 0.78268111E+02</pdfrwt>
<pdfrwt beam="2">  1       -1 0.96305666E-03 0.78268111E+02</pdfrwt>
<totfact> 0.25085930E+05</totfact>
</mgrwt>
</event>
<event>
 8    1  0.2389776E-024  0.8136805E+02  0.7818608E-02  0.1325213E+00
         -1   -1    0    0    0  501 -0.00000000000E+00  0.00000000000E+00  0.11815116992E+02  0.11815118067E+02  0.50400000000E-02 0.  1.
          2   -1    0    0  501    0  0.00000000000E+00 -0.00000000000E+00 -0.14009083740E+03  0.14009083742E+03  0.25500000000E-02 0. -1.
         24    2    1    2    0    0  0.00000000000E+00  0.00000000000E+00 -0.12827572041E+03  0.15190595549E+03  0.81368045737E+02 0.  0.
         66    2    3    3    0    0 -0.26864213283E+02 -0.40715547026E+01 -0.12064584866E+03  0.12368380780E+03  0.20000002211E+01 0.  0.
        -13    1    3    3    0    0  0.26864213283E+02  0.40715547026E+01 -0.76298717460E+01  0.28222147685E+02  0.10566000000E+00 0.  1.
         13    1    4    4    0    0 -0.22674798325E+01 -0.66179620793E+00 -0.10463918183E+02  0.10727729806E+02  0.10566000000E+00 0. -1.
        -13    1    4    4    0    0 -0.92076416787E+01 -0.52840692732E+00 -0.40650796603E+02  0.41684029407E+02  0.10566000000E+00 0.  1.
        -14    1    4    4    0    0 -0.15389091772E+02 -0.28813515674E+01 -0.69531133874E+02  0.71272048590E+02  0.00000000000E+00 0.  1.
<mgrwt>
<rscale>  0 0.81368046E+02</rscale>
<asrwt>0</asrwt>
<pdfrwt beam="1">  1        2 0.21552435E-01 0.81368046E+02</pdfrwt>
<pdfrwt beam="2">  1       -1 0.18177105E-02 0.81368046E+02</pdfrwt>
<totfact> 0.18733927E+05</totfact>
</mgrwt>
</event>
<event>
 8    1  0.2389776E-024  0.7786597E+02  0.7818608E-02  0.1335219E+00
         -1   -1    0    0    0  501 -0.00000000000E+00  0.00000000000E+00  0.40110967540E+02  0.40110967856E+02  0.50400000000E-02 0.  1.
          2   -1    0    0  501    0  0.00000000000E+00 -0.00000000000E+00 -0.37789596828E+02  0.37789596914E+02  0.25500000000E-02 0. -1.
         24    2    1    2    0    0  0.00000000000E+00  0.00000000000E+00  0.23213707120E+01  0.77900564770E+02  0.77865969650E+02 0.  0.
         66    2    3    3    0    0  0.14635381686E+02 -0.14391703668E+02 -0.31905570905E+02  0.37990538109E+02  0.19999998818E+01 0.  0.
        -13    1    3    3    0    0 -0.14635381686E+02  0.14391703668E+02  0.34226941617E+02  0.39910026660E+02  0.10566000000E+00 0.  1.
         13    1    4    4    0    0  0.31888498471E+01 -0.40189186088E+01 -0.86681010133E+01  0.10073113190E+02  0.10566000000E+00 0. -1.
        -13    1    4    4    0    0  0.10518767699E+02 -0.94097708991E+01 -0.21615632844E+02  0.25815402564E+02  0.10566000000E+00 0.  1.
        -14    1    4    4    0    0  0.92776413974E+00 -0.96301416021E+00 -0.16218370478E+01  0.21020223551E+01  0.00000000000E+00 0.  1.
<mgrwt>
<rscale>  0 0.77865970E+02</rscale>
<asrwt>0</asrwt>
<pdfrwt beam="1">  1        2 0.58137841E-02 0.77865970E+02</pdfrwt>
<pdfrwt beam="2">  1       -1 0.61709181E-02 0.77865970E+02</pdfrwt>
<totfact> 0.15184655E+05</totfact>
</mgrwt>
</event>
<event>
 8    1  0.2389776E-024  0.7991183E+02  0.7818608E-02  0.1329302E+00
         -1   -1    0    0    0  501 -0.00000000000E+00  0.00000000000E+00  0.26423457900E+01  0.26423505966E+01  0.50400000000E-02 0.  1.
          2   -1    0    0  501    0  0.00000000000E+00 -0.00000000000E+00 -0.60418804846E+03  0.60418804846E+03  0.25500000000E-02 0. -1.
         24    2    1    2    0    0 -0.71054273576E-14  0.00000000000E+00 -0.60154570267E+03  0.60683039906E+03  0.79911831571E+02 0.  0.
         66    2    3    3    0    0 -0.35062573031E+02 -0.10918429917E+02 -0.42003354428E+03  0.42164057497E+03  0.20000005290E+01 0.  0.
        -13    1    3    3    0    0  0.35062573031E+02  0.10918429917E+02 -0.18151215839E+03  0.18518982409E+03  0.10566000000E+00 0.  1.
         13    1    4    4    0    0 -0.78718795726E+01 -0.30712205211E+01 -0.90981474439E+02  0.91373074473E+02  0.10566000000E+00 0. -1.
        -13    1    4    4    0    0 -0.81519241236E+01 -0.25192801482E+01 -0.10209054816E+03  0.10244653155E+03  0.10566000000E+00 0.  1.
         14    1    4    4    0    0 -0.19038769334E+02 -0.53279292480E+01 -0.22696152169E+03  0.22782096895E+03  0.00000000000E+00 0. -1.
<mgrwt>
<rscale>  0 0.79911832E+02</rscale>
<asrwt>0</asrwt>
<pdfrwt beam="1">  1        2 0.92951898E-01 0.79911832E+02</pdfrwt>
<pdfrwt beam="2">  1       -1 0.40651559E-03 0.79911832E+02</pdfrwt>
<totfact> 0.32318215E+05</totfact>
</mgrwt>
</event>
<event>
 8    1  0.2401866E-024  0.8252562E+02  0.7818608E-02  0.1322033E+00
          2   -1    0    0  501    0  0.00000000000E+00  0.00000000000E+00  0.70727597098E+03  0.70727597098E+03  0.25500000000E-02 0. -1.
         -1   -1    0    0    0  501 -0.00000000000E+00 -0.00000000000E+00 -0.24072887769E+01  0.24072940529E+01  0.50400000000E-02 0.  1.
         24    2    1    2    0    0  0.00000000000E+00 -0.35527136788E-14  0.70486868220E+03  0.70968326504E+03  0.82525617377E+02 0.  0.
         66    2    3    3    0    0 -0.87262218355E+01  0.13347430824E+02  0.67968537645E+03  0.67987536491E+03  0.19999996896E+01 0.  0.
        -13    1    3    3    0    0  0.87262218355E+01 -0.13347430824E+02  0.25183305752E+02  0.29807900123E+02  0.10566000000E+00 0.  1.
         13    1    4    4    0    0 -0.60548889633E+01  0.90420604293E+01  0.45618135003E+03  0.45631113927E+03  0.10566000000E+00 0. -1.
        -13    1    4    4    0    0 -0.16505473980E+01  0.21594739300E+01  0.13987124850E+03  0.13989769461E+03  0.10566000000E+00 0.  1.
        -14    1    4    4    0    0 -0.10207854741E+01  0.21458964646E+01  0.83632777912E+02  0.83666531037E+02  0.00000000000E+00 0.  1.
<mgrwt>
<rscale>  0 0.82525617E+02</rscale>
<asrwt>0</asrwt>
<pdfrwt beam="1">  1        2 0.10881181E+00 0.82525617E+02</pdfrwt>
<pdfrwt beam="2">  1       -1 0.37035210E-03 0.82525617E+02</pdfrwt>
<totfact> 0.30923945E+05</totfact>
</mgrwt>
</event>
<event>
 8    1  0.2389776E-024  0.8208776E+02  0.7818608E-02  0.1323229E+00
         -1   -1    0    0    0  501 -0.00000000000E+00  0.00000000000E+00  0.41376185963E+02  0.41376186270E+02  0.50400000000E-02 0.  1.
          2   -1    0    0  501    0  0.00000000000E+00 -0.00000000000E+00 -0.40714240779E+02  0.40714240859E+02  0.25500000000E-02 0. -1.
         24    2    1    2    0    0  0.00000000000E+00  0.00000000000E+00  0.66194518405E+00  0.82090427130E+02  0.82087758252E+02 0.  0.
         66    2    3    3    0    0  0.13659597190E+02  0.38620160227E+02 -0.17887217572E+01  0.41052416653E+02  0.20000040520E+01 0.  0.
        -13    1    3    3    0    0 -0.13659597190E+02 -0.38620160227E+02  0.24506669412E+01  0.41038010476E+02  0.10566000000E+00 0.  1.
         13    1    4    4    0    0  0.37804963671E+01  0.11381967611E+02 -0.26773859430E+00  0.11996840729E+02  0.10566000000E+00 0. -1.
        -13    1    4    4    0    0  0.22654368134E+01  0.48120123505E+01 -0.61237132979E+00  0.53547950006E+01  0.10566000000E+00 0.  1.
        -14    1    4    4    0    0  0.76136640091E+01  0.22426180266E+02 -0.90861183309E+00  0.23700780924E+02  0.00000000000E+00 0.  1.
<mgrwt>
<rscale>  0 0.82087758E+02</rscale>
<asrwt>0</asrwt>
<pdfrwt beam="1">  1        2 0.62637293E-02 0.82087758E+02</pdfrwt>
<pdfrwt beam="2">  1       -1 0.63655672E-02 0.82087758E+02</pdfrwt>
<totfact> 0.13322586E+05</totfact>
</mgrwt>
</event>
<event>
 8    1  0.2389776E-024  0.8134318E+02  0.7818608E-02  0.1325282E+00
          2   -1    0    0  501    0  0.00000000000E+00  0.00000000000E+00  0.77011118700E+03  0.77011118701E+03  0.25500000000E-02 0. -1.
         -1   -1    0    0    0  501 -0.00000000000E+00 -0.00000000000E+00 -0.21479702705E+01  0.21479761834E+01  0.50400000000E-02 0.  1.
         24    2    1    2    0    0  0.17763568394E-14  0.00000000000E+00  0.76796321673E+03  0.77225916319E+03  0.81343179663E+02 0.  0.
         66    2    3    3    0    0  0.10162752845E+02  0.35272932521E+02  0.54993756312E+03  0.55116493416E+03  0.20000004482E+01 0.  0.
        -13    1    3    3    0    0 -0.10162752845E+02 -0.35272932521E+02  0.21802565361E+03  0.22109422903E+03  0.10566000000E+00 0.  1.
         13    1    4    4    0    0  0.52807408638E+01  0.18499600138E+02  0.27833273599E+03  0.27899685395E+03  0.10566000000E+00 0. -1.
        -13    1    4    4    0    0  0.25869876226E+01  0.70758740814E+01  0.11829260689E+03  0.11853232684E+03  0.10566000000E+00 0.  1.
        -14    1    4    4    0    0  0.22950243587E+01  0.96974583010E+01  0.15331222025E+03  0.15363575337E+03  0.00000000000E+00 0.  1.
<mgrwt>
<rscale>  0 0.81343180E+02</rscale>
<asrwt>0</asrwt>
<pdfrwt beam="1">  1        2 0.11847854E+00 0.81343180E+02</pdfrwt>
<pdfrwt beam="2">  1       -1 0.33045771E-03 0.81343180E+02</pdfrwt>
<totfact> 0.32683037E+05</totfact>
</mgrwt>
</event>
<event>
 8    1  0.2389776E-024  0.8137038E+02  0.7818608E-02  0.1325207E+00
          2   -1    0    0  501    0  0.00000000000E+00  0.00000000000E+00  0.10806537816E+04  0.10806537816E+04  0.25500000000E-02 0. -1.
         -1   -1    0    0    0  501 -0.00000000000E+00 -0.00000000000E+00 -0.15317396862E+01  0.15317479779E+01  0.50400000000E-02 0.  1.
         24    2    1    2    0    0  0.00000000000E+00  0.00000000000E+00  0.10791220419E+04  0.10821855296E+04  0.81370382143E+02 0.  0.
         66    2    3    3    0    0 -0.21419471285E+02 -0.16254470816E+02  0.94552702599E+03  0.94591139038E+03  0.19999996331E+01 0.  0.
        -13    1    3    3    0    0  0.21419471285E+02  0.16254470816E+02  0.13359501592E+03  0.13627413919E+03  0.10566000000E+00 0.  1.
         13    1    4    4    0    0 -0.30245261493E+01 -0.25814751480E+01  0.13195094799E+03  0.13201089202E+03  0.10566000000E+00 0.  1.
        -13    1    4    4    0    0 -0.93286061038E+01 -0.78973982755E+01  0.42421908403E+03  0.42439513924E+03  0.10566000000E+00 0. -1.
         14    1    4    4    0    0 -0.90663390318E+01 -0.57755973922E+01  0.38935699396E+03  0.38950535911E+03  0.00000000000E+00 0. -1.
<mgrwt>
<rscale>  0 0.81370382E+02</rscale>
<asrwt>0</asrwt>
<pdfrwt beam="1">  1        2 0.16625421E+00 0.81370382E+02</pdfrwt>
<pdfrwt beam="2">  1       -1 0.23565321E-03 0.81370382E+02</pdfrwt>
<totfact> 0.33744469E+05</totfact>
</mgrwt>
</event>
<event>
 8    1  0.2389776E-024  0.8038095E+02  0.7818608E-02  0.1327974E+00
         -1   -1    0    0    0  501 -0.00000000000E+00  0.00000000000E+00  0.35986506242E+01  0.35986541536E+01  0.50400000000E-02 0.  1.
          2   -1    0    0  501    0  0.00000000000E+00 -0.00000000000E+00 -0.44885527432E+03  0.44885527433E+03  0.25500000000E-02 0. -1.
         24    2    1    2    0    0  0.00000000000E+00  0.00000000000E+00 -0.44525662370E+03  0.45245392848E+03  0.80380945831E+02 0.  0.
         66    2    3    3    0    0 -0.27558603993E+02  0.18370739973E+02 -0.35066731637E+03  0.35223362632E+03  0.19999994178E+01 0.  0.
        -13    1    3    3    0    0  0.27558603993E+02 -0.18370739973E+02 -0.94589307325E+02  0.10022030216E+03  0.10566000000E+00 0.  1.
         13    1    4    4    0    0 -0.13293434777E+02  0.89293801309E+01 -0.17194955631E+03  0.17269368927E+03  0.10566000000E+00 0. -1.
        -13    1    4    4    0    0 -0.13207597301E+02  0.85326870319E+01 -0.16025709131E+03  0.16102668677E+03  0.10566000000E+00 0.  1.
        -14    1    4    4    0    0 -0.10575719160E+01  0.90867281020E+00 -0.18460668756E+02  0.18513250270E+02  0.00000000000E+00 0.  1.
<mgrwt>
<rscale>  0 0.80380946E+02</rscale>
<asrwt>0</asrwt>
<pdfrwt beam="1">  1        2 0.69054613E-01 0.80380946E+02</pdfrwt>
<pdfrwt beam="2">  1       -1 0.55363919E-03 0.80380946E+02</pdfrwt>
<totfact> 0.29031203E+05</totfact>
</mgrwt>
</event>
<event>
 8    1  0.2389776E-024  0.7959238E+02  0.7818608E-02  0.1330212E+00
          2   -1    0    0  501    0  0.00000000000E+00  0.00000000000E+00  0.19603426770E+03  0.19603426772E+03  0.25500000000E-02 0. -1.
         -1   -1    0    0    0  501 -0.00000000000E+00 -0.00000000000E+00 -0.80788768739E+01  0.80788784460E+01  0.50400000000E-02 0.  1.
         24    2    1    2    0    0 -0.35527136788E-14  0.00000000000E+00  0.18795539083E+03  0.20411314616E+03  0.79592383403E+02 0.  0.
         66    2    3    3    0    0  0.22377505399E+02  0.88779948415E+01  0.17522042708E+03  0.17687783809E+03  0.20000001448E+01 0.  0.
        -13    1    3    3    0    0 -0.22377505399E+02 -0.88779948415E+01  0.12734963748E+02  0.27235308075E+02  0.10566000000E+00 0.  1.
         13    1    4    4    0    0  0.81600319308E+01  0.39129302336E+01  0.64639386183E+02  0.65269890104E+02  0.10566000000E+00 0. -1.
        -13    1    4    4    0    0  0.83745232057E+01  0.30022611870E+01  0.69468332563E+02  0.70035752329E+02  0.10566000000E+00 0.  1.
         14    1    4    4    0    0  0.58429502620E+01  0.19628034209E+01  0.41112708333E+02  0.41572195655E+02  0.00000000000E+00 0. -1.
<mgrwt>
<rscale>  0 0.79592383E+02</rscale>
<asrwt>0</asrwt>
<pdfrwt beam="1">  1        2 0.30159117E-01 0.79592383E+02</pdfrwt>
<pdfrwt beam="2">  1       -1 0.12429043E-02 0.79592383E+02</pdfrwt>
<totfact> 0.22203261E+05</totfact>
</mgrwt>
</event>
<event>
 8    1  0.2389776E-024  0.7998678E+02  0.7818608E-02  0.1329089E+00
          2   -1    0    0  501    0  0.00000000000E+00  0.00000000000E+00  0.57025281123E+03  0.57025281123E+03  0.25500000000E-02 0. -1.
         -1   -1    0    0    0  501 -0.00000000000E+00 -0.00000000000E+00 -0.28048436612E+01  0.28048481893E+01  0.50400000000E-02 0.  1.
         24    2    1    2    0    0  0.00000000000E+00  0.00000000000E+00  0.56744796757E+03  0.57305765942E+03  0.79986780956E+02 0.  0.
         66    2    3    3    0    0 -0.20429165763E+02  0.24404726543E+02  0.45711431391E+03  0.45822531300E+03  0.20000005678E+01 0.  0.
        -13    1    3    3    0    0  0.20429165763E+02 -0.24404726543E+02  0.11033365366E+03  0.11483234643E+03  0.10566000000E+00 0.  1.
         13    1    4    4    0    0 -0.20342759934E+01  0.27761632985E+01  0.46394800432E+02  0.46522403556E+02  0.10566000000E+00 0. -1.
        -13    1    4    4    0    0 -0.14772011918E+02  0.16344366609E+02  0.31964176423E+03  0.32040009248E+03  0.10566000000E+00 0.  1.
        -14    1    4    4    0    0 -0.36228778522E+01  0.52841966363E+01  0.91077749242E+02  0.91302816961E+02  0.00000000000E+00 0.  1.
<mgrwt>
<rscale>  0 0.79986781E+02</rscale>
<asrwt>0</asrwt>
<pdfrwt beam="1">  1        2 0.87731144E-01 0.79986781E+02</pdfrwt>
<pdfrwt beam="2">  1       -1 0.43151504E-03 0.79986781E+02</pdfrwt>
<totfact> 0.31714251E+05</totfact>
</mgrwt>
</event>
<event>
 8    1  0.2389776E-024  0.8005056E+02  0.7818608E-02  0.1328908E+00
          2   -1    0    0  501    0  0.00000000000E+00  0.00000000000E+00  0.17860254379E+03  0.17860254381E+03  0.25500000000E-02 0. -1.
         -1   -1    0    0    0  501 -0.00000000000E+00 -0.00000000000E+00 -0.89697661267E+01  0.89697675427E+01  0.50400000000E-02 0.  1.
         24    2    1    2    0    0 -0.17763568394E-14  0.17763568394E-14  0.16963277767E+03  0.18757231135E+03  0.80050563570E+02 0.  0.
         66    2    3    3    0    0 -0.98836104741E+01  0.83013485259E+01  0.17358296307E+03  0.17407367172E+03  0.19999935603E+01 0.  0.
        -13    1    3    3    0    0  0.98836104741E+01 -0.83013485259E+01 -0.39501854003E+01  0.13498639638E+02  0.10566000000E+00 0.  1.
         13    1    4    4    0    0 -0.24210313506E+01  0.31312324758E+01  0.51055358252E+02  0.51208659227E+02  0.10566000000E+00 0.  1.
        -13    1    4    4    0    0 -0.13841455962E+01  0.82232671965E+00  0.19400163806E+02  0.19467141547E+02  0.10566000000E+00 0. -1.
        -14    1    4    4    0    0 -0.60784335273E+01  0.43477893304E+01  0.10312744101E+03  0.10339787094E+03  0.00000000000E+00 0.  1.
<mgrwt>
<rscale>  0 0.80050564E+02</rscale>
<asrwt>0</asrwt>
<pdfrwt beam="1">  1        2 0.27477314E-01 0.80050564E+02</pdfrwt>
<pdfrwt beam="2">  1       -1 0.13799641E-02 0.80050564E+02</pdfrwt>
<totfact> 0.21182841E+05</totfact>
</mgrwt>
</event>
<event>
 8    1  0.2389776E-024  0.8534337E+02  0.7818608E-02  0.1314537E+00
          2   -1    0    0  501    0  0.00000000000E+00  0.00000000000E+00  0.46145242717E+03  0.46145242717E+03  0.25500000000E-02 0. -1.
         -1   -1    0    0    0  501 -0.00000000000E+00 -0.00000000000E+00 -0.39459583336E+01  0.39459615523E+01  0.50400000000E-02 0.  1.
         24    2    1    2    0    0  0.00000000000E+00  0.00000000000E+00  0.45750646883E+03  0.46539838873E+03  0.85343372353E+02 0.  0.
         66    2    3    3    0    0 -0.18389952742E+02 -0.19965830415E+02  0.40825988319E+03  0.40916617281E+03  0.19999995252E+01 0.  0.
        -13    1    3    3    0    0  0.18389952742E+02  0.19965830415E+02  0.49246585641E+02  0.56232215921E+02  0.10566000000E+00 0.  1.
         13    1    4    4    0    0 -0.11597849637E+02 -0.12016302457E+02  0.24756700493E+03  0.24812967322E+03  0.10566000000E+00 0. -1.
        -13    1    4    4    0    0 -0.34212678965E+00 -0.25126403084E+00  0.45560101988E+01  0.45769615818E+01  0.10566000000E+00 0.  1.
         14    1    4    4    0    0 -0.64499763150E+01 -0.76982639277E+01  0.15613686807E+03  0.15645953800E+03  0.00000000000E+00 0. -1.
<mgrwt>
<rscale>  0 0.85343372E+02</rscale>
<asrwt>0</asrwt>
<pdfrwt beam="1">  1        2 0.70992670E-01 0.85343372E+02</pdfrwt>
<pdfrwt beam="2">  1       -1 0.60707086E-03 0.85343372E+02</pdfrwt>
<totfact> 0.25049185E+05</totfact>
</mgrwt>
</event>
<event>
 8    1  0.2389776E-024  0.7982723E+02  0.7818608E-02  0.1329542E+00
         -1   -1    0    0    0  501 -0.00000000000E+00  0.00000000000E+00  0.23398939056E+03  0.23398939061E+03  0.50400000000E-02 0.  1.
          2   -1    0    0  501    0  0.00000000000E+00 -0.00000000000E+00 -0.68084136681E+01  0.68084141457E+01  0.25500000000E-02 0. -1.
         24    2    1    2    0    0  0.71054273576E-14  0.00000000000E+00  0.22718097689E+03  0.24079780476E+03  0.79827229162E+02 0.  0.
         66    2    3    3    0    0 -0.38152009871E+02 -0.10099131553E+02  0.13112685836E+03  0.13695189408E+03  0.19999979080E+01 0.  0.
        -13    1    3    3    0    0  0.38152009871E+02  0.10099131553E+02  0.96054118528E+02  0.10384591068E+03  0.10566000000E+00 0.  1.
         13    1    4    4    0    0 -0.99444563314E+01 -0.27458959827E+01  0.35104466872E+02  0.36589163900E+02  0.10566000000E+00 0. -1.
        -13    1    4    4    0    0 -0.63056839486E+01 -0.22940349140E+01  0.21225735452E+02  0.22261339936E+02  0.10566000000E+00 0.  1.
         14    1    4    4    0    0 -0.21901869591E+02 -0.50592006563E+01  0.74796656040E+02  0.78101390242E+02  0.00000000000E+00 0. -1.
<mgrwt>
<rscale>  0 0.79827229E+02</rscale>
<asrwt>0</asrwt>
<pdfrwt beam="1">  1        2 0.10474481E-02 0.79827229E+02</pdfrwt>
<pdfrwt beam="2">  1       -1 0.35998375E-01 0.79827229E+02</pdfrwt>
<totfact> 0.95265888E+04</totfact>
</mgrwt>
</event>
<event>
 8    1  0.2389776E-024  0.7875962E+02  0.7818608E-02  0.1332609E+00
          2   -1    0    0  501    0  0.00000000000E+00  0.00000000000E+00  0.10319146757E+02  0.10319147073E+02  0.25500000000E-02 0. -1.
         -1   -1    0    0    0  501 -0.00000000000E+00 -0.00000000000E+00 -0.15028076284E+03  0.15028076292E+03  0.50400000000E-02 0.  1.
         24    2    1    2    0    0  0.00000000000E+00 -0.35527136788E-14 -0.13996161608E+03  0.16059990999E+03  0.78759616013E+02 0.  0.
         66    2    3    3    0    0 -0.36569232742E+02  0.14134779547E+02 -0.63061831918E+02  0.74282537789E+02  0.19999998399E+01 0.  0.
        -13    1    3    3    0    0  0.36569232742E+02 -0.14134779547E+02 -0.76899784163E+02  0.86317372206E+02  0.10566000000E+00 0.  1.
         13    1    4    4    0    0 -0.21585247401E+02  0.80607375740E+01 -0.36051961595E+02  0.42786136709E+02  0.10566000000E+00 0. -1.
        -13    1    4    4    0    0 -0.10386933859E+02  0.39181626054E+01 -0.19284906303E+02  0.22252172216E+02  0.10566000000E+00 0.  1.
         14    1    4    4    0    0 -0.45970514827E+01  0.21558793678E+01 -0.77249640201E+01  0.92442288642E+01  0.00000000000E+00 0. -1.
<mgrwt>
<rscale>  0 0.78759616E+02</rscale>
<asrwt>0</asrwt>
<pdfrwt beam="1">  1        2 0.15875612E-02 0.78759616E+02</pdfrwt>
<pdfrwt beam="2">  1       -1 0.23120116E-01 0.78759616E+02</pdfrwt>
<totfact> 0.11216420E+05</totfact>
</mgrwt>
</event>
<event>
 8    1  0.2389776E-024  0.8002607E+02  0.7818608E-02  0.1328977E+00
         -1   -1    0    0    0  501 -0.00000000000E+00  0.00000000000E+00  0.62290572746E+01  0.62290593135E+01  0.50400000000E-02 0.  1.
          2   -1    0    0  501    0  0.00000000000E+00 -0.00000000000E+00 -0.25702810480E+03  0.25702810482E+03  0.25500000000E-02 0. -1.
         24    2    1    2    0    0 -0.22204460493E-15  0.35527136788E-14 -0.25079904753E+03  0.26325716413E+03  0.80026072153E+02 0.  0.
         66    2    3    3    0    0  0.10365638489E+01 -0.24277229489E+02 -0.22995056992E+03  0.23123953587E+03  0.20000026577E+01 0.  0.
        -13    1    3    3    0    0 -0.10365638489E+01  0.24277229489E+02 -0.20848477615E+02  0.32017628257E+02  0.10566000000E+00 0.  1.
         13    1    4    4    0    0  0.88919109358E-01 -0.10983508216E+02 -0.10227261606E+03  0.10286080166E+03  0.10566000000E+00 0. -1.
        -13    1    4    4    0    0  0.15562316866E+00 -0.38515261316E+01 -0.42877827791E+02  0.43050874001E+02  0.10566000000E+00 0.  1.
        -14    1    4    4    0    0  0.79202157084E+00 -0.94421951419E+01 -0.84800126067E+02  0.85327860211E+02  0.00000000000E+00 0.  1.
<mgrwt>
<rscale>  0 0.80026072E+02</rscale>
<asrwt>0</asrwt>
<pdfrwt beam="1">  1        2 0.39542777E-01 0.80026072E+02</pdfrwt>
<pdfrwt beam="2">  1       -1 0.95831686E-03 0.80026072E+02</pdfrwt>
<totfact> 0.24086343E+05</totfact>
</mgrwt>
</event>
<event>
 8    1  0.2389776E-024  0.8033107E+02  0.7818608E-02  0.1328115E+00
          2   -1    0    0  501    0  0.00000000000E+00  0.00000000000E+00  0.49495441348E+03  0.49495441348E+03  0.25500000000E-02 0. -1.
         -1   -1    0    0    0  501 -0.00000000000E+00 -0.00000000000E+00 -0.32594302663E+01  0.32594341629E+01  0.50400000000E-02 0.  1.
         24    2    1    2    0    0  0.00000000000E+00 -0.17763568394E-14  0.49169498321E+03  0.49821384764E+03  0.80331074138E+02 0.  0.
         66    2    3    3    0    0  0.37419266887E+02 -0.12050226530E+02  0.29632976504E+03  0.29893266658E+03  0.20000009763E+01 0.  0.
        -13    1    3    3    0    0 -0.37419266887E+02  0.12050226530E+02  0.19536521817E+03  0.19928118107E+03  0.10566000000E+00 0.  1.
         13    1    4    4    0    0  0.19377184020E+02 -0.71507351768E+01  0.15290840256E+03  0.15429711278E+03  0.10566000000E+00 0. -1.
        -13    1    4    4    0    0  0.98448551901E+01 -0.24376776335E+01  0.78062920031E+02  0.78719083415E+02  0.10566000000E+00 0.  1.
         14    1    4    4    0    0  0.81972276768E+01 -0.24618137202E+01  0.65358442451E+02  0.65916470385E+02  0.00000000000E+00 0. -1.
<mgrwt>
<rscale>  0 0.80331074E+02</rscale>
<asrwt>0</asrwt>
<pdfrwt beam="1">  1        2 0.76146848E-01 0.80331074E+02</pdfrwt>
<pdfrwt beam="2">  1       -1 0.50145101E-03 0.80331074E+02</pdfrwt>
<totfact> 0.30027761E+05</totfact>
</mgrwt>
</event>
<event>
 8    1  0.2389776E-024  0.7954016E+02  0.7818608E-02  0.1330361E+00
         -1   -1    0    0    0  501 -0.00000000000E+00  0.00000000000E+00  0.44981549647E+01  0.44981577882E+01  0.50400000000E-02 0.  1.
          2   -1    0    0  501    0  0.00000000000E+00 -0.00000000000E+00 -0.35162392170E+03  0.35162392171E+03  0.25500000000E-02 0. -1.
         24    2    1    2    0    0 -0.88817841970E-15  0.00000000000E+00 -0.34712576674E+03  0.35612207950E+03  0.79540163277E+02 0.  0.
         66    2    3    3    0    0 -0.69633867173E+01 -0.32687723318E+02 -0.26997802432E+03  0.27204615349E+03  0.20000005940E+01 0.  0.
        -13    1    3    3    0    0  0.69633867173E+01  0.32687723318E+02 -0.77147742416E+02  0.84075926009E+02  0.10566000000E+00 0.  1.
         13    1    4    4    0    0 -0.53225841010E+01 -0.24592991519E+02 -0.19814801397E+03  0.19973930944E+03  0.10566000000E+00 0. -1.
        -13    1    4    4    0    0 -0.13168985759E+01 -0.55317663116E+01 -0.47024936309E+02  0.47367609812E+02  0.10566000000E+00 0.  1.
         14    1    4    4    0    0 -0.32390404032E+00 -0.25629654873E+01 -0.24805074042E+02  0.24939234233E+02  0.00000000000E+00 0. -1.
<mgrwt>
<rscale>  0 0.79540163E+02</rscale>
<asrwt>0</asrwt>
<pdfrwt beam="1">  1        2 0.54095966E-01 0.79540163E+02</pdfrwt>
<pdfrwt beam="2">  1       -1 0.69202434E-03 0.79540163E+02</pdfrwt>
<totfact> 0.27404243E+05</totfact>
</mgrwt>
</event>
<event>
 8    1  0.2389776E-024  0.7549243E+02  0.7818608E-02  0.1342353E+00
          2   -1    0    0  501    0  0.00000000000E+00  0.00000000000E+00  0.25779728850E+03  0.25779728851E+03  0.25500000000E-02 0. -1.
         -1   -1    0    0    0  501 -0.00000000000E+00 -0.00000000000E+00 -0.55267310135E+01  0.55267333116E+01  0.50400000000E-02 0.  1.
         24    2    1    2    0    0  0.00000000000E+00  0.00000000000E+00  0.25227055748E+03  0.26332402182E+03  0.75492425415E+02 0.  0.
         66    2    3    3    0    0 -0.75527236976E+01 -0.14938559440E+02  0.24412742417E+03  0.24470881359E+03  0.20000057319E+01 0.  0.
        -13    1    3    3    0    0  0.75527236976E+01  0.14938559440E+02  0.81431333169E+01  0.18615208236E+02  0.10566000000E+00 0.  1.
         13    1    4    4    0    0 -0.26835547077E+01 -0.65806472405E+01  0.98941269582E+02  0.99196231654E+02  0.10566000000E+00 0. -1.
        -13    1    4    4    0    0 -0.39531860658E+01 -0.73378629329E+01  0.12859659577E+03  0.12886647167E+03  0.10566000000E+00 0.  1.
        -14    1    4    4    0    0 -0.91598292412E+00 -0.10200492667E+01  0.16589558811E+02  0.16646110259E+02  0.00000000000E+00 0.  1.
<mgrwt>
<rscale>  0 0.75492425E+02</rscale>
<asrwt>0</asrwt>
<pdfrwt beam="1">  1        2 0.39661127E-01 0.75492425E+02</pdfrwt>
<pdfrwt beam="2">  1       -1 0.85026636E-03 0.75492425E+02</pdfrwt>
<totfact> 0.28092901E+05</totfact>
</mgrwt>
</event>
<event>
 8    1  0.2389776E-024  0.8037312E+02  0.7818608E-02  0.1327996E+00
         -1   -1    0    0    0  501 -0.00000000000E+00  0.00000000000E+00  0.11040909523E+03  0.11040909534E+03  0.50400000000E-02 0.  1.
          2   -1    0    0  501    0  0.00000000000E+00 -0.00000000000E+00 -0.14627053445E+02  0.14627053668E+02  0.25500000000E-02 0. -1.
         24    2    1    2    0    0  0.00000000000E+00  0.00000000000E+00  0.95782041782E+02  0.12503614901E+03  0.80373123813E+02 0.  0.
         66    2    3    3    0    0  0.16866638869E+01 -0.39176906307E+02  0.61418438751E+02  0.72896498071E+02  0.19999973830E+01 0.  0.
        -13    1    3    3    0    0 -0.16866638869E+01  0.39176906307E+02  0.34363603032E+02  0.52139650940E+02  0.10566000000E+00 0.  1.
         13    1    4    4    0    0  0.10361128086E+01 -0.89409701661E+01  0.13524891523E+02  0.16246486759E+02  0.10566000000E+00 0. -1.
        -13    1    4    4    0    0  0.74359886957E+00 -0.29586882090E+02  0.46715073007E+02  0.55301408130E+02  0.10566000000E+00 0.  1.
         14    1    4    4    0    0 -0.93047791293E-01 -0.64905405021E+00  0.11784742209E+01  0.13486031814E+01  0.00000000000E+00 0. -1.
<mgrwt>
<rscale>  0 0.80373124E+02</rscale>
<asrwt>0</asrwt>
<pdfrwt beam="1">  1        2 0.22503160E-02 0.80373124E+02</pdfrwt>
<pdfrwt beam="2">  1       -1 0.16986014E-01 0.80373124E+02</pdfrwt>
<totfact> 0.11465772E+05</totfact>
</mgrwt>
</event>
<event>
 8    1  0.2389776E-024  0.8088440E+02  0.7818608E-02  0.1326560E+00
         -1   -1    0    0    0  501 -0.00000000000E+00  0.00000000000E+00  0.21154354259E+01  0.21154414298E+01  0.50400000000E-02 0.  1.
          2   -1    0    0  501    0  0.00000000000E+00 -0.00000000000E+00 -0.77315956721E+03  0.77315956722E+03  0.25500000000E-02 0. -1.
         24    2    1    2    0    0  0.00000000000E+00  0.00000000000E+00 -0.77104413179E+03  0.77527500865E+03  0.80884398182E+02 0.  0.
         66    2    3    3    0    0 -0.76771787886E+01  0.32461242931E+02 -0.60451624298E+03  0.60543914588E+03  0.19999930320E+01 0.  0.
        -13    1    3    3    0    0  0.76771787886E+01 -0.32461242931E+02 -0.16652788881E+03  0.16983586277E+03  0.10566000000E+00 0.  1.
         13    1    4    4    0    0 -0.46751643927E+01  0.18117033780E+02 -0.32858873020E+03  0.32912102463E+03  0.10566000000E+00 0. -1.
        -13    1    4    4    0    0 -0.49595894310E+00  0.44865896204E+01 -0.83512166874E+02  0.83634135624E+02  0.10566000000E+00 0.  1.
        -14    1    4    4    0    0 -0.25060554527E+01  0.98576195309E+01 -0.19241534590E+03  0.19268398562E+03  0.00000000000E+00 0.  1.
<mgrwt>
<rscale>  0 0.80884398E+02</rscale>
<asrwt>0</asrwt>
<pdfrwt beam="1">  1        2 0.11894740E+00 0.80884398E+02</pdfrwt>
<pdfrwt beam="2">  1       -1 0.32545268E-03 0.80884398E+02</pdfrwt>
<totfact> 0.33192354E+05</totfact>
</mgrwt>
</event>
<event>
 8    1  0.2389776E-024  0.7725896E+02  0.7818608E-02  0.1337015E+00
          2   -1    0    0  501    0  0.00000000000E+00  0.00000000000E+00  0.15809745556E+02  0.15809745762E+02  0.25500000000E-02 0. -1.
         -1   -1    0    0    0  501 -0.00000000000E+00 -0.00000000000E+00 -0.94387130962E+02  0.94387131097E+02  0.50400000000E-02 0.  1.
         24    2    1    2    0    0  0.00000000000E+00  0.35527136788E-14 -0.78577385406E+02  0.11019687686E+03  0.77258955288E+02 0.  0.
         66    2    3    3    0    0  0.30714907486E+02 -0.23378788794E+02 -0.40039881638E+02  0.55652182634E+02  0.20000007314E+01 0.  0.
        -13    1    3    3    0    0 -0.30714907486E+02  0.23378788794E+02 -0.38537503768E+02  0.54544694225E+02  0.10566000000E+00 0.  1.
         13    1    4    4    0    0  0.12142916370E+02 -0.89567207001E+01 -0.15463425279E+02  0.21605599946E+02  0.10566000000E+00 0. -1.
        -13    1    4    4    0    0  0.89524796744E+01 -0.72459340681E+01 -0.13061732993E+02  0.17414662950E+02  0.10566000000E+00 0.  1.
        -14    1    4    4    0    0  0.96195114424E+01 -0.71761340262E+01 -0.11514723366E+02  0.16631919737E+02  0.00000000000E+00 0.  1.
<mgrwt>
<rscale>  0 0.77258955E+02</rscale>
<asrwt>0</asrwt>
<pdfrwt beam="1">  1        2 0.24322686E-02 0.77258955E+02</pdfrwt>
<pdfrwt beam="2">  1       -1 0.14521097E-01 0.77258955E+02</pdfrwt>
<totfact> 0.13086102E+05</totfact>
</mgrwt>
</event>
<event>
 8    1  0.2389776E-024  0.7937399E+02  0.7818608E-02  0.1330837E+00
         -1   -1    0    0    0  501 -0.00000000000E+00  0.00000000000E+00  0.23710159803E+01  0.23710213370E+01  0.50400000000E-02 0.  1.
          2   -1    0    0  501    0  0.00000000000E+00 -0.00000000000E+00 -0.66429571469E+03  0.66429571469E+03  0.25500000000E-02 0. -1.
         24    2    1    2    0    0 -0.88817841970E-15  0.00000000000E+00 -0.66192469871E+03  0.66666673603E+03  0.79373989251E+02 0.  0.
         66    2    3    3    0    0  0.55932691571E+01  0.12725727661E+02 -0.64316312410E+03  0.64331643303E+03  0.19999999515E+01 0.  0.
        -13    1    3    3    0    0 -0.55932691571E+01 -0.12725727661E+02 -0.18761574604E+02  0.23350302996E+02  0.10566000000E+00 0.  1.
         13    1    4    4    0    0  0.26912984976E+01  0.50379937576E+01 -0.28985525713E+03  0.28991154809E+03  0.10566000000E+00 0. -1.
        -13    1    4    4    0    0 -0.41364837046E-01  0.45984705334E+00 -0.22322940213E+02  0.22327964398E+02  0.10566000000E+00 0.  1.
        -14    1    4    4    0    0  0.29433354965E+01  0.72278868501E+01 -0.33098492676E+03  0.33107692054E+03  0.00000000000E+00 0.  1.
<mgrwt>
<rscale>  0 0.79373989E+02</rscale>
<asrwt>0</asrwt>
<pdfrwt beam="1">  1        2 0.10219919E+00 0.79373989E+02</pdfrwt>
<pdfrwt beam="2">  1       -1 0.36477263E-03 0.79373989E+02</pdfrwt>
<totfact> 0.33718678E+05</totfact>
</mgrwt>
</event>
<event>
 8    1  0.2389776E-024  0.7964001E+02  0.7818608E-02  0.1330076E+00
          2   -1    0    0  501    0  0.00000000000E+00  0.00000000000E+00  0.25203869282E+03  0.25203869284E+03  0.25500000000E-02 0. -1.
         -1   -1    0    0    0  501 -0.00000000000E+00 -0.00000000000E+00 -0.62912266856E+01  0.62912287044E+01  0.50400000000E-02 0.  1.
         24    2    1    2    0    0 -0.17763568394E-14  0.35527136788E-14  0.24574746614E+03  0.25832992154E+03  0.79640010360E+02 0.  0.
         66    2    3    3    0    0 -0.10187420793E+02  0.11682369515E+02  0.24183973397E+03  0.24234421434E+03  0.19999996399E+01 0.  0.
        -13    1    3    3    0    0  0.10187420793E+02 -0.11682369515E+02  0.39077321676E+01  0.15985707198E+02  0.10566000000E+00 0.  1.
         13    1    4    4    0    0 -0.17836402908E+01  0.17135423781E+01  0.35130746349E+02  0.35217866250E+02  0.10566000000E+00 0. -1.
        -13    1    4    4    0    0 -0.48428530948E+01  0.47810204734E+01  0.98936120749E+02  0.99169947745E+02  0.10566000000E+00 0.  1.
         14    1    4    4    0    0 -0.35609274071E+01  0.51878066638E+01  0.10777286687E+03  0.10795640035E+03  0.00000000000E+00 0. -1.
<mgrwt>
<rscale>  0 0.79640010E+02</rscale>
<asrwt>0</asrwt>
<pdfrwt beam="1">  1        2 0.38775182E-01 0.79640010E+02</pdfrwt>
<pdfrwt beam="2">  1       -1 0.96788123E-03 0.79640010E+02</pdfrwt>
<totfact> 0.24223344E+05</totfact>
</mgrwt>
</event>
<event>
 8    1  0.2389776E-024  0.7909542E+02  0.7818608E-02  0.1331638E+00
          2   -1    0    0  501    0  0.00000000000E+00  0.00000000000E+00  0.32181311266E+02  0.32181311367E+02  0.25500000000E-02 0. -1.
         -1   -1    0    0    0  501 -0.00000000000E+00 -0.00000000000E+00 -0.48600297369E+02  0.48600297630E+02  0.50400000000E-02 0.  1.
         24    2    1    2    0    0 -0.35527136788E-14 -0.71054273576E-14 -0.16418986103E+02  0.80781608997E+02  0.79095418626E+02 0.  0.
         66    2    3    3    0    0 -0.17312946405E+02 -0.35209775971E+02 -0.33648167625E+01  0.39430805640E+02  0.20000011094E+01 0.  0.
        -13    1    3    3    0    0  0.17312946405E+02  0.35209775971E+02 -0.13054169340E+02  0.41350803358E+02  0.10566000000E+00 0.  1.
         13    1    4    4    0    0 -0.45463232919E+01 -0.95497969709E+01 -0.30582415842E+00  0.10581699774E+02  0.10566000000E+00 0. -1.
        -13    1    4    4    0    0 -0.29956842256E+00 -0.10172093797E+01 -0.20416010760E+00  0.10850352746E+01  0.10566000000E+00 0.  1.
         14    1    4    4    0    0 -0.12467054690E+02 -0.24642769620E+02 -0.28548324965E+01  0.27764070591E+02  0.00000000000E+00 0. -1.
<mgrwt>
<rscale>  0 0.79095419E+02</rscale>
<asrwt>0</asrwt>
<pdfrwt beam="1">  1        2 0.49509710E-02 0.79095419E+02</pdfrwt>
<pdfrwt beam="2">  1       -1 0.74769689E-02 0.79095419E+02</pdfrwt>
<totfact> 0.14083301E+05</totfact>
</mgrwt>
</event>
<event>
 8    1  0.2389776E-024  0.7833588E+02  0.7818608E-02  0.1333841E+00
          2   -1    0    0  501    0  0.00000000000E+00  0.00000000000E+00  0.45104232644E+03  0.45104232645E+03  0.25500000000E-02 0. -1.
         -1   -1    0    0    0  501 -0.00000000000E+00 -0.00000000000E+00 -0.34012916921E+01  0.34012954263E+01  0.50400000000E-02 0.  1.
         24    2    1    2    0    0 -0.71054273576E-14  0.00000000000E+00  0.44764103475E+03  0.45444362187E+03  0.78335876017E+02 0.  0.
         66    2    3    3    0    0 -0.26091447134E+02 -0.23986255180E+02  0.32034631278E+03  0.32230709605E+03  0.20000007569E+01 0.  0.
        -13    1    3    3    0    0  0.26091447134E+02  0.23986255180E+02  0.12729472196E+03  0.13213652582E+03  0.10566000000E+00 0.  1.
         13    1    4    4    0    0 -0.17029477223E+02 -0.14771720833E+02  0.20533506718E+03  0.20656889361E+03  0.10566000000E+00 0. -1.
        -13    1    4    4    0    0 -0.77107233165E+01 -0.77041129625E+01  0.94236498092E+02  0.94864837254E+02  0.10566000000E+00 0.  1.
         14    1    4    4    0    0 -0.13512465943E+01 -0.15104213840E+01  0.20774747513E+02  0.20873365190E+02  0.00000000000E+00 0. -1.
<mgrwt>
<rscale>  0 0.78335876E+02</rscale>
<asrwt>0</asrwt>
<pdfrwt beam="1">  1        2 0.69391168E-01 0.78335876E+02</pdfrwt>
<pdfrwt beam="2">  1       -1 0.52327563E-03 0.78335876E+02</pdfrwt>
<totfact> 0.31099249E+05</totfact>
</mgrwt>
</event>
<event>
 8    1  0.2389776E-024  0.8047810E+02  0.7818608E-02  0.1327700E+00
          2   -1    0    0  501    0  0.00000000000E+00  0.00000000000E+00  0.17621014184E+02  0.17621014369E+02  0.25500000000E-02 0. -1.
         -1   -1    0    0    0  501 -0.00000000000E+00 -0.00000000000E+00 -0.91889205883E+02  0.91889206021E+02  0.50400000000E-02 0.  1.
         24    2    1    2    0    0  0.00000000000E+00  0.00000000000E+00 -0.74268191699E+02  0.10951022039E+03  0.80478096844E+02 0.  0.
         66    2    3    3    0    0 -0.18865157712E+02  0.25781493934E+02 -0.39203125448E+01  0.32248231867E+02  0.20000007812E+01 0.  0.
        -13    1    3    3    0    0  0.18865157712E+02 -0.25781493934E+02 -0.70347879154E+02  0.77261988523E+02  0.10566000000E+00 0.  1.
         13    1    4    4    0    0 -0.11809984260E+01  0.11224093222E+01 -0.41755809322E-01  0.16332383635E+01  0.10566000000E+00 0. -1.
        -13    1    4    4    0    0 -0.87913434405E+01  0.11324001941E+02 -0.15950750091E+01  0.14424845503E+02  0.10566000000E+00 0.  1.
        -14    1    4    4    0    0 -0.88928158457E+01  0.13335082671E+02 -0.22834817263E+01  0.16190148001E+02  0.00000000000E+00 0.  1.
<mgrwt>
<rscale>  0 0.80478097E+02</rscale>
<asrwt>0</asrwt>
<pdfrwt beam="1">  1        2 0.27109253E-02 0.80478097E+02</pdfrwt>
<pdfrwt beam="2">  1       -1 0.14136801E-01 0.80478097E+02</pdfrwt>
<totfact> 0.11889839E+05</totfact>
</mgrwt>
</event>
<event>
 8    1  0.2389776E-024  0.8451026E+02  0.7818608E-02  0.1316718E+00
         -1   -1    0    0    0  501 -0.00000000000E+00  0.00000000000E+00  0.27658162750E+02  0.27658163209E+02  0.50400000000E-02 0.  1.
          2   -1    0    0  501    0  0.00000000000E+00 -0.00000000000E+00 -0.64555848994E+02  0.64555849045E+02  0.25500000000E-02 0. -1.
         24    2    1    2    0    0 -0.71054273576E-14  0.00000000000E+00 -0.36897686245E+02  0.92214012253E+02  0.84510264499E+02 0.  0.
         66    2    3    3    0    0 -0.32696917333E+02 -0.62047895190E+01 -0.46827215089E+02  0.57483700951E+02  0.19999965011E+01 0.  0.
        -13    1    3    3    0    0  0.32696917333E+02  0.62047895190E+01  0.99295288439E+01  0.34730311302E+02  0.10566000000E+00 0.  1.
         13    1    4    4    0    0 -0.21347319763E+01 -0.10523078967E+00 -0.24840152120E+01  0.32786658474E+01  0.10566000000E+00 0.  1.
        -13    1    4    4    0    0 -0.17124497973E+02 -0.30275538094E+01 -0.24706009810E+02  0.30212788644E+02  0.10566000000E+00 0. -1.
         14    1    4    4    0    0 -0.13437687384E+02 -0.30720049199E+01 -0.19637190067E+02  0.23992246459E+02  0.00000000000E+00 0. -1.
<mgrwt>
<rscale>  0 0.84510264E+02</rscale>
<asrwt>0</asrwt>
<pdfrwt beam="1">  1        2 0.99316690E-02 0.84510264E+02</pdfrwt>
<pdfrwt beam="2">  1       -1 0.42551020E-02 0.84510264E+02</pdfrwt>
<totfact> 0.13637532E+05</totfact>
</mgrwt>
</event>
<event>
 8    1  0.2389776E-024  0.7527658E+02  0.7818608E-02  0.1343017E+00
          2   -1    0    0  501    0  0.00000000000E+00  0.00000000000E+00  0.16548861070E+04  0.16548861070E+04  0.25500000000E-02 0. -1.
         -1   -1    0    0    0  501 -0.00000000000E+00 -0.00000000000E+00 -0.85602785024E+00  0.85604268702E+00  0.50400000000E-02 0.  1.
         24    2    1    2    0    0  0.00000000000E+00  0.00000000000E+00  0.16540300792E+04  0.16557421497E+04  0.75276580187E+02 0.  0.
         66    2    3    3    0    0  0.82007889067E+01  0.16858179507E+02  0.15447921294E+04  0.15449071733E+04  0.19999989045E+01 0.  0.
        -13    1    3    3    0    0 -0.82007889067E+01 -0.16858179507E+02  0.10923794977E+03  0.11083497638E+03  0.10566000000E+00 0.  1.
         13    1    4    4    0    0  0.57877093173E+01  0.12292160549E+02  0.11388021771E+04  0.11388832270E+04  0.10566000000E+00 0. -1.
        -13    1    4    4    0    0  0.21695240716E+01  0.43824369143E+01  0.39288722887E+03  0.39291767377E+03  0.10566000000E+00 0.  1.
        -14    1    4    4    0    0  0.24355551782E+00  0.18358204364E+00  0.13102723383E+02  0.13106272609E+02  0.00000000000E+00 0.  1.
<mgrwt>
<rscale>  0 0.75276580E+02</rscale>
<asrwt>0</asrwt>
<pdfrwt beam="1">  1        2 0.25459799E+00 0.75276580E+02</pdfrwt>
<pdfrwt beam="2">  1       -1 0.13169767E-03 0.75276580E+02</pdfrwt>
<totfact> 0.37243820E+05</totfact>
</mgrwt>
</event>
<event>
 8    1  0.2389776E-024  0.7974757E+02  0.7818608E-02  0.1329769E+00
         -1   -1    0    0    0  501 -0.00000000000E+00  0.00000000000E+00  0.14650749412E+02  0.14650750279E+02  0.50400000000E-02 0.  1.
          2   -1    0    0  501    0  0.00000000000E+00 -0.00000000000E+00 -0.10852130952E+03  0.10852130955E+03  0.25500000000E-02 0. -1.
         24    2    1    2    0    0 -0.17763568394E-14 -0.71054273576E-14 -0.93870560103E+02  0.12317205982E+03  0.79747565903E+02 0.  0.
         66    2    3    3    0    0 -0.98563864968E+01 -0.37734116893E+02 -0.59597915370E+02  0.71252532925E+02  0.19999998459E+01 0.  0.
        -13    1    3    3    0    0  0.98563864968E+01  0.37734116893E+02 -0.34272644733E+02  0.51919526900E+02  0.10566000000E+00 0.  1.
         13    1    4    4    0    0 -0.56846628060E+01 -0.23516593813E+02 -0.36435946159E+02  0.43737111385E+02  0.10566000000E+00 0. -1.
        -13    1    4    4    0    0 -0.20698326040E+01 -0.74849996998E+01 -0.11210939057E+02  0.13638392357E+02  0.10566000000E+00 0.  1.
        -14    1    4    4    0    0 -0.21018910868E+01 -0.67325233798E+01 -0.11951030154E+02  0.13877029183E+02  0.00000000000E+00 0.  1.
<mgrwt>
<rscale>  0 0.79747566E+02</rscale>
<asrwt>0</asrwt>
<pdfrwt beam="1">  1        2 0.16695586E-01 0.79747566E+02</pdfrwt>
<pdfrwt beam="2">  1       -1 0.22539616E-02 0.79747566E+02</pdfrwt>
<totfact> 0.18296532E+05</totfact>
</mgrwt>
</event>
<event>
 8    1  0.2389776E-024  0.7593121E+02  0.7818608E-02  0.1341011E+00
          2   -1    0    0  501    0  0.00000000000E+00  0.00000000000E+00  0.16573676982E+03  0.16573676984E+03  0.25500000000E-02 0. -1.
         -1   -1    0    0    0  501 -0.00000000000E+00 -0.00000000000E+00 -0.86968454807E+01  0.86968469411E+01  0.50400000000E-02 0.  1.
         24    2    1    2    0    0  0.00000000000E+00  0.00000000000E+00  0.15703992434E+03  0.17443361678E+03  0.75931211150E+02 0.  0.
         66    2    3    3    0    0  0.42352506894E+01  0.28886458334E+02  0.13423328263E+03  0.13738609468E+03  0.20000057190E+01 0.  0.
        -13    1    3    3    0    0 -0.42352506894E+01 -0.28886458334E+02  0.22806641708E+02  0.37047522097E+02  0.10566000000E+00 0.  1.
         13    1    4    4    0    0  0.76257696155E+00  0.56904558189E+01  0.25908465909E+02  0.26537192407E+02  0.10566000000E+00 0. -1.
        -13    1    4    4    0    0  0.28032994411E+01  0.21202670478E+02  0.96903049391E+02  0.99235194707E+02  0.10566000000E+00 0.  1.
        -14    1    4    4    0    0  0.66937428674E+00  0.19933320377E+01  0.11421767330E+02  0.11613707569E+02  0.00000000000E+00 0.  1.
<mgrwt>
<rscale>  0 0.75931211E+02</rscale>
<asrwt>0</asrwt>
<pdfrwt beam="1">  1        2 0.25497966E-01 0.75931211E+02</pdfrwt>
<pdfrwt beam="2">  1       -1 0.13379763E-02 0.75931211E+02</pdfrwt>
<totfact> 0.23752302E+05</totfact>
</mgrwt>
</event>
<event>
 8    1  0.2389776E-024  0.8817959E+02  0.7818608E-02  0.1307321E+00
         -1   -1    0    0    0  501 -0.00000000000E+00  0.00000000000E+00  0.23873350074E+02  0.23873350606E+02  0.50400000000E-02 0.  1.
          2   -1    0    0  501    0  0.00000000000E+00 -0.00000000000E+00 -0.81425941402E+02  0.81425941442E+02  0.25500000000E-02 0. -1.
         24    2    1    2    0    0  0.00000000000E+00  0.35527136788E-14 -0.57552591328E+02  0.10529929205E+03  0.88179590253E+02 0.  0.
         66    2    3    3    0    0 -0.36755183262E+02 -0.18404481141E+02 -0.47756430160E+02  0.63042406688E+02  0.19999991789E+01 0.  0.
        -13    1    3    3    0    0  0.36755183262E+02  0.18404481141E+02 -0.97961611688E+01  0.42256885360E+02  0.10566000000E+00 0.  1.
         13    1    4    4    0    0 -0.21359176068E+02 -0.10413935836E+02 -0.26282839705E+02  0.35432517394E+02  0.10566000000E+00 0. -1.
        -13    1    4    4    0    0 -0.19820192285E+01 -0.85800743139E+00 -0.26398273674E+01  0.34123935206E+01  0.10566000000E+00 0.  1.
        -14    1    4    4    0    0 -0.13413987965E+02 -0.71325378735E+01 -0.18833763087E+02  0.24197495773E+02  0.00000000000E+00 0.  1.
<mgrwt>
<rscale>  0 0.88179590E+02</rscale>
<asrwt>0</asrwt>
<pdfrwt beam="1">  1        2 0.12527068E-01 0.88179590E+02</pdfrwt>
<pdfrwt beam="2">  1       -1 0.36728232E-02 0.88179590E+02</pdfrwt>
<totfact> 0.12881366E+05</totfact>
</mgrwt>
</event>
<event>
 8    1  0.2389776E-024  0.7833398E+02  0.7818608E-02  0.1333847E+00
          2   -1    0    0  501    0  0.00000000000E+00  0.00000000000E+00  0.99706373736E+02  0.99706373769E+02  0.25500000000E-02 0. -1.
         -1   -1    0    0    0  501 -0.00000000000E+00 -0.00000000000E+00 -0.15385706846E+02  0.15385707672E+02  0.50400000000E-02 0.  1.
         24    2    1    2    0    0 -0.35527136788E-14 -0.35527136788E-14  0.84320666890E+02  0.11509208144E+03  0.78333979508E+02 0.  0.
         66    2    3    3    0    0  0.24815361104E+02 -0.20988696767E+02  0.74233548685E+02  0.81061379766E+02  0.20000001228E+01 0.  0.
        -13    1    3    3    0    0 -0.24815361104E+02  0.20988696767E+02  0.10087118205E+02  0.34030701674E+02  0.10566000000E+00 0.  1.
         13    1    4    4    0    0  0.67368629341E+00 -0.30774790319E+00  0.15752929940E+01  0.17439248970E+01  0.10566000000E+00 0. -1.
        -13    1    4    4    0    0  0.19959517353E+02 -0.17654776979E+02  0.61258931566E+02  0.66803752468E+02  0.10566000000E+00 0. -1.
         14    1    4    4    0    0  0.41821574576E+01 -0.30261718854E+01  0.11399324125E+02  0.12513702401E+02  0.00000000000E+00 0. -1.
<mgrwt>
<rscale>  0 0.78333980E+02</rscale>
<asrwt>0</asrwt>
<pdfrwt beam="1">  1        2 0.15339442E-01 0.78333980E+02</pdfrwt>
<pdfrwt beam="2">  1       -1 0.23670320E-02 0.78333980E+02</pdfrwt>
<totfact> 0.18737238E+05</totfact>
</mgrwt>
</event>
<event>
 8    1  0.2389776E-024  0.8022446E+02  0.7818608E-02  0.1328416E+00
         -1   -1    0    0    0  501 -0.00000000000E+00  0.00000000000E+00  0.72614129460E+02  0.72614129634E+02  0.50400000000E-02 0.  1.
          2   -1    0    0  501    0  0.00000000000E+00 -0.00000000000E+00 -0.22158096992E+02  0.22158097139E+02  0.25500000000E-02 0. -1.
         24    2    1    2    0    0  0.35527136788E-14  0.00000000000E+00  0.50456032468E+02  0.94772226773E+02  0.80224458584E+02 0.  0.
         66    2    3    3    0    0 -0.31592418695E+02 -0.22957980262E+02  0.35930435592E+02  0.53105046579E+02  0.19999984099E+01 0.  0.
        -13    1    3    3    0    0  0.31592418695E+02  0.22957980262E+02  0.14525596876E+02  0.41667180194E+02  0.10566000000E+00 0.  1.
         13    1    4    4    0    0 -0.14077104140E+02 -0.10546695459E+02  0.16930027588E+02  0.24413820763E+02  0.10566000000E+00 0. -1.
        -13    1    4    4    0    0 -0.69110925156E+01 -0.48213906170E+01  0.82076363299E+01  0.11763735181E+02  0.10566000000E+00 0.  1.
        -14    1    4    4    0    0 -0.10604222039E+02 -0.75898941854E+01  0.10792771675E+02  0.16927490636E+02  0.00000000000E+00 0.  1.
<mgrwt>
<rscale>  0 0.80224459E+02</rscale>
<asrwt>0</asrwt>
<pdfrwt beam="1">  1        2 0.34089379E-02 0.80224459E+02</pdfrwt>
<pdfrwt beam="2">  1       -1 0.11171405E-01 0.80224459E+02</pdfrwt>
<totfact> 0.12572756E+05</totfact>
</mgrwt>
</event>
<event>
 8    1  0.2389776E-024  0.8186435E+02  0.7818608E-02  0.1323842E+00
         -1   -1    0    0    0  501 -0.00000000000E+00  0.00000000000E+00  0.16588665466E+01  0.16588742029E+01  0.50400000000E-02 0.  1.
          2   -1    0    0  501    0  0.00000000000E+00 -0.00000000000E+00 -0.10099902270E+04  0.10099902270E+04  0.25500000000E-02 0. -1.
         24    2    1    2    0    0  0.00000000000E+00 -0.35527136788E-14 -0.10083313605E+04  0.10116491012E+04  0.81864348147E+02 0.  0.
         66    2    3    3    0    0  0.79630410744E+01 -0.26689077357E+02 -0.87472489452E+03  0.87517047366E+03  0.20000006549E+01 0.  0.
        -13    1    3    3    0    0 -0.79630410744E+01  0.26689077357E+02 -0.13360646595E+03  0.13647862757E+03  0.10566000000E+00 0.  1.
         13    1    4    4    0    0  0.66750491320E+01 -0.22136904842E+02 -0.71999307398E+03  0.72036423882E+03  0.10566000000E+00 0. -1.
        -13    1    4    4    0    0  0.34530791508E+00 -0.13995921898E+01 -0.59597031884E+02  0.59614557528E+02  0.10566000000E+00 0.  1.
         14    1    4    4    0    0  0.94268402736E+00 -0.31525803260E+01 -0.95134788655E+02  0.95191677306E+02  0.00000000000E+00 0. -1.
<mgrwt>
<rscale>  0 0.81864348E+02</rscale>
<asrwt>0</asrwt>
<pdfrwt beam="1">  1        2 0.15538262E+00 0.81864348E+02</pdfrwt>
<pdfrwt beam="2">  1       -1 0.25521163E-03 0.81864348E+02</pdfrwt>
<totfact> 0.33196156E+05</totfact>
</mgrwt>
</event>
<event>
 8    1  0.2389776E-024  0.7864902E+02  0.7818608E-02  0.1332930E+00
         -1   -1    0    0    0  501 -0.00000000000E+00  0.00000000000E+00  0.37405685432E+02  0.37405685772E+02  0.50400000000E-02 0.  1.
          2   -1    0    0  501    0  0.00000000000E+00 -0.00000000000E+00 -0.41341767480E+02  0.41341767559E+02  0.25500000000E-02 0. -1.
         24    2    1    2    0    0 -0.88817841970E-15  0.00000000000E+00 -0.39360820479E+01  0.78747453330E+02  0.78649022016E+02 0.  0.
         66    2    3    3    0    0  0.73086266388E+01 -0.17077516992E+02 -0.36644352221E+02  0.41132300643E+02  0.19999991355E+01 0.  0.
        -13    1    3    3    0    0 -0.73086266388E+01  0.17077516992E+02  0.32708270173E+02  0.37615152687E+02  0.10566000000E+00 0.  1.
         13    1    4    4    0    0  0.31589006443E+01 -0.65492624879E+01 -0.13886374055E+02  0.15675268446E+02  0.10566000000E+00 0. -1.
        -13    1    4    4    0    0  0.39684964223E+01 -0.90252419446E+01 -0.19009639327E+02  0.21414516277E+02  0.10566000000E+00 0.  1.
        -14    1    4    4    0    0  0.18122957214E+00 -0.15030125593E+01 -0.37483388388E+01  0.40425159198E+01  0.00000000000E+00 0.  1.
<mgrwt>
<rscale>  0 0.78649022E+02</rscale>
<asrwt>0</asrwt>
<pdfrwt beam="1">  1        2 0.63602719E-02 0.78649022E+02</pdfrwt>
<pdfrwt beam="2">  1       -1 0.57547209E-02 0.78649022E+02</pdfrwt>
<totfact> 0.15042521E+05</totfact>
</mgrwt>
</event>
<event>
 8    1  0.2389776E-024  0.8578345E+02  0.7818608E-02  0.1313396E+00
          2   -1    0    0  501    0  0.00000000000E+00  0.00000000000E+00  0.15041271703E+03  0.15041271705E+03  0.25500000000E-02 0. -1.
         -1   -1    0    0    0  501 -0.00000000000E+00 -0.00000000000E+00 -0.12231012405E+02  0.12231013444E+02  0.50400000000E-02 0.  1.
         24    2    1    2    0    0  0.00000000000E+00 -0.35527136788E-14  0.13818170463E+03  0.16264373050E+03  0.85783445819E+02 0.  0.
         66    2    3    3    0    0 -0.18770080862E+02  0.30092664078E+02  0.11478209656E+03  0.12015329406E+03  0.20000040964E+01 0.  0.
        -13    1    3    3    0    0  0.18770080862E+02 -0.30092664078E+02  0.23399608071E+02  0.42490436439E+02  0.10566000000E+00 0.  1.
         13    1    4    4    0    0 -0.49936148637E+01  0.86886134231E+01  0.30317553331E+02  0.31931072588E+02  0.10566000000E+00 0. -1.
        -13    1    4    4    0    0 -0.43427602533E+01  0.69434668499E+01  0.25669939219E+02  0.26944911246E+02  0.10566000000E+00 0.  1.
        -14    1    4    4    0    0 -0.94337057453E+01  0.14460583805E+02  0.58794604006E+02  0.61277310224E+02  0.00000000000E+00 0.  1.
<mgrwt>
<rscale>  0 0.85783446E+02</rscale>
<asrwt>0</asrwt>
<pdfrwt beam="1">  1        2 0.23140419E-01 0.85783446E+02</pdfrwt>
<pdfrwt beam="2">  1       -1 0.18816942E-02 0.85783446E+02</pdfrwt>
<totfact> 0.16646710E+05</totfact>
</mgrwt>
</event>
<event>
 8    1  0.2389776E-024  0.7850035E+02  0.7818608E-02  0.1333362E+00
          2   -1    0    0  501    0  0.00000000000E+00  0.00000000000E+00  0.81674001650E+03  0.81674001650E+03  0.25500000000E-02 0. -1.
         -1   -1    0    0    0  501 -0.00000000000E+00 -0.00000000000E+00 -0.18862470302E+01  0.18862537635E+01  0.50400000000E-02 0.  1.
         24    2    1    2    0    0  0.00000000000E+00  0.00000000000E+00  0.81485376947E+03  0.81862627026E+03  0.78500348744E+02 0.  0.
         66    2    3    3    0    0 -0.21624708136E+02  0.11814513904E+02  0.72594397330E+03  0.72636482783E+03  0.20000010829E+01 0.  0.
        -13    1    3    3    0    0  0.21624708136E+02 -0.11814513904E+02  0.88909796171E+02  0.92261442433E+02  0.10566000000E+00 0.  1.
         13    1    4    4    0    0 -0.12070196157E+02  0.66099490426E+01  0.42972166769E+03  0.42994197737E+03  0.10566000000E+00 0. -1.
        -13    1    4    4    0    0 -0.88792723636E+01  0.48266774083E+01  0.26988338705E+03  0.27007256814E+03  0.10566000000E+00 0.  1.
        -14    1    4    4    0    0 -0.67523961539E+00  0.37788745331E+00  0.26338918561E+02  0.26350282322E+02  0.00000000000E+00 0.  1.
<mgrwt>
<rscale>  0 0.78500349E+02</rscale>
<asrwt>0</asrwt>
<pdfrwt beam="1">  1        2 0.12565246E+00 0.78500349E+02</pdfrwt>
<pdfrwt beam="2">  1       -1 0.29019203E-03 0.78500349E+02</pdfrwt>
<totfact> 0.36220706E+05</totfact>
</mgrwt>
</event>
<event>
 8    1  0.2389776E-024  0.7938069E+02  0.7818608E-02  0.1330818E+00
         -1   -1    0    0    0  501 -0.00000000000E+00  0.00000000000E+00  0.72407844893E+01  0.72407862434E+01  0.50400000000E-02 0.  1.
          2   -1    0    0  501    0  0.00000000000E+00 -0.00000000000E+00 -0.21756249212E+03  0.21756249213E+03  0.25500000000E-02 0. -1.
         24    2    1    2    0    0 -0.88817841970E-15  0.35527136788E-14 -0.21032170763E+03  0.22480327837E+03  0.79380685742E+02 0.  0.
         66    2    3    3    0    0 -0.47937453671E+01  0.12725686290E+02 -0.21074974924E+03  0.21119749027E+03  0.20000014566E+01 0.  0.
        -13    1    3    3    0    0  0.47937453671E+01 -0.12725686290E+02  0.42804161514E+00  0.13605788102E+02  0.10566000000E+00 0.  1.
         13    1    4    4    0    0 -0.58539453374E+00  0.35290230379E+01 -0.62750990695E+02  0.62852960850E+02  0.10566000000E+00 0. -1.
        -13    1    4    4    0    0 -0.19215888857E+01  0.40967218726E+01 -0.63452921474E+02  0.63614149696E+02  0.10566000000E+00 0.  1.
         14    1    4    4    0    0 -0.22867619476E+01  0.50999413798E+01 -0.84545837074E+02  0.84730379728E+02  0.00000000000E+00 0. -1.
<mgrwt>
<rscale>  0 0.79380686E+02</rscale>
<asrwt>0</asrwt>
<pdfrwt beam="1">  1        2 0.33471148E-01 0.79380686E+02</pdfrwt>
<pdfrwt beam="2">  1       -1 0.11139672E-02 0.79380686E+02</pdfrwt>
<totfact> 0.23187601E+05</totfact>
</mgrwt>
</event>
<event>
 8    1  0.2389776E-024  0.8147052E+02  0.7818608E-02  0.1324929E+00
         -1   -1    0    0    0  501 -0.00000000000E+00  0.00000000000E+00  0.13520908376E+02  0.13520909316E+02  0.50400000000E-02 0.  1.
          2   -1    0    0  501    0  0.00000000000E+00 -0.00000000000E+00 -0.12272557273E+03  0.12272557276E+03  0.25500000000E-02 0. -1.
         24    2    1    2    0    0 -0.35527136788E-14  0.00000000000E+00 -0.10920466435E+03  0.13624648207E+03  0.81470517123E+02 0.  0.
         66    2    3    3    0    0  0.26895203073E+02 -0.28137003092E+02 -0.34684923476E+02  0.52173621791E+02  0.20000007163E+01 0.  0.
        -13    1    3    3    0    0 -0.26895203073E+02  0.28137003092E+02 -0.74519740877E+02  0.84072860280E+02  0.10566000000E+00 0.  1.
         13    1    4    4    0    0  0.12950638982E+02 -0.13960565246E+02 -0.17782357739E+02  0.26054555126E+02  0.10566000000E+00 0. -1.
        -13    1    4    4    0    0  0.41080111952E+00 -0.63865017492E+00 -0.56090877771E+00  0.94995489274E+00  0.10566000000E+00 0.  1.
         14    1    4    4    0    0  0.13533762972E+02 -0.13537787671E+02 -0.16341656959E+02  0.25169111772E+02  0.00000000000E+00 0. -1.
<mgrwt>
<rscale>  0 0.81470517E+02</rscale>
<asrwt>0</asrwt>
<pdfrwt beam="1">  1        2 0.18880857E-01 0.81470517E+02</pdfrwt>
<pdfrwt beam="2">  1       -1 0.20801399E-02 0.81470517E+02</pdfrwt>
<totfact> 0.17920648E+05</totfact>
</mgrwt>
</event>
<event>
 8    1  0.2389776E-024  0.7835383E+02  0.7818608E-02  0.1333789E+00
          2   -1    0    0  501    0  0.00000000000E+00  0.00000000000E+00  0.19693515394E+03  0.19693515396E+03  0.25500000000E-02 0. -1.
         -1   -1    0    0    0  501 -0.00000000000E+00 -0.00000000000E+00 -0.77935821981E+01  0.77935838278E+01  0.50400000000E-02 0.  1.
         24    2    1    2    0    0  0.00000000000E+00  0.00000000000E+00  0.18914157174E+03  0.20472873778E+03  0.78353825138E+02 0.  0.
         66    2    3    3    0    0 -0.35774754541E+02 -0.92413003744E+01  0.12845769368E+03  0.13368101498E+03  0.20000013192E+01 0.  0.
        -13    1    3    3    0    0  0.35774754541E+02  0.92413003744E+01  0.60683878061E+02  0.71047722804E+02  0.10566000000E+00 0.  1.
         13    1    4    4    0    0 -0.13204363613E+01 -0.23629287260E+00  0.45925962600E+01  0.47856547043E+01  0.10566000000E+00 0.  1.
        -13    1    4    4    0    0 -0.93184240414E+00  0.14942251873E-01  0.29384730817E+01  0.30845326428E+01  0.10566000000E+00 0.  1.
         14    1    4    4    0    0 -0.33522475775E+02 -0.90199497537E+01  0.12092662434E+03  0.12581082763E+03  0.00000000000E+00 0. -1.
<mgrwt>
<rscale>  0 0.78353825E+02</rscale>
<asrwt>0</asrwt>
<pdfrwt beam="1">  1        2 0.30297715E-01 0.78353825E+02</pdfrwt>
<pdfrwt beam="2">  1       -1 0.11990128E-02 0.78353825E+02</pdfrwt>
<totfact> 0.23177092E+05</totfact>
</mgrwt>
</event>
<event>
 8    1  0.2389776E-024  0.7996987E+02  0.7818608E-02  0.1329137E+00
         -1   -1    0    0    0  501 -0.00000000000E+00  0.00000000000E+00  0.51037408447E+01  0.51037433332E+01  0.50400000000E-02 0.  1.
          2   -1    0    0  501    0  0.00000000000E+00 -0.00000000000E+00 -0.31325934596E+03  0.31325934597E+03  0.25500000000E-02 0. -1.
         24    2    1    2    0    0  0.00000000000E+00 -0.71054273576E-14 -0.30815560511E+03  0.31836308930E+03  0.79969867243E+02 0.  0.
         66    2    3    3    0    0  0.22426561000E+02 -0.33010717471E+02 -0.16226614298E+03  0.16711361184E+03  0.19999997765E+01 0.  0.
        -13    1    3    3    0    0 -0.22426561000E+02  0.33010717471E+02 -0.14588946213E+03  0.15124947746E+03  0.10566000000E+00 0.  1.
         13    1    4    4    0    0  0.11472889944E+02 -0.17154691423E+02 -0.86359204966E+02  0.88790957241E+02  0.10566000000E+00 0. -1.
        -13    1    4    4    0    0  0.50893296836E+01 -0.69826935181E+01 -0.36013868750E+02  0.37036052595E+02  0.10566000000E+00 0.  1.
        -14    1    4    4    0    0  0.58643413723E+01 -0.88733325292E+01 -0.39893069263E+02  0.41286602005E+02  0.00000000000E+00 0.  1.
<mgrwt>
<rscale>  0 0.79969867E+02</rscale>
<asrwt>0</asrwt>
<pdfrwt beam="1">  1        2 0.48193730E-01 0.79969867E+02</pdfrwt>
<pdfrwt beam="2">  1       -1 0.78519134E-03 0.79969867E+02</pdfrwt>
<totfact> 0.25922015E+05</totfact>
</mgrwt>
</event>
<event>
 8    1  0.2389776E-024  0.8037605E+02  0.7818608E-02  0.1327988E+00
         -1   -1    0    0    0  501 -0.00000000000E+00  0.00000000000E+00  0.84007109085E+00  0.84008620944E+00  0.50400000000E-02 0.  1.
          2   -1    0    0  501    0  0.00000000000E+00 -0.00000000000E+00 -0.19225311209E+04  0.19225311209E+04  0.25500000000E-02 0. -1.
         24    2    1    2    0    0  0.00000000000E+00  0.00000000000E+00 -0.19216910498E+04  0.19233712071E+04  0.80376050086E+02 0.  0.
         66    2    3    3    0    0 -0.41546996101E+01  0.16879762207E+02 -0.18278392250E+04  0.18279229799E+04  0.19999890490E+01 0.  0.
        -13    1    3    3    0    0  0.41546996101E+01 -0.16879762207E+02 -0.93851824801E+02  0.95448227241E+02  0.10566000000E+00 0.  1.
         13    1    4    4    0    0 -0.12488832499E+00  0.28654933520E+01 -0.30766341921E+03  0.30767680662E+03  0.10566000000E+00 0. -1.
        -13    1    4    4    0    0 -0.19461156218E+01  0.56419588991E+01 -0.57428774588E+03  0.57431876627E+03  0.10566000000E+00 0.  1.
         14    1    4    4    0    0 -0.20836956633E+01  0.83723099562E+01 -0.94588805990E+03  0.94592740695E+03  0.00000000000E+00 0. -1.
<mgrwt>
<rscale>  0 0.80376050E+02</rscale>
<asrwt>0</asrwt>
<pdfrwt beam="1">  1        2 0.29577050E+00 0.80376050E+02</pdfrwt>
<pdfrwt beam="2">  1       -1 0.12924441E-03 0.80376050E+02</pdfrwt>
<totfact> 0.28394090E+05</totfact>
</mgrwt>
</event>
<event>
 8    1  0.2389776E-024  0.7930876E+02  0.7818608E-02  0.1331025E+00
         -1   -1    0    0    0  501 -0.00000000000E+00  0.00000000000E+00  0.75714404546E+01  0.75714421320E+01  0.50400000000E-02 0.  1.
          2   -1    0    0  501    0  0.00000000000E+00 -0.00000000000E+00 -0.20768437297E+03  0.20768437299E+03  0.25500000000E-02 0. -1.
         24    2    1    2    0    0  0.00000000000E+00  0.00000000000E+00 -0.20011293252E+03  0.21525581512E+03  0.79308764851E+02 0.  0.
         66    2    3    3    0    0 -0.22847109036E+02 -0.30240818839E+02 -0.13153466556E+03  0.13690093411E+03  0.20000001161E+01 0.  0.
        -13    1    3    3    0    0  0.22847109036E+02  0.30240818839E+02 -0.68578266955E+02  0.78354881009E+02  0.10566000000E+00 0.  1.
         13    1    4    4    0    0 -0.89423422830E+01 -0.13270058430E+02 -0.55581381676E+02  0.57839096547E+02  0.10566000000E+00 0. -1.
        -13    1    4    4    0    0 -0.12618250852E+02 -0.15539885799E+02 -0.69921705313E+02  0.72730766138E+02  0.10566000000E+00 0.  1.
        -14    1    4    4    0    0 -0.12865159006E+01 -0.14308746094E+01 -0.60315785755E+01  0.63310714277E+01  0.00000000000E+00 0.  1.
<mgrwt>
<rscale>  0 0.79308765E+02</rscale>
<asrwt>0</asrwt>
<pdfrwt beam="1">  1        2 0.31951438E-01 0.79308765E+02</pdfrwt>
<pdfrwt beam="2">  1       -1 0.11648373E-02 0.79308765E+02</pdfrwt>
<totfact> 0.22867397E+05</totfact>
</mgrwt>
</event>
<event>
 8    1  0.2389776E-024  0.8001721E+02  0.7818608E-02  0.1329003E+00
         -1   -1    0    0    0  501 -0.00000000000E+00  0.00000000000E+00  0.81964174584E+01  0.81964190080E+01  0.50400000000E-02 0.  1.
          2   -1    0    0  501    0  0.00000000000E+00 -0.00000000000E+00 -0.19529119581E+03  0.19529119583E+03  0.25500000000E-02 0. -1.
         24    2    1    2    0    0  0.00000000000E+00  0.00000000000E+00 -0.18709477836E+03  0.20348761484E+03  0.80017206305E+02 0.  0.
         66    2    3    3    0    0  0.16987136919E+02  0.36192163892E+02 -0.92339708425E+02  0.10064321786E+03  0.20000004312E+01 0.  0.
        -13    1    3    3    0    0 -0.16987136919E+02 -0.36192163892E+02 -0.94755069930E+02  0.10284439698E+03  0.10566000000E+00 0.  1.
         13    1    4    4    0    0  0.58967322941E+01  0.13974279340E+02 -0.36685321585E+02  0.39697303670E+02  0.10566000000E+00 0. -1.
        -13    1    4    4    0    0  0.31526107211E+01  0.68722204093E+01 -0.16735693997E+02  0.18364666762E+02  0.10566000000E+00 0. -1.
         14    1    4    4    0    0  0.79377939036E+01  0.15345664143E+02 -0.38918692843E+02  0.42581247430E+02  0.00000000000E+00 0. -1.
<mgrwt>
<rscale>  0 0.80017206E+02</rscale>
<asrwt>0</asrwt>
<pdfrwt beam="1">  1        2 0.30044796E-01 0.80017206E+02</pdfrwt>
<pdfrwt beam="2">  1       -1 0.12609876E-02 0.80017206E+02</pdfrwt>
<totfact> 0.21864801E+05</totfact>
</mgrwt>
</event>
<event>
 8    1  0.2389776E-024  0.7980668E+02  0.7818608E-02  0.1329601E+00
         -1   -1    0    0    0  501 -0.00000000000E+00  0.00000000000E+00  0.30692377157E+02  0.30692377571E+02  0.50400000000E-02 0.  1.
          2   -1    0    0  501    0  0.00000000000E+00 -0.00000000000E+00 -0.51878560822E+02  0.51878560885E+02  0.25500000000E-02 0. -1.
         24    2    1    2    0    0  0.35527136788E-14 -0.88817841970E-15 -0.21186183665E+02  0.82570938456E+02  0.79806675781E+02 0.  0.
         66    2    3    3    0    0 -0.17737486173E+02  0.61634228329E+01 -0.46998737353E+02  0.50650642581E+02  0.20000210827E+01 0.  0.
        -13    1    3    3    0    0  0.17737486173E+02 -0.61634228329E+01  0.25812553688E+02  0.31920295874E+02  0.10566000000E+00 0.  1.
         13    1    4    4    0    0 -0.14978600339E+01  0.17979677516E+00 -0.44883624466E+01  0.47362931760E+01  0.10566000000E+00 0. -1.
        -13    1    4    4    0    0 -0.32586593880E+01  0.84638871208E+00 -0.74155530775E+01  0.81447422512E+01  0.10566000000E+00 0.  1.
        -14    1    4    4    0    0 -0.12980966752E+02  0.51372373456E+01 -0.35094821829E+02  0.37769607154E+02  0.00000000000E+00 0.  1.
<mgrwt>
<rscale>  0 0.79806676E+02</rscale>
<asrwt>0</asrwt>
<pdfrwt beam="1">  1        2 0.79813170E-02 0.79806676E+02</pdfrwt>
<pdfrwt beam="2">  1       -1 0.47219042E-02 0.79806676E+02</pdfrwt>
<totfact> 0.15164142E+05</totfact>
</mgrwt>
</event>
<event>
 8    1  0.2389776E-024  0.8150172E+02  0.7818608E-02  0.1324843E+00
         -1   -1    0    0    0  501 -0.00000000000E+00  0.00000000000E+00  0.41698223220E+02  0.41698223525E+02  0.50400000000E-02 0.  1.
          2   -1    0    0  501    0  0.00000000000E+00 -0.00000000000E+00 -0.39825017299E+02  0.39825017380E+02  0.25500000000E-02 0. -1.
         24    2    1    2    0    0  0.00000000000E+00  0.00000000000E+00  0.18732059214E+01  0.81523240905E+02  0.81501717204E+02 0.  0.
         66    2    3    3    0    0  0.22495854389E+02  0.33275864469E+02 -0.57937180480E+01  0.40631438450E+02  0.20000002103E+01 0.  0.
        -13    1    3    3    0    0 -0.22495854389E+02 -0.33275864469E+02  0.76669239695E+01  0.40891802455E+02  0.10566000000E+00 0.  1.
         13    1    4    4    0    0  0.29215580340E+01  0.48418626674E+01 -0.57837697564E+00  0.56854920102E+01  0.10566000000E+00 0. -1.
        -13    1    4    4    0    0  0.17463784593E+02  0.25780197931E+02 -0.43020967846E+01  0.31434401194E+02  0.10566000000E+00 0.  1.
        -14    1    4    4    0    0  0.21105117617E+01  0.26538038706E+01 -0.91324428780E+00  0.35115452452E+01  0.00000000000E+00 0.  1.
<mgrwt>
<rscale>  0 0.81501717E+02</rscale>
<asrwt>0</asrwt>
<pdfrwt beam="1">  1        2 0.61269257E-02 0.81501717E+02</pdfrwt>
<pdfrwt beam="2">  1       -1 0.64151113E-02 0.81501717E+02</pdfrwt>
<totfact> 0.13527498E+05</totfact>
</mgrwt>
</event>
<event>
 8    1  0.2389776E-024  0.7837569E+02  0.7818608E-02  0.1333725E+00
         -1   -1    0    0    0  501 -0.00000000000E+00  0.00000000000E+00  0.70759331310E+00  0.70761126217E+00  0.50400000000E-02 0.  1.
          2   -1    0    0  501    0  0.00000000000E+00 -0.00000000000E+00 -0.21702686689E+04  0.21702686689E+04  0.25500000000E-02 0. -1.
         24    2    1    2    0    0 -0.88817841970E-15 -0.88817841970E-15 -0.21695610756E+04  0.21709762801E+04  0.78375687119E+02 0.  0.
         66    2    3    3    0    0 -0.74642895139E+01 -0.78450083741E+01 -0.21279706472E+04  0.21279991389E+04  0.20000020924E+01 0.  0.
        -13    1    3    3    0    0  0.74642895139E+01  0.78450083741E+01 -0.41590428367E+02  0.42977141251E+02  0.10566000000E+00 0.  1.
         13    1    4    4    0    0 -0.28274486067E+01 -0.37917683579E+01 -0.82259465533E+03  0.82260826042E+03  0.10566000000E+00 0. -1.
        -13    1    4    4    0    0 -0.46481745457E+01 -0.38662646297E+01 -0.12667459099E+04  0.12667603424E+04  0.10566000000E+00 0.  1.
        -14    1    4    4    0    0  0.11333638451E-01 -0.18697538659E+00 -0.38630081931E+02  0.38630536086E+02  0.00000000000E+00 0.  1.
<mgrwt>
<rscale>  0 0.78375687E+02</rscale>
<asrwt>0</asrwt>
<pdfrwt beam="1">  1        2 0.33388216E+00 0.78375687E+02</pdfrwt>
<pdfrwt beam="2">  1       -1 0.10886363E-03 0.78375687E+02</pdfrwt>
<totfact> 0.26912610E+05</totfact>
</mgrwt>
</event>
<event>
 8    1  0.2389776E-024  0.8362476E+02  0.7818608E-02  0.1319069E+00
          2   -1    0    0  501    0  0.00000000000E+00  0.00000000000E+00  0.14994948243E+02  0.14994948460E+02  0.25500000000E-02 0. -1.
         -1   -1    0    0    0  501 -0.00000000000E+00 -0.00000000000E+00 -0.11659093068E+03  0.11659093079E+03  0.50400000000E-02 0.  1.
         24    2    1    2    0    0  0.17763568394E-14  0.35527136788E-14 -0.10159598244E+03  0.13158587925E+03  0.83624756922E+02 0.  0.
         66    2    3    3    0    0  0.15672565676E+02  0.29065273163E+02 -0.10529580948E+02  0.34717308169E+02  0.19999981666E+01 0.  0.
        -13    1    3    3    0    0 -0.15672565676E+02 -0.29065273163E+02 -0.91066401488E+02  0.96868571079E+02  0.10566000000E+00 0.  1.
         13    1    4    4    0    0  0.57275144910E+01  0.10237885815E+02 -0.30016139951E+01  0.12109483012E+02  0.10566000000E+00 0. -1.
        -13    1    4    4    0    0  0.54065471316E+01  0.92425816480E+01 -0.35531366195E+01  0.11282376136E+02  0.10566000000E+00 0.  1.
        -14    1    4    4    0    0  0.45385040533E+01  0.95848056995E+01 -0.39748303331E+01  0.11325449021E+02  0.00000000000E+00 0.  1.
<mgrwt>
<rscale>  0 0.83624757E+02</rscale>
<asrwt>0</asrwt>
<pdfrwt beam="1">  1        2 0.23069152E-02 0.83624757E+02</pdfrwt>
<pdfrwt beam="2">  1       -1 0.17937066E-01 0.83624757E+02</pdfrwt>
<totfact> 0.10254233E+05</totfact>
</mgrwt>
</event>
<event>
 8    1  0.2389776E-024  0.8029474E+02  0.7818608E-02  0.1328217E+00
          2   -1    0    0  501    0  0.00000000000E+00  0.00000000000E+00  0.34942409443E+02  0.34942409536E+02  0.25500000000E-02 0. -1.
         -1   -1    0    0    0  501 -0.00000000000E+00 -0.00000000000E+00 -0.46127650576E+02  0.46127650851E+02  0.50400000000E-02 0.  1.
         24    2    1    2    0    0  0.00000000000E+00  0.00000000000E+00 -0.11185241133E+02  0.81070060387E+02  0.80294738756E+02 0.  0.
         66    2    3    3    0    0  0.24798105828E+00  0.22698336307E+02  0.27807060465E+02  0.35951475373E+02  0.20000010024E+01 0.  0.
        -13    1    3    3    0    0 -0.24798105828E+00 -0.22698336307E+02 -0.38992301598E+02  0.45118585014E+02  0.10566000000E+00 0.  1.
         13    1    4    4    0    0  0.27564434136E-01  0.10088477963E+02  0.12166629240E+02  0.15805574286E+02  0.10566000000E+00 0. -1.
        -13    1    4    4    0    0  0.50414364112E-01  0.10341723356E+02  0.11880579318E+02  0.15751606665E+02  0.10566000000E+00 0.  1.
        -14    1    4    4    0    0  0.17000226004E+00  0.22681349891E+01  0.37598519080E+01  0.43942944220E+01  0.00000000000E+00 0.  1.
<mgrwt>
<rscale>  0 0.80294739E+02</rscale>
<asrwt>0</asrwt>
<pdfrwt beam="1">  1        2 0.53757553E-02 0.80294739E+02</pdfrwt>
<pdfrwt beam="2">  1       -1 0.70965617E-02 0.80294739E+02</pdfrwt>
<totfact> 0.13728223E+05</totfact>
</mgrwt>
</event>
<event>
 8    1  0.2389776E-024  0.8500014E+02  0.7818608E-02  0.1315432E+00
         -1   -1    0    0    0  501 -0.00000000000E+00  0.00000000000E+00  0.10472095619E+03  0.10472095631E+03  0.50400000000E-02 0.  1.
          2   -1    0    0  501    0  0.00000000000E+00 -0.00000000000E+00 -0.17248277531E+02  0.17248277719E+02  0.25500000000E-02 0. -1.
         24    2    1    2    0    0  0.71054273576E-14  0.00000000000E+00  0.87472678656E+02  0.12196923403E+03  0.85000144341E+02 0.  0.
         66    2    3    3    0    0  0.36090302146E+02  0.18237861708E+02  0.25099689614E+02  0.47635322286E+02  0.20000004778E+01 0.  0.
        -13    1    3    3    0    0 -0.36090302146E+02 -0.18237861708E+02  0.62372989042E+02  0.74333911741E+02  0.10566000000E+00 0.  1.
         13    1    4    4    0    0  0.15248703093E+01  0.86834951987E+00  0.10581184245E+01  0.20518379528E+01  0.10566000000E+00 0. -1.
        -13    1    4    4    0    0  0.33878009568E+02  0.16945822710E+02  0.23214180642E+02  0.44427354034E+02  0.10566000000E+00 0.  1.
        -14    1    4    4    0    0  0.68742226888E+00  0.42368947833E+00  0.82739054722E+00  0.11561302986E+01  0.00000000000E+00 0.  1.
<mgrwt>
<rscale>  0 0.85000144E+02</rscale>
<asrwt>0</asrwt>
<pdfrwt beam="1">  1        2 0.26535811E-02 0.85000144E+02</pdfrwt>
<pdfrwt beam="2">  1       -1 0.16110917E-01 0.85000144E+02</pdfrwt>
<totfact> 0.10087016E+05</totfact>
</mgrwt>
</event>
<event>
 8    1  0.2389776E-024  0.8005252E+02  0.7818608E-02  0.1328902E+00
         -1   -1    0    0    0  501 -0.00000000000E+00  0.00000000000E+00  0.17807582390E+01  0.17807653712E+01  0.50400000000E-02 0.  1.
          2   -1    0    0  501    0  0.00000000000E+00 -0.00000000000E+00 -0.89967186870E+03  0.89967186870E+03  0.25500000000E-02 0. -1.
         24    2    1    2    0    0  0.35527136788E-14 -0.17763568394E-14 -0.89789111046E+03  0.90145263407E+03  0.80052515486E+02 0.  0.
         66    2    3    3    0    0 -0.29428691696E+02  0.90832527113E+01 -0.73665987172E+03  0.73730612365E+03  0.19999985025E+01 0.  0.
        -13    1    3    3    0    0  0.29428691696E+02 -0.90832527113E+01 -0.16123123874E+03  0.16414651043E+03  0.10566000000E+00 0.  1.
         13    1    4    4    0    0 -0.13982004020E+02  0.52656970879E+01 -0.35948059399E+03  0.35979095684E+03  0.10566000000E+00 0. -1.
        -13    1    4    4    0    0 -0.11111412910E+02  0.29998273963E+01 -0.27227296063E+03  0.27251612561E+03  0.10566000000E+00 0.  1.
         14    1    4    4    0    0 -0.43352747663E+01  0.81772822703E+00 -0.10490631709E+03  0.10499904120E+03  0.00000000000E+00 0. -1.
<mgrwt>
<rscale>  0 0.80052515E+02</rscale>
<asrwt>0</asrwt>
<pdfrwt beam="1">  1        2 0.13841069E+00 0.80052515E+02</pdfrwt>
<pdfrwt beam="2">  1       -1 0.27396407E-03 0.80052515E+02</pdfrwt>
<totfact> 0.34885655E+05</totfact>
</mgrwt>
</event>
<event>
 8    1  0.2389776E-024  0.7989898E+02  0.7818608E-02  0.1329338E+00
         -1   -1    0    0    0  501 -0.00000000000E+00  0.00000000000E+00  0.46462471893E+01  0.46462499229E+01  0.50400000000E-02 0.  1.
          2   -1    0    0  501    0  0.00000000000E+00 -0.00000000000E+00 -0.34349469241E+03  0.34349469242E+03  0.25500000000E-02 0. -1.
         24    2    1    2    0    0 -0.71054273576E-14 -0.88817841970E-15 -0.33884844522E+03  0.34814094234E+03  0.79898979384E+02 0.  0.
         66    2    3    3    0    0 -0.37664471262E+02 -0.72140742496E+01 -0.21791367065E+03  0.22127137891E+03  0.20000007027E+01 0.  0.
        -13    1    3    3    0    0  0.37664471262E+02  0.72140742496E+01 -0.12093477457E+03  0.12686956344E+03  0.10566000000E+00 0.  1.
         13    1    4    4    0    0 -0.20497134807E+02 -0.32459174526E+01 -0.11620816469E+03  0.11804667390E+03  0.10566000000E+00 0. -1.
        -13    1    4    4    0    0 -0.61023555790E+01 -0.15146722527E+01 -0.38821503256E+02  0.39327512694E+02  0.10566000000E+00 0.  1.
        -14    1    4    4    0    0 -0.11064980876E+02 -0.24534845442E+01 -0.62884002709E+02  0.63897192308E+02  0.00000000000E+00 0.  1.
<mgrwt>
<rscale>  0 0.79898979E+02</rscale>
<asrwt>0</asrwt>
<pdfrwt beam="1">  1        2 0.52845317E-01 0.79898979E+02</pdfrwt>
<pdfrwt beam="2">  1       -1 0.71480775E-03 0.79898979E+02</pdfrwt>
<totfact> 0.26858077E+05</totfact>
</mgrwt>
</event>
<event>
 8    1  0.2389776E-024  0.8005197E+02  0.7818608E-02  0.1328904E+00
         -1   -1    0    0    0  501 -0.00000000000E+00  0.00000000000E+00  0.15353917587E+02  0.15353918414E+02  0.50400000000E-02 0.  1.
          2   -1    0    0  501    0  0.00000000000E+00 -0.00000000000E+00 -0.10434335306E+03  0.10434335309E+03  0.25500000000E-02 0. -1.
         24    2    1    2    0    0  0.00000000000E+00  0.00000000000E+00 -0.88989435477E+02  0.11969727151E+03  0.80051965498E+02 0.  0.
         66    2    3    3    0    0 -0.29088710422E+02  0.24735145858E+02 -0.62346194710E+02  0.73137052896E+02  0.19999992079E+01 0.  0.
        -13    1    3    3    0    0  0.29088710422E+02 -0.24735145858E+02 -0.26643240767E+02  0.46560218613E+02  0.10566000000E+00 0.  1.
         13    1    4    4    0    0 -0.10935335497E+02  0.95671682882E+01 -0.24362006862E+02  0.28366015121E+02  0.10566000000E+00 0. -1.
        -13    1    4    4    0    0 -0.16966662413E+01  0.13946741965E+01 -0.43436293645E+01  0.48684774356E+01  0.10566000000E+00 0.  1.
        -14    1    4    4    0    0 -0.16456708684E+02  0.13773303374E+02 -0.33640558483E+02  0.39902560339E+02  0.00000000000E+00 0.  1.
<mgrwt>
<rscale>  0 0.80051965E+02</rscale>
<asrwt>0</asrwt>
<pdfrwt beam="1">  1        2 0.16052823E-01 0.80051965E+02</pdfrwt>
<pdfrwt beam="2">  1       -1 0.23621413E-02 0.80051965E+02</pdfrwt>
<totfact> 0.17908607E+05</totfact>
</mgrwt>
</event>
<event>
 8    1  0.2389776E-024  0.8095646E+02  0.7818608E-02  0.1326359E+00
          2   -1    0    0  501    0  0.00000000000E+00  0.00000000000E+00  0.58658480668E+03  0.58658480669E+03  0.25500000000E-02 0. -1.
         -1   -1    0    0    0  501 -0.00000000000E+00 -0.00000000000E+00 -0.27932628712E+01  0.27932674182E+01  0.50400000000E-02 0.  1.
         24    2    1    2    0    0  0.00000000000E+00  0.35527136788E-14  0.58379154381E+03  0.58937807411E+03  0.80956455034E+02 0.  0.
         66    2    3    3    0    0  0.17566562616E+02 -0.18838463114E+02  0.51916507629E+03  0.51980751077E+03  0.19999997381E+01 0.  0.
        -13    1    3    3    0    0 -0.17566562616E+02  0.18838463114E+02  0.64626467521E+02  0.69570563336E+02  0.10566000000E+00 0.  1.
         13    1    4    4    0    0  0.47065754877E+01 -0.46663814569E+01  0.13926204007E+03  0.13941970426E+03  0.10566000000E+00 0.  1.
        -13    1    4    4    0    0  0.41782357939E+01 -0.55061603159E+01  0.12898452636E+03  0.12916963521E+03  0.10566000000E+00 0. -1.
         14    1    4    4    0    0  0.86817513341E+01 -0.86659213411E+01  0.25091850986E+03  0.25121817130E+03  0.00000000000E+00 0. -1.
<mgrwt>
<rscale>  0 0.80956455E+02</rscale>
<asrwt>0</asrwt>
<pdfrwt beam="1">  1        2 0.90243860E-01 0.80956455E+02</pdfrwt>
<pdfrwt beam="2">  1       -1 0.42973289E-03 0.80956455E+02</pdfrwt>
<totfact> 0.30985553E+05</totfact>
</mgrwt>
</event>
<event>
 8    1  0.2389776E-024  0.7682221E+02  0.7818608E-02  0.1338319E+00
          2   -1    0    0  501    0  0.00000000000E+00  0.00000000000E+00  0.59211394229E+03  0.59211394230E+03  0.25500000000E-02 0. -1.
         -1   -1    0    0    0  501 -0.00000000000E+00 -0.00000000000E+00 -0.24917697481E+01  0.24917748452E+01  0.50400000000E-02 0.  1.
         24    2    1    2    0    0  0.71054273576E-14 -0.35527136788E-14  0.58962217255E+03  0.59460571715E+03  0.76822213607E+02 0.  0.
         66    2    3    3    0    0 -0.29716423879E+02  0.16512206334E+02  0.43296731001E+03  0.43430451338E+03  0.20000011026E+01 0.  0.
        -13    1    3    3    0    0  0.29716423879E+02 -0.16512206334E+02  0.15665486254E+03  0.16030120376E+03  0.10566000000E+00 0.  1.
         13    1    4    4    0    0 -0.49068382975E+01  0.26781138451E+01  0.71850596538E+02  0.72067806563E+02  0.10566000000E+00 0. -1.
        -13    1    4    4    0    0 -0.43964200296E+01  0.22004060198E+01  0.54772127544E+02  0.54992430529E+02  0.10566000000E+00 0.  1.
        -14    1    4    4    0    0 -0.20413165552E+02  0.11633686469E+02  0.30634458593E+03  0.30724427629E+03  0.00000000000E+00 0.  1.
<mgrwt>
<rscale>  0 0.76822214E+02</rscale>
<asrwt>0</asrwt>
<pdfrwt beam="1">  1        2 0.91094405E-01 0.76822214E+02</pdfrwt>
<pdfrwt beam="2">  1       -1 0.38334979E-03 0.76822214E+02</pdfrwt>
<totfact> 0.35601849E+05</totfact>
</mgrwt>
</event>
<event>
 8    1  0.2389776E-024  0.7897893E+02  0.7818608E-02  0.1331974E+00
         -1   -1    0    0    0  501 -0.00000000000E+00  0.00000000000E+00  0.90250259160E+01  0.90250273233E+01  0.50400000000E-02 0.  1.
          2   -1    0    0  501    0  0.00000000000E+00 -0.00000000000E+00 -0.17278818388E+03  0.17278818390E+03  0.25500000000E-02 0. -1.
         24    2    1    2    0    0  0.35527136788E-14  0.35527136788E-14 -0.16376315796E+03  0.18181321122E+03  0.78978933068E+02 0.  0.
         66    2    3    3    0    0  0.20408079676E+02  0.29225208385E+02 -0.42947668595E+02  0.55848945826E+02  0.19999977261E+01 0.  0.
        -13    1    3    3    0    0 -0.20408079676E+02 -0.29225208385E+02 -0.12081548937E+03  0.12596426540E+03  0.10566000000E+00 0.  1.
         13    1    4    4    0    0  0.97362556025E+01  0.13763969257E+02 -0.20506181942E+02  0.26547244391E+02  0.10566000000E+00 0. -1.
        -13    1    4    4    0    0  0.69232832252E+01  0.89884012047E+01 -0.14085813259E+02  0.18087136480E+02  0.10566000000E+00 0.  1.
        -14    1    4    4    0    0  0.37485408485E+01  0.64728379232E+01 -0.83556733935E+01  0.11214564955E+02  0.00000000000E+00 0.  1.
<mgrwt>
<rscale>  0 0.78978933E+02</rscale>
<asrwt>0</asrwt>
<pdfrwt beam="1">  1        2 0.26582795E-01 0.78978933E+02</pdfrwt>
<pdfrwt beam="2">  1       -1 0.13884658E-02 0.78978933E+02</pdfrwt>
<totfact> 0.21708070E+05</totfact>
</mgrwt>
</event>
<event>
 8    1  0.2389776E-024  0.8055783E+02  0.7818608E-02  0.1327476E+00
         -1   -1    0    0    0  501 -0.00000000000E+00  0.00000000000E+00  0.88970675248E+01  0.88970689523E+01  0.50400000000E-02 0.  1.
          2   -1    0    0  501    0  0.00000000000E+00 -0.00000000000E+00 -0.18235118554E+03  0.18235118556E+03  0.25500000000E-02 0. -1.
         24    2    1    2    0    0  0.00000000000E+00  0.88817841970E-15 -0.17345411801E+03  0.19124825451E+03  0.80557828898E+02 0.  0.
         66    2    3    3    0    0  0.16012819902E+02  0.62843609392E+01 -0.17318018275E+03  0.17404390046E+03  0.19999994282E+01 0.  0.
        -13    1    3    3    0    0 -0.16012819902E+02 -0.62843609392E+01 -0.27393526684E+00  0.17204354048E+02  0.10566000000E+00 0.  1.
         13    1    4    4    0    0  0.68814530227E+01  0.28573751844E+01 -0.73595129057E+02  0.73971434849E+02  0.10566000000E+00 0. -1.
        -13    1    4    4    0    0  0.81009994459E+01  0.28926772860E+01 -0.82267266751E+02  0.82715827486E+02  0.10566000000E+00 0.  1.
        -14    1    4    4    0    0  0.10303674338E+01  0.53430846881E+00 -0.17317786940E+02  0.17356638127E+02  0.00000000000E+00 0.  1.
<mgrwt>
<rscale>  0 0.80557829E+02</rscale>
<asrwt>0</asrwt>
<pdfrwt beam="1">  1        2 0.28054026E-01 0.80557829E+02</pdfrwt>
<pdfrwt beam="2">  1       -1 0.13687799E-02 0.80557829E+02</pdfrwt>
<totfact> 0.20979518E+05</totfact>
</mgrwt>
</event>
<event>
 8    1  0.2389776E-024  0.7740123E+02  0.7818608E-02  0.1336592E+00
          2   -1    0    0  501    0  0.00000000000E+00  0.00000000000E+00  0.97632276945E+03  0.97632276946E+03  0.25500000000E-02 0. -1.
         -1   -1    0    0    0  501 -0.00000000000E+00 -0.00000000000E+00 -0.15340556088E+01  0.15340638880E+01  0.50400000000E-02 0.  1.
         24    2    1    2    0    0 -0.17763568394E-14  0.00000000000E+00  0.97478871385E+03  0.97785683335E+03  0.77401226606E+02 0.  0.
         66    2    3    3    0    0 -0.90752256735E+01  0.27462370729E+02  0.81208318856E+03  0.81260054557E+03  0.19999977029E+01 0.  0.
        -13    1    3    3    0    0  0.90752256735E+01 -0.27462370729E+02  0.16270552529E+03  0.16525628778E+03  0.10566000000E+00 0.  1.
         13    1    4    4    0    0 -0.40232844319E+01  0.11789695781E+02  0.33473868863E+03  0.33497042343E+03  0.10566000000E+00 0. -1.
        -13    1    4    4    0    0 -0.18568440284E+01  0.41346967288E+01  0.12398019499E+03  0.12406306260E+03  0.10566000000E+00 0.  1.
        -14    1    4    4    0    0 -0.31950972132E+01  0.11537978220E+02  0.35336430493E+03  0.35356705954E+03  0.00000000000E+00 0.  1.
<mgrwt>
<rscale>  0 0.77401227E+02</rscale>
<asrwt>0</asrwt>
<pdfrwt beam="1">  1        2 0.15020329E+00 0.77401227E+02</pdfrwt>
<pdfrwt beam="2">  1       -1 0.23600952E-03 0.77401227E+02</pdfrwt>
<totfact> 0.38333369E+05</totfact>
</mgrwt>
</event>
<event>
 8    1  0.2389776E-024  0.7998458E+02  0.7818608E-02  0.1329095E+00
         -1   -1    0    0    0  501 -0.00000000000E+00  0.00000000000E+00  0.27591756028E+02  0.27591756488E+02  0.50400000000E-02 0.  1.
          2   -1    0    0  501    0  0.00000000000E+00 -0.00000000000E+00 -0.57965977520E+02  0.57965977576E+02  0.25500000000E-02 0. -1.
         24    2    1    2    0    0  0.17763568394E-14  0.00000000000E+00 -0.30374221492E+02  0.85557734064E+02  0.79984576807E+02 0.  0.
         66    2    3    3    0    0 -0.10919460801E+02 -0.96858577839E+01 -0.54995609039E+02  0.56934765072E+02  0.19999987492E+01 0.  0.
        -13    1    3    3    0    0  0.10919460801E+02  0.96858577839E+01  0.24621387547E+02  0.28622968993E+02  0.10566000000E+00 0.  1.
         13    1    4    4    0    0 -0.23158044178E+01 -0.29573614132E+01 -0.14948522435E+02  0.15413579197E+02  0.10566000000E+00 0.  1.
        -13    1    4    4    0    0 -0.37882926383E+01 -0.32184324926E+01 -0.19866440433E+02  0.20479162296E+02  0.10566000000E+00 0. -1.
        -14    1    4    4    0    0 -0.48153637450E+01 -0.35100638780E+01 -0.20180646171E+02  0.21042023579E+02  0.00000000000E+00 0.  1.
<mgrwt>
<rscale>  0 0.79984577E+02</rscale>
<asrwt>0</asrwt>
<pdfrwt beam="1">  1        2 0.89178427E-02 0.79984577E+02</pdfrwt>
<pdfrwt beam="2">  1       -1 0.42448856E-02 0.79984577E+02</pdfrwt>
<totfact> 0.15451535E+05</totfact>
</mgrwt>
</event>
<event>
 8    1  0.2389776E-024  0.7979684E+02  0.7818608E-02  0.1329629E+00
         -1   -1    0    0    0  501 -0.00000000000E+00  0.00000000000E+00  0.64569325803E+02  0.64569326000E+02  0.50400000000E-02 0.  1.
          2   -1    0    0  501    0  0.00000000000E+00 -0.00000000000E+00 -0.24653869981E+02  0.24653870113E+02  0.25500000000E-02 0. -1.
         24    2    1    2    0    0  0.00000000000E+00  0.00000000000E+00  0.39915455822E+02  0.89223196113E+02  0.79796836473E+02 0.  0.
         66    2    3    3    0    0 -0.21982585542E+02  0.10676790045E+02 -0.15257963341E+02  0.28879635901E+02  0.20000029231E+01 0.  0.
        -13    1    3    3    0    0  0.21982585542E+02 -0.10676790045E+02  0.55173419163E+02  0.60343560211E+02  0.10566000000E+00 0.  1.
         13    1    4    4    0    0 -0.75408095236E+01  0.33898617436E+01 -0.47795319065E+01  0.95503958134E+01  0.10566000000E+00 0. -1.
        -13    1    4    4    0    0 -0.95291112998E+01  0.52880290150E+01 -0.64007369394E+01  0.12639138041E+02  0.10566000000E+00 0.  1.
        -14    1    4    4    0    0 -0.49126647188E+01  0.19988992862E+01 -0.40776944953E+01  0.66901020465E+01  0.00000000000E+00 0.  1.
<mgrwt>
<rscale>  0 0.79796836E+02</rscale>
<asrwt>0</asrwt>
<pdfrwt beam="1">  1        2 0.37929032E-02 0.79796836E+02</pdfrwt>
<pdfrwt beam="2">  1       -1 0.99337422E-02 0.79796836E+02</pdfrwt>
<totfact> 0.13038303E+05</totfact>
</mgrwt>
</event>
<event>
 8    1  0.2389776E-024  0.8102175E+02  0.7818608E-02  0.1326177E+00
          2   -1    0    0  501    0  0.00000000000E+00  0.00000000000E+00  0.32406188752E+03  0.32406188753E+03  0.25500000000E-02 0. -1.
         -1   -1    0    0    0  501 -0.00000000000E+00 -0.00000000000E+00 -0.50642503916E+01  0.50642528996E+01  0.50400000000E-02 0.  1.
         24    2    1    2    0    0  0.00000000000E+00  0.00000000000E+00  0.31899763713E+03  0.32912614043E+03  0.81021749059E+02 0.  0.
         66    2    3    3    0    0 -0.28584720380E+02 -0.24841595200E+02  0.21774827830E+03  0.22102602517E+03  0.20000024466E+01 0.  0.
        -13    1    3    3    0    0  0.28584720380E+02  0.24841595200E+02  0.10124935882E+03  0.10810011525E+03  0.10566000000E+00 0.  1.
         13    1    4    4    0    0 -0.99529007273E+01 -0.92641778986E+01  0.76741307502E+02  0.77936670869E+02  0.10566000000E+00 0. -1.
        -13    1    4    4    0    0 -0.16020461350E+02 -0.13965835535E+02  0.12286054197E+03  0.12468529858E+03  0.10566000000E+00 0.  1.
        -14    1    4    4    0    0 -0.26113583023E+01 -0.16115817668E+01  0.18146428827E+02  0.18404055725E+02  0.00000000000E+00 0.  1.
<mgrwt>
<rscale>  0 0.81021749E+02</rscale>
<asrwt>0</asrwt>
<pdfrwt beam="1">  1        2 0.49855686E-01 0.81021749E+02</pdfrwt>
<pdfrwt beam="2">  1       -1 0.77911547E-03 0.81021749E+02</pdfrwt>
<totfact> 0.25357622E+05</totfact>
</mgrwt>
</event>
<event>
 8    1  0.2389776E-024  0.7618789E+02  0.7818608E-02  0.1340231E+00
          2   -1    0    0  501    0  0.00000000000E+00  0.00000000000E+00  0.12327578768E+03  0.12327578770E+03  0.25500000000E-02 0. -1.
         -1   -1    0    0    0  501 -0.00000000000E+00 -0.00000000000E+00 -0.11771562221E+02  0.11771563300E+02  0.50400000000E-02 0.  1.
         24    2    1    2    0    0  0.00000000000E+00  0.00000000000E+00  0.11150422546E+03  0.13504735100E+03  0.76187890892E+02 0.  0.
         66    2    3    3    0    0  0.12619692455E+02  0.19476454400E+02  0.10927803314E+03  0.11173306333E+03  0.19999997538E+01 0.  0.
        -13    1    3    3    0    0 -0.12619692455E+02 -0.19476454400E+02  0.22261923132E+01  0.23314287678E+02  0.10566000000E+00 0.  1.
         13    1    4    4    0    0  0.76179724383E+01  0.11687646363E+02  0.67352308413E+02  0.68782113912E+02  0.10566000000E+00 0. -1.
        -13    1    4    4    0    0  0.30899488856E-01  0.25010517829E+00  0.18794341049E+01  0.18991956110E+01  0.10566000000E+00 0.  1.
         14    1    4    4    0    0  0.49708205282E+01  0.75387028583E+01  0.40046290626E+02  0.41051753804E+02  0.00000000000E+00 0. -1.
<mgrwt>
<rscale>  0 0.76187891E+02</rscale>
<asrwt>0</asrwt>
<pdfrwt beam="1">  1        2 0.18965507E-01 0.76187891E+02</pdfrwt>
<pdfrwt beam="2">  1       -1 0.18110095E-02 0.76187891E+02</pdfrwt>
<totfact> 0.21448551E+05</totfact>
</mgrwt>
</event>
<event>
 8    1  0.2568918E-024  0.7697400E+02  0.7818608E-02  0.1337865E+00
          2   -1    0    0  501    0  0.00000000000E+00  0.00000000000E+00  0.43383821760E+03  0.43383821761E+03  0.25500000000E-02 0. -1.
         -1   -1    0    0    0  501 -0.00000000000E+00 -0.00000000000E+00 -0.34142875387E+01  0.34142912586E+01  0.50400000000E-02 0.  1.
         24    2    1    2    0    0 -0.17763568394E-14  0.00000000000E+00  0.43042393006E+03  0.43725250887E+03  0.76974001716E+02 0.  0.
         66    2    3    3    0    0 -0.14814644022E+02 -0.16636784116E+02  0.39345621349E+03  0.39409142112E+03  0.19999999759E+01 0.  0.
        -13    1    3    3    0    0  0.14814644022E+02  0.16636784116E+02  0.36967716569E+02  0.43161087748E+02  0.10566000000E+00 0.  1.
         13    1    4    4    0    0 -0.28875294201E+01 -0.33801754517E+01  0.88709016326E+02  0.88820403927E+02  0.10566000000E+00 0. -1.
        -13    1    4    4    0    0 -0.59062523863E+00 -0.95080115265E+00  0.15988007929E+02  0.16027489591E+02  0.10566000000E+00 0.  1.
         14    1    4    4    0    0 -0.11336489363E+02 -0.12305807512E+02  0.28875918924E+03  0.28924352760E+03  0.00000000000E+00 0. -1.
<mgrwt>
<rscale>  0 0.76974002E+02</rscale>
<asrwt>0</asrwt>
<pdfrwt beam="1">  1        2 0.66744285E-01 0.76974002E+02</pdfrwt>
<pdfrwt beam="2">  1       -1 0.52527574E-03 0.76974002E+02</pdfrwt>
<totfact> 0.32127102E+05</totfact>
</mgrwt>
</event>
<event>
 8    1  0.2389776E-024  0.7750747E+02  0.7818608E-02  0.1336277E+00
         -1   -1    0    0    0  501 -0.00000000000E+00  0.00000000000E+00  0.21147492673E+01  0.21147552731E+01  0.50400000000E-02 0.  1.
          2   -1    0    0  501    0  0.00000000000E+00 -0.00000000000E+00 -0.71017867751E+03  0.71017867751E+03  0.25500000000E-02 0. -1.
         24    2    1    2    0    0  0.00000000000E+00  0.00000000000E+00 -0.70806392824E+03  0.71229343278E+03  0.77507470052E+02 0.  0.
         66    2    3    3    0    0 -0.13928567522E+02  0.32292270490E+02 -0.50331828957E+03  0.50454939931E+03  0.20000000700E+01 0.  0.
        -13    1    3    3    0    0  0.13928567522E+02 -0.32292270490E+02 -0.20474563867E+03  0.20774403347E+03  0.10566000000E+00 0.  1.
         13    1    4    4    0    0 -0.10873835244E+01  0.16881515542E+01 -0.26918991425E+02  0.26993990479E+02  0.10566000000E+00 0. -1.
        -13    1    4    4    0    0 -0.50248546788E+01  0.13452802759E+02 -0.20680551640E+03  0.20730354518E+03  0.10566000000E+00 0.  1.
        -14    1    4    4    0    0 -0.78163293191E+01  0.17151316176E+02 -0.26959378175E+03  0.27025186365E+03  0.00000000000E+00 0.  1.
<mgrwt>
<rscale>  0 0.77507470E+02</rscale>
<asrwt>0</asrwt>
<pdfrwt beam="1">  1        2 0.10925807E+00 0.77507470E+02</pdfrwt>
<pdfrwt beam="2">  1       -1 0.32534707E-03 0.77507470E+02</pdfrwt>
<totfact> 0.36434274E+05</totfact>
</mgrwt>
</event>
<event>
 8    1  0.2389776E-024  0.7790830E+02  0.7818608E-02  0.1335094E+00
         -1   -1    0    0    0  501 -0.00000000000E+00  0.00000000000E+00  0.78388563098E+01  0.78388579300E+01  0.50400000000E-02 0.  1.
          2   -1    0    0  501    0  0.00000000000E+00 -0.00000000000E+00 -0.19357743645E+03  0.19357743646E+03  0.25500000000E-02 0. -1.
         24    2    1    2    0    0 -0.17763568394E-14  0.00000000000E+00 -0.18573858014E+03  0.20141629439E+03  0.77908301842E+02 0.  0.
         66    2    3    3    0    0  0.82744409731E+01  0.37892783287E+02 -0.84320246855E+02  0.92834440991E+02  0.20000014384E+01 0.  0.
        -13    1    3    3    0    0 -0.82744409731E+01 -0.37892783287E+02 -0.10141833328E+03  0.10858185340E+03  0.10566000000E+00 0.  1.
         13    1    4    4    0    0  0.32100701202E+01  0.11091514423E+02 -0.25642090310E+02  0.28122130109E+02  0.10566000000E+00 0.  1.
        -13    1    4    4    0    0  0.93388338220E+00  0.64991478185E+01 -0.14440834953E+02  0.15863793327E+02  0.10566000000E+00 0. -1.
         14    1    4    4    0    0  0.41304874708E+01  0.20302121045E+02 -0.44237321591E+02  0.48848517554E+02  0.00000000000E+00 0. -1.
<mgrwt>
<rscale>  0 0.77908302E+02</rscale>
<asrwt>0</asrwt>
<pdfrwt beam="1">  1        2 0.29781141E-01 0.77908302E+02</pdfrwt>
<pdfrwt beam="2">  1       -1 0.12059782E-02 0.77908302E+02</pdfrwt>
<totfact> 0.23388748E+05</totfact>
</mgrwt>
</event>
<event>
 8    1  0.2389776E-024  0.8057366E+02  0.7818608E-02  0.1327431E+00
         -1   -1    0    0    0  501 -0.00000000000E+00  0.00000000000E+00  0.27641936219E+01  0.27641982166E+01  0.50400000000E-02 0.  1.
          2   -1    0    0  501    0  0.00000000000E+00 -0.00000000000E+00 -0.58716123997E+03  0.58716123998E+03  0.25500000000E-02 0. -1.
         24    2    1    2    0    0  0.00000000000E+00  0.00000000000E+00 -0.58439704635E+03  0.58992543819E+03  0.80573660993E+02 0.  0.
         66    2    3    3    0    0  0.25345522675E+02  0.29554270087E+02 -0.36746368943E+03  0.36952593069E+03  0.20000004370E+01 0.  0.
        -13    1    3    3    0    0 -0.25345522675E+02 -0.29554270087E+02 -0.21693335692E+03  0.22039950751E+03  0.10566000000E+00 0.  1.
         13    1    4    4    0    0  0.30559206339E+01  0.38261154678E+01 -0.50513796045E+02  0.50750690294E+02  0.10566000000E+00 0.  1.
        -13    1    4    4    0    0  0.10360392913E+02  0.11068787696E+02 -0.14343317417E+03  0.14423225166E+03  0.10566000000E+00 0. -1.
         14    1    4    4    0    0  0.11929209129E+02  0.14659366923E+02 -0.17351671922E+03  0.17454298874E+03  0.00000000000E+00 0. -1.
<mgrwt>
<rscale>  0 0.80573661E+02</rscale>
<asrwt>0</asrwt>
<pdfrwt beam="1">  1        2 0.90332399E-01 0.80573661E+02</pdfrwt>
<pdfrwt beam="2">  1       -1 0.42526138E-03 0.80573661E+02</pdfrwt>
<totfact> 0.31379251E+05</totfact>
</mgrwt>
</event>
<event>
 8    1  0.2389776E-024  0.8424702E+02  0.7818608E-02  0.1317413E+00
          2   -1    0    0  501    0  0.00000000000E+00  0.00000000000E+00  0.29780536776E+02  0.29780536885E+02  0.25500000000E-02 0. -1.
         -1   -1    0    0    0  501 -0.00000000000E+00 -0.00000000000E+00 -0.59582206869E+02  0.59582207082E+02  0.50400000000E-02 0.  1.
         24    2    1    2    0    0  0.88817841970E-15  0.71054273576E-14 -0.29801670093E+02  0.89362743967E+02  0.84247020535E+02 0.  0.
         66    2    3    3    0    0 -0.79435974947E+01 -0.35177661567E+02  0.81311099098E+01  0.37022744185E+02  0.20000060327E+01 0.  0.
        -13    1    3    3    0    0  0.79435974947E+01  0.35177661567E+02 -0.37932780003E+02  0.52339999783E+02  0.10566000000E+00 0.  1.
         13    1    4    4    0    0 -0.27779791837E+01 -0.11490102193E+02  0.31527650031E+01  0.12234815403E+02  0.10566000000E+00 0. -1.
        -13    1    4    4    0    0 -0.42527728475E+01 -0.20777033633E+02  0.47179583366E+01  0.21726516021E+02  0.10566000000E+00 0.  1.
        -14    1    4    4    0    0 -0.91284546345E+00 -0.29105257405E+01  0.26038657015E+00  0.30614127608E+01  0.00000000000E+00 0.  1.
<mgrwt>
<rscale>  0 0.84247021E+02</rscale>
<asrwt>0</asrwt>
<pdfrwt beam="1">  1        2 0.45816211E-02 0.84247021E+02</pdfrwt>
<pdfrwt beam="2">  1       -1 0.91664934E-02 0.84247021E+02</pdfrwt>
<totfact> 0.11614147E+05</totfact>
</mgrwt>
</event>
<event>
 8    1  0.2389776E-024  0.8095359E+02  0.7818608E-02  0.1326367E+00
         -1   -1    0    0    0  501 -0.00000000000E+00  0.00000000000E+00  0.88314736358E+02  0.88314736502E+02  0.50400000000E-02 0.  1.
          2   -1    0    0  501    0  0.00000000000E+00 -0.00000000000E+00 -0.18551500381E+02  0.18551500556E+02  0.25500000000E-02 0. -1.
         24    2    1    2    0    0  0.00000000000E+00  0.00000000000E+00  0.69763235977E+02  0.10686623706E+03  0.80953588735E+02 0.  0.
         66    2    3    3    0    0 -0.27572478384E+02 -0.76559188960E+01 -0.28414427032E+01  0.28825829649E+02  0.19999999828E+01 0.  0.
        -13    1    3    3    0    0  0.27572478384E+02  0.76559188960E+01  0.72604678680E+02  0.78040407409E+02  0.10566000000E+00 0.  1.
         13    1    4    4    0    0 -0.19465631396E+02 -0.61075014725E+01 -0.22982945363E+01  0.20530604027E+02  0.10566000000E+00 0. -1.
        -13    1    4    4    0    0 -0.44245448169E+00 -0.14386892439E+00  0.55059864409E-01  0.48027061126E+00  0.10566000000E+00 0. -1.
         14    1    4    4    0    0 -0.76643925058E+01 -0.14045484991E+01 -0.59820803136E+00  0.78149550106E+01  0.00000000000E+00 0. -1.
<mgrwt>
<rscale>  0 0.80953589E+02</rscale>
<asrwt>0</asrwt>
<pdfrwt beam="1">  1        2 0.28540770E-02 0.80953589E+02</pdfrwt>
<pdfrwt beam="2">  1       -1 0.13586882E-01 0.80953589E+02</pdfrwt>
<totfact> 0.11814939E+05</totfact>
</mgrwt>
</event>
<event>
 8    1  0.2389776E-024  0.7990708E+02  0.7818608E-02  0.1329315E+00
         -1   -1    0    0    0  501 -0.00000000000E+00  0.00000000000E+00  0.31734399606E+03  0.31734399610E+03  0.50400000000E-02 0.  1.
          2   -1    0    0  501    0  0.00000000000E+00 -0.00000000000E+00 -0.50301410325E+01  0.50301416788E+01  0.25500000000E-02 0. -1.
         24    2    1    2    0    0  0.71054273576E-14  0.17763568394E-14  0.31231385502E+03  0.32237413778E+03  0.79907075196E+02 0.  0.
         66    2    3    3    0    0  0.36649274150E+02  0.13811924875E+02  0.12491559666E+03  0.13092686836E+03  0.20000013290E+01 0.  0.
        -13    1    3    3    0    0 -0.36649274150E+02 -0.13811924875E+02  0.18739825836E+03  0.19144726942E+03  0.10566000000E+00 0.  1.
         13    1    4    4    0    0  0.75492513556E+01  0.28289423583E+01  0.24033644979E+02  0.25349977631E+02  0.10566000000E+00 0. -1.
        -13    1    4    4    0    0  0.97788334128E+01  0.32321597605E+01  0.35012225508E+02  0.36495746857E+02  0.10566000000E+00 0.  1.
        -14    1    4    4    0    0  0.19321189381E+02  0.77508227564E+01  0.65869726173E+02  0.69081143871E+02  0.00000000000E+00 0.  1.
<mgrwt>
<rscale>  0 0.79907075E+02</rscale>
<asrwt>0</asrwt>
<pdfrwt beam="1">  1        2 0.77386769E-03 0.79907075E+02</pdfrwt>
<pdfrwt beam="2">  1       -1 0.48822167E-01 0.79907075E+02</pdfrwt>
<totfact> 0.84694726E+04</totfact>
</mgrwt>
</event>
<event>
 8    1  0.2389776E-024  0.7929085E+02  0.7818608E-02  0.1331076E+00
          2   -1    0    0  501    0  0.00000000000E+00  0.00000000000E+00  0.69719764058E+03  0.69719764059E+03  0.25500000000E-02 0. -1.
         -1   -1    0    0    0  501 -0.00000000000E+00 -0.00000000000E+00 -0.22543935341E+01  0.22543991679E+01  0.50400000000E-02 0.  1.
         24    2    1    2    0    0  0.00000000000E+00  0.00000000000E+00  0.69494324705E+03  0.69945203975E+03  0.79290852557E+02 0.  0.
         66    2    3    3    0    0  0.33906616525E+02  0.25805713710E+01  0.52705780524E+03  0.52815740841E+03  0.20000000473E+01 0.  0.
        -13    1    3    3    0    0 -0.33906616525E+02 -0.25805713710E+01  0.16788544181E+03  0.17129463135E+03  0.10566000000E+00 0.  1.
         13    1    4    4    0    0  0.84407359824E+01  0.89048649082E+00  0.12688871768E+03  0.12717231156E+03  0.10566000000E+00 0.  1.
        -13    1    4    4    0    0  0.23301000133E+02  0.19589303575E+01  0.36784873061E+03  0.36859120145E+03  0.10566000000E+00 0. -1.
         14    1    4    4    0    0  0.21648804093E+01 -0.26884547731E+00  0.32320356952E+02  0.32393895391E+02  0.00000000000E+00 0. -1.
<mgrwt>
<rscale>  0 0.79290853E+02</rscale>
<asrwt>0</asrwt>
<pdfrwt beam="1">  1        2 0.10726118E+00 0.79290853E+02</pdfrwt>
<pdfrwt beam="2">  1       -1 0.34683021E-03 0.79290853E+02</pdfrwt>
<totfact> 0.34203152E+05</totfact>
</mgrwt>
</event>
<event>
 8    1  0.2389776E-024  0.8635741E+02  0.7818608E-02  0.1311920E+00
          2   -1    0    0  501    0  0.00000000000E+00  0.00000000000E+00  0.20260793790E+02  0.20260793950E+02  0.25500000000E-02 0. -1.
         -1   -1    0    0    0  501 -0.00000000000E+00 -0.00000000000E+00 -0.92020119011E+02  0.92020119149E+02  0.50400000000E-02 0.  1.
         24    2    1    2    0    0  0.35527136788E-14  0.00000000000E+00 -0.71759325221E+02  0.11228091310E+03  0.86357412480E+02 0.  0.
         66    2    3    3    0    0  0.19647949743E+02 -0.40246337989E+01  0.13783932825E+02  0.24417952943E+02  0.20000038688E+01 0.  0.
        -13    1    3    3    0    0 -0.19647949743E+02  0.40246337989E+01 -0.85543258046E+02  0.87862960157E+02  0.10566000000E+00 0.  1.
         13    1    4    4    0    0  0.85775447234E+01 -0.14189701637E+01  0.54632877303E+01  0.10268711052E+02  0.10566000000E+00 0. -1.
        -13    1    4    4    0    0  0.93440356787E+01 -0.18091939347E+01  0.72702151711E+01  0.11977118941E+02  0.10566000000E+00 0.  1.
         14    1    4    4    0    0  0.17263693409E+01 -0.79646970055E+00  0.10504299235E+01  0.21721229498E+01  0.00000000000E+00 0. -1.
<mgrwt>
<rscale>  0 0.86357412E+02</rscale>
<asrwt>0</asrwt>
<pdfrwt beam="1">  1        2 0.31170453E-02 0.86357412E+02</pdfrwt>
<pdfrwt beam="2">  1       -1 0.14156941E-01 0.86357412E+02</pdfrwt>
<totfact> 0.99778942E+04</totfact>
</mgrwt>
</event>
<event>
 8    1  0.2389776E-024  0.7932469E+02  0.7818608E-02  0.1330979E+00
          2   -1    0    0  501    0  0.00000000000E+00  0.00000000000E+00  0.11476375586E+03  0.11476375589E+03  0.25500000000E-02 0. -1.
         -1   -1    0    0    0  501 -0.00000000000E+00 -0.00000000000E+00 -0.13707301310E+02  0.13707302236E+02  0.50400000000E-02 0.  1.
         24    2    1    2    0    0 -0.35527136788E-14  0.00000000000E+00  0.10105645455E+03  0.12847105812E+03  0.79324685749E+02 0.  0.
         66    2    3    3    0    0  0.21836458088E+02  0.44780123756E+01  0.10364163001E+03  0.10603051907E+03  0.20000014385E+01 0.  0.
        -13    1    3    3    0    0 -0.21836458088E+02 -0.44780123756E+01 -0.25851754673E+01  0.22440539051E+02  0.10566000000E+00 0.  1.
         13    1    4    4    0    0  0.19328803346E+02  0.35275995900E+01  0.90652828711E+02  0.92757711890E+02  0.10566000000E+00 0. -1.
        -13    1    4    4    0    0  0.98014788779E+00  0.63019267283E+00  0.54740779355E+01  0.55977250707E+01  0.10566000000E+00 0.  1.
        -14    1    4    4    0    0  0.15275068535E+01  0.32022011271E+00  0.75147233683E+01  0.76750821109E+01  0.00000000000E+00 0.  1.
<mgrwt>
<rscale>  0 0.79324686E+02</rscale>
<asrwt>0</asrwt>
<pdfrwt beam="1">  1        2 0.17655963E-01 0.79324686E+02</pdfrwt>
<pdfrwt beam="2">  1       -1 0.21088157E-02 0.79324686E+02</pdfrwt>
<totfact> 0.18862678E+05</totfact>
</mgrwt>
</event>
<event>
 8    1  0.2389776E-024  0.7969085E+02  0.7818608E-02  0.1329931E+00
          2   -1    0    0  501    0  0.00000000000E+00  0.00000000000E+00  0.92311666016E+02  0.92311666051E+02  0.25500000000E-02 0. -1.
         -1   -1    0    0    0  501 -0.00000000000E+00 -0.00000000000E+00 -0.17198885708E+02  0.17198886447E+02  0.50400000000E-02 0.  1.
         24    2    1    2    0    0 -0.17763568394E-14  0.00000000000E+00  0.75112780307E+02  0.10951055250E+03  0.79690848551E+02 0.  0.
         66    2    3    3    0    0  0.15257539889E+02  0.14622213469E+02  0.83958740900E+02  0.86600645622E+02  0.19999995926E+01 0.  0.
        -13    1    3    3    0    0 -0.15257539889E+02 -0.14622213469E+02 -0.88459605931E+01  0.22909906876E+02  0.10566000000E+00 0.  1.
         13    1    4    4    0    0  0.88681064105E+01  0.75199220500E+01  0.48767617189E+02  0.50134660558E+02  0.10566000000E+00 0. -1.
        -13    1    4    4    0    0  0.51503888426E+01  0.56984018455E+01  0.28685690467E+02  0.29696435652E+02  0.10566000000E+00 0.  1.
         14    1    4    4    0    0  0.12390446357E+01  0.14038895738E+01  0.65054332436E+01  0.67695494113E+01  0.00000000000E+00 0. -1.
<mgrwt>
<rscale>  0 0.79690849E+02</rscale>
<asrwt>0</asrwt>
<pdfrwt beam="1">  1        2 0.14201795E-01 0.79690849E+02</pdfrwt>
<pdfrwt beam="2">  1       -1 0.26459824E-02 0.79690849E+02</pdfrwt>
<totfact> 0.17520268E+05</totfact>
</mgrwt>
</event>
<event>
 8    1  0.2389776E-024  0.7936906E+02  0.7818608E-02  0.1330852E+00
          2   -1    0    0  501    0  0.00000000000E+00  0.00000000000E+00  0.30482020860E+03  0.30482020861E+03  0.25500000000E-02 0. -1.
         -1   -1    0    0    0  501 -0.00000000000E+00 -0.00000000000E+00 -0.51665253838E+01  0.51665278420E+01  0.50400000000E-02 0.  1.
         24    2    1    2    0    0  0.11102230246E-15  0.00000000000E+00  0.29965368321E+03  0.30998673645E+03  0.79369055125E+02 0.  0.
         66    2    3    3    0    0 -0.94298663486E+00 -0.27790136471E+02  0.26036743422E+03  0.26185565052E+03  0.19999993604E+01 0.  0.
        -13    1    3    3    0    0  0.94298663486E+00  0.27790136471E+02  0.39286248991E+02  0.48131085928E+02  0.10566000000E+00 0.  1.
         13    1    4    4    0    0 -0.11252195143E+01 -0.25098383224E+02  0.23845341658E+03  0.23977330544E+03  0.10566000000E+00 0. -1.
        -13    1    4    4    0    0  0.12576730056E+00 -0.22472634670E+01  0.19172565530E+02  0.19304518733E+02  0.10566000000E+00 0.  1.
         14    1    4    4    0    0  0.56465578891E-01 -0.44448977926E+00  0.27414521087E+01  0.27778263426E+01  0.00000000000E+00 0. -1.
<mgrwt>
<rscale>  0 0.79369055E+02</rscale>
<asrwt>0</asrwt>
<pdfrwt beam="1">  1        2 0.46895437E-01 0.79369055E+02</pdfrwt>
<pdfrwt beam="2">  1       -1 0.79484991E-03 0.79369055E+02</pdfrwt>
<totfact> 0.26179549E+05</totfact>
</mgrwt>
</event>
<event>
 8    1  0.2389776E-024  0.7862984E+02  0.7818608E-02  0.1332985E+00
          2   -1    0    0  501    0  0.00000000000E+00  0.00000000000E+00  0.11097057927E+03  0.11097057930E+03  0.25500000000E-02 0. -1.
         -1   -1    0    0    0  501 -0.00000000000E+00 -0.00000000000E+00 -0.13928582329E+02  0.13928583241E+02  0.50400000000E-02 0.  1.
         24    2    1    2    0    0  0.35527136788E-14 -0.35527136788E-14  0.97041996939E+02  0.12489916254E+03  0.78629839328E+02 0.  0.
         66    2    3    3    0    0 -0.27913690629E+02  0.27372855583E+02  0.54747364580E+02  0.67303204019E+02  0.19999988487E+01 0.  0.
        -13    1    3    3    0    0  0.27913690629E+02 -0.27372855583E+02  0.42294632359E+02  0.57595958519E+02  0.10566000000E+00 0.  1.
         13    1    4    4    0    0 -0.12451083424E+02  0.11746210915E+02  0.22930372464E+02  0.28614962776E+02  0.10566000000E+00 0. -1.
        -13    1    4    4    0    0 -0.94661112893E+01  0.90270878959E+01  0.19561313234E+02  0.23531929761E+02  0.10566000000E+00 0.  1.
        -14    1    4    4    0    0 -0.59964959158E+01  0.65995567728E+01  0.12255678882E+02  0.15156311481E+02  0.00000000000E+00 0.  1.
<mgrwt>
<rscale>  0 0.78629839E+02</rscale>
<asrwt>0</asrwt>
<pdfrwt beam="1">  1        2 0.17072397E-01 0.78629839E+02</pdfrwt>
<pdfrwt beam="2">  1       -1 0.21428589E-02 0.78629839E+02</pdfrwt>
<totfact> 0.19122028E+05</totfact>
</mgrwt>
</event>
<event>
 8    1  0.2389776E-024  0.8065655E+02  0.7818608E-02  0.1327199E+00
          2   -1    0    0  501    0  0.00000000000E+00  0.00000000000E+00  0.58617125098E+01  0.58617130645E+01  0.25500000000E-02 0. -1.
         -1   -1    0    0    0  501 -0.00000000000E+00 -0.00000000000E+00 -0.27745638448E+03  0.27745638453E+03  0.50400000000E-02 0.  1.
         24    2    1    2    0    0 -0.35527136788E-14 -0.35527136788E-14 -0.27159467197E+03  0.28331809759E+03  0.80656547035E+02 0.  0.
         66    2    3    3    0    0  0.30512199496E+02 -0.26306684774E+02 -0.13183158040E+03  0.13786443173E+03  0.19999911555E+01 0.  0.
        -13    1    3    3    0    0 -0.30512199496E+02  0.26306684774E+02 -0.13976309157E+03  0.14545366586E+03  0.10566000000E+00 0.  1.
         13    1    4    4    0    0  0.57210016340E+01 -0.47062173299E+01 -0.22799266422E+02  0.23972819081E+02  0.10566000000E+00 0.  1.
        -13    1    4    4    0    0  0.14541385541E+02 -0.11952234913E+02 -0.60792701044E+02  0.63640171882E+02  0.10566000000E+00 0. -1.
         14    1    4    4    0    0  0.10249812320E+02 -0.96482325306E+01 -0.48239612932E+02  0.50251440769E+02  0.00000000000E+00 0. -1.
<mgrwt>
<rscale>  0 0.80656547E+02</rscale>
<asrwt>0</asrwt>
<pdfrwt beam="1">  1        2 0.90180218E-03 0.80656547E+02</pdfrwt>
<pdfrwt beam="2">  1       -1 0.42685588E-01 0.80656547E+02</pdfrwt>
<totfact> 0.87284383E+04</totfact>
</mgrwt>
</event>
<event>
 8    1  0.2389776E-024  0.7824953E+02  0.7818608E-02  0.1334094E+00
         -1   -1    0    0    0  501 -0.00000000000E+00  0.00000000000E+00  0.97421432252E+02  0.97421432382E+02  0.50400000000E-02 0.  1.
          2   -1    0    0  501    0  0.00000000000E+00 -0.00000000000E+00 -0.15712631055E+02  0.15712631262E+02  0.25500000000E-02 0. -1.
         24    2    1    2    0    0 -0.88817841970E-15 -0.71054273576E-14  0.81708801196E+02  0.11313406364E+03  0.78249525007E+02 0.  0.
         66    2    3    3    0    0  0.55598459299E+01  0.33293119931E+02  0.12350556572E+02  0.35998332735E+02  0.19999976513E+01 0.  0.
        -13    1    3    3    0    0 -0.55598459299E+01 -0.33293119931E+02  0.69358244625E+02  0.77135730909E+02  0.10566000000E+00 0.  1.
         13    1    4    4    0    0  0.26470546865E+01  0.19352556991E+02  0.76956489241E+01  0.20994345358E+02  0.10566000000E+00 0.  1.
        -13    1    4    4    0    0  0.14515953262E+01  0.70397772515E+01  0.27582587212E+01  0.76996589503E+01  0.10566000000E+00 0. -1.
        -14    1    4    4    0    0  0.14611959172E+01  0.69007856880E+01  0.18966489264E+01  0.73043284271E+01  0.00000000000E+00 0.  1.
<mgrwt>
<rscale>  0 0.78249525E+02</rscale>
<asrwt>0</asrwt>
<pdfrwt beam="1">  1        2 0.24173279E-02 0.78249525E+02</pdfrwt>
<pdfrwt beam="2">  1       -1 0.14987913E-01 0.78249525E+02</pdfrwt>
<totfact> 0.12594309E+05</totfact>
</mgrwt>
</event>
<event>
 8    1  0.2389776E-024  0.7400422E+02  0.7818608E-02  0.1346983E+00
         -1   -1    0    0    0  501 -0.00000000000E+00  0.00000000000E+00  0.29728792107E+03  0.29728792112E+03  0.50400000000E-02 0.  1.
          2   -1    0    0  501    0  0.00000000000E+00 -0.00000000000E+00 -0.46054880684E+01  0.46054887743E+01  0.25500000000E-02 0. -1.
         24    2    1    2    0    0  0.00000000000E+00 -0.35527136788E-14  0.29268243301E+03  0.30189340989E+03  0.74004218431E+02 0.  0.
         66    2    3    3    0    0  0.19869615125E+02  0.31042735186E+02  0.15847909698E+03  0.16272085664E+03  0.19999985147E+01 0.  0.
        -13    1    3    3    0    0 -0.19869615125E+02 -0.31042735186E+02  0.13420333603E+03  0.13917255325E+03  0.10566000000E+00 0.  1.
         13    1    4    4    0    0  0.81498415334E+01  0.11936463542E+02  0.60951681107E+02  0.62641980115E+02  0.10566000000E+00 0. -1.
        -13    1    4    4    0    0  0.64813907164E+01  0.10050185591E+02  0.54705213655E+02  0.55997198332E+02  0.10566000000E+00 0.  1.
         14    1    4    4    0    0  0.52383828754E+01  0.90560860526E+01  0.42822202215E+02  0.44081678192E+02  0.00000000000E+00 0. -1.
<mgrwt>
<rscale>  0 0.74004218E+02</rscale>
<asrwt>0</asrwt>
<pdfrwt beam="1">  1        2 0.70853655E-03 0.74004218E+02</pdfrwt>
<pdfrwt beam="2">  1       -1 0.45736612E-01 0.74004218E+02</pdfrwt>
<totfact> 0.10587298E+05</totfact>
</mgrwt>
</event>
<event>
 8    1  0.2389776E-024  0.7974837E+02  0.7818608E-02  0.1329767E+00
          2   -1    0    0  501    0  0.00000000000E+00  0.00000000000E+00  0.52235476171E+02  0.52235476233E+02  0.25500000000E-02 0. -1.
         -1   -1    0    0    0  501 -0.00000000000E+00 -0.00000000000E+00 -0.30438139320E+02  0.30438139737E+02  0.50400000000E-02 0.  1.
         24    2    1    2    0    0 -0.17763568394E-14  0.00000000000E+00  0.21797336850E+02  0.82673615970E+02  0.79748372296E+02 0.  0.
         66    2    3    3    0    0 -0.94479482171E+01 -0.33421011233E+02  0.31159767438E+02  0.46702878031E+02  0.19999980669E+01 0.  0.
        -13    1    3    3    0    0  0.94479482171E+01  0.33421011233E+02 -0.93624305874E+01  0.35970737939E+02  0.10566000000E+00 0.  1.
         13    1    4    4    0    0 -0.16958302126E+01 -0.49719253001E+01  0.54336733528E+01  0.75585614663E+01  0.10566000000E+00 0. -1.
        -13    1    4    4    0    0 -0.29037322748E+01 -0.12106473420E+02  0.11262082795E+02  0.16788211123E+02  0.10566000000E+00 0.  1.
         14    1    4    4    0    0 -0.48483857296E+01 -0.16342612513E+02  0.14464011290E+02  0.22356105442E+02  0.00000000000E+00 0. -1.
<mgrwt>
<rscale>  0 0.79748372E+02</rscale>
<asrwt>0</asrwt>
<pdfrwt beam="1">  1        2 0.80362271E-02 0.79748372E+02</pdfrwt>
<pdfrwt beam="2">  1       -1 0.46827907E-02 0.79748372E+02</pdfrwt>
<totfact> 0.15217418E+05</totfact>
</mgrwt>
</event>
<event>
 8    1  0.2389776E-024  0.7782046E+02  0.7818608E-02  0.1335353E+00
         -1   -1    0    0    0  501 -0.00000000000E+00  0.00000000000E+00  0.73420084488E+02  0.73420084661E+02  0.50400000000E-02 0.  1.
          2   -1    0    0  501    0  0.00000000000E+00 -0.00000000000E+00 -0.20621142179E+02  0.20621142337E+02  0.25500000000E-02 0. -1.
         24    2    1    2    0    0  0.17763568394E-14  0.00000000000E+00  0.52798942309E+02  0.94041226997E+02  0.77820460460E+02 0.  0.
         66    2    3    3    0    0 -0.95393324704E+01 -0.79398473565E+01 -0.18114725199E+02  0.22049564679E+02  0.19999983661E+01 0.  0.
        -13    1    3    3    0    0  0.95393324704E+01  0.79398473565E+01  0.70913667507E+02  0.71991662319E+02  0.10566000000E+00 0.  1.
         13    1    4    4    0    0 -0.79333195847E+01 -0.73930961353E+01 -0.16080501374E+02  0.19395595339E+02  0.10566000000E+00 0. -1.
        -13    1    4    4    0    0 -0.65768931307E+00 -0.22500539382E+00 -0.83098764211E+00  0.10885252210E+01  0.10566000000E+00 0.  1.
         14    1    4    4    0    0 -0.94832357259E+00 -0.32174582739E+00 -0.12032361830E+01  0.15654441184E+01  0.00000000000E+00 0. -1.
<mgrwt>
<rscale>  0 0.77820460E+02</rscale>
<asrwt>0</asrwt>
<pdfrwt beam="1">  1        2 0.31724834E-02 0.77820460E+02</pdfrwt>
<pdfrwt beam="2">  1       -1 0.11295398E-01 0.77820460E+02</pdfrwt>
<totfact> 0.13518908E+05</totfact>
</mgrwt>
</event>
<event>
 8    1  0.2389776E-024  0.7189790E+02  0.7818608E-02  0.1353756E+00
         -1   -1    0    0    0  501 -0.00000000000E+00  0.00000000000E+00  0.86090253591E+01  0.86090268344E+01  0.50400000000E-02 0.  1.
          2   -1    0    0  501    0  0.00000000000E+00 -0.00000000000E+00 -0.15011302621E+03  0.15011302623E+03  0.25500000000E-02 0. -1.
         24    2    1    2    0    0  0.00000000000E+00  0.00000000000E+00 -0.14150400085E+03  0.15872205307E+03  0.71897898945E+02 0.  0.
         66    2    3    3    0    0  0.15702752324E+02 -0.52423088272E+00 -0.14211837025E+03  0.14299819023E+03  0.19999997921E+01 0.  0.
        -13    1    3    3    0    0 -0.15702752324E+02  0.52423088272E+00  0.61436939924E+00  0.15723862832E+02  0.10566000000E+00 0.  1.
         13    1    4    4    0    0  0.55185574521E+01 -0.75396416911E+00 -0.51308448681E+02  0.51609989425E+02  0.10566000000E+00 0. -1.
        -13    1    4    4    0    0  0.23076065780E+01  0.20316296296E+00 -0.16539186819E+02  0.16700963685E+02  0.10566000000E+00 0.  1.
        -14    1    4    4    0    0  0.78765882936E+01  0.26570323426E-01 -0.74270734750E+02  0.74687237126E+02  0.00000000000E+00 0.  1.
<mgrwt>
<rscale>  0 0.71897899E+02</rscale>
<asrwt>0</asrwt>
<pdfrwt beam="1">  1        2 0.23094310E-01 0.71897899E+02</pdfrwt>
<pdfrwt beam="2">  1       -1 0.13244657E-02 0.71897899E+02</pdfrwt>
<totfact> 0.26547562E+05</totfact>
</mgrwt>
</event>
<event>
 8    1  0.2389776E-024  0.7921891E+02  0.7818608E-02  0.1331283E+00
         -1   -1    0    0    0  501 -0.00000000000E+00  0.00000000000E+00  0.41660229776E+02  0.41660230081E+02  0.50400000000E-02 0.  1.
          2   -1    0    0  501    0  0.00000000000E+00 -0.00000000000E+00 -0.37659634750E+02  0.37659634836E+02  0.25500000000E-02 0. -1.
         24    2    1    2    0    0  0.00000000000E+00  0.00000000000E+00  0.40005950261E+01  0.79319864917E+02  0.79218913208E+02 0.  0.
         66    2    3    3    0    0  0.24254766388E+02 -0.25291603839E+02 -0.16432356332E+02  0.38755402853E+02  0.19999995927E+01 0.  0.
        -13    1    3    3    0    0 -0.24254766388E+02  0.25291603839E+02  0.20432951358E+02  0.40564462064E+02  0.10566000000E+00 0.  1.
         13    1    4    4    0    0  0.16097834050E+02 -0.16680771841E+02 -0.11498790608E+02  0.25877050833E+02  0.10566000000E+00 0. -1.
        -13    1    4    4    0    0  0.43753445519E+01 -0.52351891894E+01 -0.26832641075E+01  0.73322517758E+01  0.10566000000E+00 0.  1.
         14    1    4    4    0    0  0.37815877861E+01 -0.33756428088E+01 -0.22503016162E+01  0.55461002444E+01  0.00000000000E+00 0. -1.
<mgrwt>
<rscale>  0 0.79218913E+02</rscale>
<asrwt>0</asrwt>
<pdfrwt beam="1">  1        2 0.57937900E-02 0.79218913E+02</pdfrwt>
<pdfrwt beam="2">  1       -1 0.64092662E-02 0.79218913E+02</pdfrwt>
<totfact> 0.14468612E+05</totfact>
</mgrwt>
</event>
<event>
 8    1  0.2389776E-024  0.7949074E+02  0.7818608E-02  0.1330503E+00
          2   -1    0    0  501    0  0.00000000000E+00  0.00000000000E+00  0.34779240588E+03  0.34779240589E+03  0.25500000000E-02 0. -1.
         -1   -1    0    0    0  501 -0.00000000000E+00 -0.00000000000E+00 -0.45420596843E+01  0.45420624806E+01  0.50400000000E-02 0.  1.
         24    2    1    2    0    0 -0.35527136788E-14  0.00000000000E+00  0.34325034619E+03  0.35233446837E+03  0.79490738064E+02 0.  0.
         66    2    3    3    0    0  0.30510053303E+02  0.58263936565E+01  0.28146368139E+03  0.28317947341E+03  0.20000013667E+01 0.  0.
        -13    1    3    3    0    0 -0.30510053303E+02 -0.58263936565E+01  0.61786664807E+02  0.69154994958E+02  0.10566000000E+00 0.  1.
         13    1    4    4    0    0  0.17913533242E+02  0.37610508842E+01  0.17358956279E+03  0.17455196261E+03  0.10566000000E+00 0. -1.
        -13    1    4    4    0    0  0.15311395900E+01  0.34133189449E+00  0.13029374641E+02  0.13123896657E+02  0.10566000000E+00 0.  1.
         14    1    4    4    0    0  0.11065380472E+02  0.17240108778E+01  0.94844743958E+02  0.95503614146E+02  0.00000000000E+00 0. -1.
<mgrwt>
<rscale>  0 0.79490738E+02</rscale>
<asrwt>0</asrwt>
<pdfrwt beam="1">  1        2 0.53506543E-01 0.79490738E+02</pdfrwt>
<pdfrwt beam="2">  1       -1 0.69877838E-03 0.79490738E+02</pdfrwt>
<totfact> 0.27341704E+05</totfact>
</mgrwt>
</event>
<event>
 8    1  0.2389776E-024  0.8682613E+02  0.7818608E-02  0.1310725E+00
         -1   -1    0    0    0  501 -0.00000000000E+00  0.00000000000E+00  0.49331901290E+01  0.49331927036E+01  0.50400000000E-02 0.  1.
          2   -1    0    0  501    0  0.00000000000E+00 -0.00000000000E+00 -0.38204360267E+03  0.38204360267E+03  0.25500000000E-02 0. -1.
         24    2    1    2    0    0  0.00000000000E+00  0.00000000000E+00 -0.37711041254E+03  0.38697679538E+03  0.86826130383E+02 0.  0.
         66    2    3    3    0    0 -0.32883045594E+02  0.28264593054E+02 -0.19571220494E+03  0.20046807496E+03  0.20000020459E+01 0.  0.
        -13    1    3    3    0    0  0.32883045594E+02 -0.28264593054E+02 -0.18139820760E+03  0.18650872042E+03  0.10566000000E+00 0.  1.
         13    1    4    4    0    0 -0.37482723106E+01  0.35506681457E+01 -0.22631162965E+02  0.23212873384E+02  0.10566000000E+00 0. -1.
        -13    1    4    4    0    0 -0.17540012912E+02  0.14983336803E+02 -0.10820025518E+03  0.11063208766E+03  0.10566000000E+00 0.  1.
        -14    1    4    4    0    0 -0.11594760372E+02  0.97305881053E+01 -0.64880786790E+02  0.66623113913E+02  0.00000000000E+00 0.  1.
<mgrwt>
<rscale>  0 0.86826130E+02</rscale>
<asrwt>0</asrwt>
<pdfrwt beam="1">  1        2 0.58775916E-01 0.86826130E+02</pdfrwt>
<pdfrwt beam="2">  1       -1 0.75895283E-03 0.86826130E+02</pdfrwt>
<totfact> 0.22425535E+05</totfact>
</mgrwt>
</event>
<event>
 8    1  0.2389776E-024  0.7780524E+02  0.7818608E-02  0.1335398E+00
         -1   -1    0    0    0  501 -0.00000000000E+00  0.00000000000E+00  0.48315688472E+02  0.48315688734E+02  0.50400000000E-02 0.  1.
          2   -1    0    0  501    0  0.00000000000E+00 -0.00000000000E+00 -0.31323448105E+02  0.31323448209E+02  0.25500000000E-02 0. -1.
         24    2    1    2    0    0  0.00000000000E+00  0.00000000000E+00  0.16992240366E+02  0.79639136943E+02  0.77805243399E+02 0.  0.
         66    2    3    3    0    0  0.10635916492E+02  0.18953193893E+02 -0.24492555257E+02  0.32805968032E+02  0.19999992836E+01 0.  0.
        -13    1    3    3    0    0 -0.10635916492E+02 -0.18953193893E+02  0.41484795623E+02  0.46833168912E+02  0.10566000000E+00 0.  1.
         13    1    4    4    0    0  0.55913750139E+01  0.10149389549E+02 -0.14290803410E+02  0.18398690413E+02  0.10566000000E+00 0. -1.
        -13    1    4    4    0    0  0.49684625435E+01  0.84048214402E+01 -0.98592792946E+01  0.13875993504E+02  0.10566000000E+00 0.  1.
        -14    1    4    4    0    0  0.76078934679E-01  0.39898290320E+00 -0.34247255186E+00  0.53128411432E+00  0.00000000000E+00 0.  1.
<mgrwt>
<rscale>  0 0.77805243E+02</rscale>
<asrwt>0</asrwt>
<pdfrwt beam="1">  1        2 0.48189920E-02 0.77805243E+02</pdfrwt>
<pdfrwt beam="2">  1       -1 0.74331829E-02 0.77805243E+02</pdfrwt>
<totfact> 0.14665803E+05</totfact>
</mgrwt>
</event>
<event>
 8    1  0.2389776E-024  0.8018187E+02  0.7818608E-02  0.1328536E+00
          2   -1    0    0  501    0  0.00000000000E+00  0.00000000000E+00  0.29723630008E+03  0.29723630009E+03  0.25500000000E-02 0. -1.
         -1   -1    0    0    0  501 -0.00000000000E+00 -0.00000000000E+00 -0.54074245654E+01  0.54074269142E+01  0.50400000000E-02 0.  1.
         24    2    1    2    0    0 -0.35527136788E-14 -0.22204460493E-15  0.29182887552E+03  0.30264372701E+03  0.80181873959E+02 0.  0.
         66    2    3    3    0    0 -0.27371992232E+02 -0.12285514687E+01  0.25634228651E+03  0.25781020762E+03  0.20000003944E+01 0.  0.
        -13    1    3    3    0    0  0.27371992232E+02  0.12285514687E+01  0.35486589010E+02  0.44833519392E+02  0.10566000000E+00 0.  1.
         13    1    4    4    0    0 -0.56083600314E+01  0.92798138714E-01  0.56970883809E+02  0.57246441634E+02  0.10566000000E+00 0. -1.
        -13    1    4    4    0    0 -0.52787838667E+00 -0.14194181777E+00  0.41335085840E+01  0.41708344872E+01  0.10566000000E+00 0.  1.
         14    1    4    4    0    0 -0.21235753814E+02 -0.11794077896E+01  0.19523789412E+03  0.19639293150E+03  0.00000000000E+00 0. -1.
<mgrwt>
<rscale>  0 0.80181874E+02</rscale>
<asrwt>0</asrwt>
<pdfrwt beam="1">  1        2 0.45728663E-01 0.80181874E+02</pdfrwt>
<pdfrwt beam="2">  1       -1 0.83191163E-03 0.80181874E+02</pdfrwt>
<totfact> 0.25258329E+05</totfact>
</mgrwt>
</event>
<event>
 8    1  0.2389776E-024  0.8007558E+02  0.7818608E-02  0.1328837E+00
          2   -1    0    0  501    0  0.00000000000E+00  0.00000000000E+00  0.25568391794E+03  0.25568391796E+03  0.25500000000E-02 0. -1.
         -1   -1    0    0    0  501 -0.00000000000E+00 -0.00000000000E+00 -0.62695543362E+01  0.62695563620E+01  0.50400000000E-02 0.  1.
         24    2    1    2    0    0  0.00000000000E+00  0.00000000000E+00  0.24941436361E+03  0.26195347432E+03  0.80075576387E+02 0.  0.
         66    2    3    3    0    0  0.85067379980E+01  0.21744163300E+02  0.23108259951E+03  0.23226782176E+03  0.19999997469E+01 0.  0.
        -13    1    3    3    0    0 -0.85067379980E+01 -0.21744163300E+02  0.18331764099E+02  0.29685652562E+02  0.10566000000E+00 0.  1.
         13    1    4    4    0    0  0.52736033598E+01  0.12420712562E+02  0.14177578716E+03  0.14241653690E+03  0.10566000000E+00 0.  1.
        -13    1    4    4    0    0  0.12418840160E+01  0.30691772046E+01  0.30319181187E+02  0.30499607153E+02  0.10566000000E+00 0. -1.
        -14    1    4    4    0    0  0.19912506222E+01  0.62542735341E+01  0.58987631156E+02  0.59351677701E+02  0.00000000000E+00 0.  1.
<mgrwt>
<rscale>  0 0.80075576E+02</rscale>
<asrwt>0</asrwt>
<pdfrwt beam="1">  1        2 0.39335984E-01 0.80075576E+02</pdfrwt>
<pdfrwt beam="2">  1       -1 0.96454706E-03 0.80075576E+02</pdfrwt>
<totfact> 0.24001889E+05</totfact>
</mgrwt>
</event>
<event>
 8    1  0.2389776E-024  0.8004705E+02  0.7818608E-02  0.1328918E+00
         -1   -1    0    0    0  501 -0.00000000000E+00  0.00000000000E+00  0.11652724430E+01  0.11652833424E+01  0.50400000000E-02 0.  1.
          2   -1    0    0  501    0  0.00000000000E+00 -0.00000000000E+00 -0.13746784480E+04  0.13746784480E+04  0.25500000000E-02 0. -1.
         24    2    1    2    0    0  0.00000000000E+00  0.17763568394E-14 -0.13735131756E+04  0.13758437313E+04  0.80047046492E+02 0.  0.
         66    2    3    3    0    0 -0.12124177755E+01  0.15675168678E+02 -0.13193397154E+04  0.13194349038E+04  0.19999993860E+01 0.  0.
        -13    1    3    3    0    0  0.12124177755E+01 -0.15675168678E+02 -0.54173460178E+02  0.56408827515E+02  0.10566000000E+00 0.  1.
         13    1    4    4    0    0 -0.30783259125E+00  0.46195648360E+01 -0.46775460022E+03  0.46777752440E+03  0.10566000000E+00 0. -1.
        -13    1    4    4    0    0 -0.29620995828E+00  0.33748712315E+01 -0.25938679590E+03  0.25940894077E+03  0.10566000000E+00 0.  1.
         14    1    4    4    0    0 -0.60837522599E+00  0.76807326105E+01 -0.59219831926E+03  0.59224843867E+03  0.00000000000E+00 0. -1.
<mgrwt>
<rscale>  0 0.80047046E+02</rscale>
<asrwt>0</asrwt>
<pdfrwt beam="1">  1        2 0.21148770E+00 0.80047046E+02</pdfrwt>
<pdfrwt beam="2">  1       -1 0.17927462E-03 0.80047046E+02</pdfrwt>
<totfact> 0.34130290E+05</totfact>
</mgrwt>
</event>
<event>
 8    1  0.2389776E-024  0.7880190E+02  0.7818608E-02  0.1332486E+00
          2   -1    0    0  501    0  0.00000000000E+00  0.00000000000E+00  0.41575218033E+03  0.41575218034E+03  0.25500000000E-02 0. -1.
         -1   -1    0    0    0  501 -0.00000000000E+00 -0.00000000000E+00 -0.37340369510E+01  0.37340403524E+01  0.50400000000E-02 0.  1.
         24    2    1    2    0    0  0.00000000000E+00  0.35527136788E-14  0.41201814338E+03  0.41948622069E+03  0.78801896396E+02 0.  0.
         66    2    3    3    0    0  0.35838966020E+02 -0.13665928238E+02  0.25352796145E+03  0.25642077980E+03  0.19999993679E+01 0.  0.
        -13    1    3    3    0    0 -0.35838966020E+02  0.13665928238E+02  0.15849018193E+03  0.16306544089E+03  0.10566000000E+00 0.  1.
         13    1    4    4    0    0  0.10799452369E+02 -0.34827423632E+01  0.73538839745E+02  0.74409204947E+02  0.10566000000E+00 0. -1.
        -13    1    4    4    0    0  0.16098498003E+02 -0.70786957595E+01  0.11504588090E+03  0.11638228150E+03  0.10566000000E+00 0.  1.
         14    1    4    4    0    0  0.89410156490E+01 -0.31044901156E+01  0.64943240807E+02  0.65629293354E+02  0.00000000000E+00 0. -1.
<mgrwt>
<rscale>  0 0.78801896E+02</rscale>
<asrwt>0</asrwt>
<pdfrwt beam="1">  1        2 0.63961894E-01 0.78801896E+02</pdfrwt>
<pdfrwt beam="2">  1       -1 0.57446731E-03 0.78801896E+02</pdfrwt>
<totfact> 0.29785392E+05</totfact>
</mgrwt>
</event>
<event>
 8    1  0.2389776E-024  0.8096694E+02  0.7818608E-02  0.1326330E+00
          2   -1    0    0  501    0  0.00000000000E+00  0.00000000000E+00  0.27656186006E+02  0.27656186124E+02  0.25500000000E-02 0. -1.
         -1   -1    0    0    0  501 -0.00000000000E+00 -0.00000000000E+00 -0.59260208276E+02  0.59260208490E+02  0.50400000000E-02 0.  1.
         24    2    1    2    0    0 -0.17763568394E-14 -0.44408920985E-15 -0.31604022269E+02  0.86916394614E+02  0.80966940346E+02 0.  0.
         66    2    3    3    0    0 -0.12876221861E+02 -0.35008002379E+01  0.25189883314E+02  0.28575914952E+02  0.20000005596E+01 0.  0.
        -13    1    3    3    0    0  0.12876221861E+02  0.35008002379E+01 -0.56793905584E+02  0.58340479662E+02  0.10566000000E+00 0.  1.
         13    1    4    4    0    0 -0.19249020887E+01 -0.58388896254E+00  0.51215091216E+01  0.55033802421E+01  0.10566000000E+00 0. -1.
        -13    1    4    4    0    0 -0.31628364044E+01 -0.13226975273E+01  0.57564739480E+01  0.67008372029E+01  0.10566000000E+00 0.  1.
         14    1    4    4    0    0 -0.77884833674E+01 -0.15942137480E+01  0.14311900245E+02  0.16371697507E+02  0.00000000000E+00 0. -1.
<mgrwt>
<rscale>  0 0.80966940E+02</rscale>
<asrwt>0</asrwt>
<pdfrwt beam="1">  1        2 0.42547979E-02 0.80966940E+02</pdfrwt>
<pdfrwt beam="2">  1       -1 0.91169551E-02 0.80966940E+02</pdfrwt>
<totfact> 0.12800442E+05</totfact>
</mgrwt>
</event>
<event>
 8    1  0.2389776E-024  0.7870695E+02  0.7818608E-02  0.1332761E+00
          2   -1    0    0  501    0  0.00000000000E+00  0.00000000000E+00  0.20959897198E+04  0.20959897198E+04  0.25500000000E-02 0. -1.
         -1   -1    0    0    0  501 -0.00000000000E+00 -0.00000000000E+00 -0.73887679490E+00  0.73889398403E+00  0.50400000000E-02 0.  1.
         24    2    1    2    0    0 -0.88817841970E-15  0.00000000000E+00  0.20952508430E+04  0.20967286138E+04  0.78706954926E+02 0.  0.
         66    2    3    3    0    0 -0.76552067141E+01  0.10727487244E+02  0.20354109500E+04  0.20354545970E+04  0.19999891668E+01 0.  0.
        -13    1    3    3    0    0  0.76552067141E+01 -0.10727487244E+02  0.59839893033E+02  0.61274016799E+02  0.10566000000E+00 0.  1.
         13    1    4    4    0    0 -0.43931076108E+01  0.60575156769E+01  0.12368938150E+04  0.12369164538E+04  0.10566000000E+00 0. -1.
        -13    1    4    4    0    0 -0.10818730153E+01  0.24194749159E+01  0.38501072018E+03  0.38501985679E+03  0.10566000000E+00 0.  1.
        -14    1    4    4    0    0 -0.21802260880E+01  0.22504966510E+01  0.41350641483E+03  0.41351828645E+03  0.00000000000E+00 0.  1.
<mgrwt>
<rscale>  0 0.78706955E+02</rscale>
<asrwt>0</asrwt>
<pdfrwt beam="1">  1        2 0.32245883E+00 0.78706955E+02</pdfrwt>
<pdfrwt beam="2">  1       -1 0.11367507E-03 0.78706955E+02</pdfrwt>
<totfact> 0.27655624E+05</totfact>
</mgrwt>
</event>
<event>
 8    1  0.2389776E-024  0.7986534E+02  0.7818608E-02  0.1329434E+00
         -1   -1    0    0    0  501 -0.00000000000E+00  0.00000000000E+00  0.26379762469E+02  0.26379762951E+02  0.50400000000E-02 0.  1.
          2   -1    0    0  501    0  0.00000000000E+00 -0.00000000000E+00 -0.60448543421E+02  0.60448543475E+02  0.25500000000E-02 0. -1.
         24    2    1    2    0    0  0.00000000000E+00  0.00000000000E+00 -0.34068780952E+02  0.86828306425E+02  0.79865342678E+02 0.  0.
         66    2    3    3    0    0 -0.18181593630E+02  0.24365132027E+02 -0.45152124924E+02  0.54469664871E+02  0.20000000801E+01 0.  0.
        -13    1    3    3    0    0  0.18181593630E+02 -0.24365132027E+02  0.11083343973E+02  0.32358641555E+02  0.10566000000E+00 0.  1.
         13    1    4    4    0    0 -0.55519061850E+01  0.70349704212E+01 -0.14755229647E+02  0.17263905615E+02  0.10566000000E+00 0. -1.
        -13    1    4    4    0    0 -0.51522948632E+01  0.67060574999E+01 -0.11577940385E+02  0.14337964191E+02  0.10566000000E+00 0.  1.
         14    1    4    4    0    0 -0.74773925818E+01  0.10624104106E+02 -0.18818954893E+02  0.22867795065E+02  0.00000000000E+00 0. -1.
<mgrwt>
<rscale>  0 0.79865343E+02</rscale>
<asrwt>0</asrwt>
<pdfrwt beam="1">  1        2 0.92997759E-02 0.79865343E+02</pdfrwt>
<pdfrwt beam="2">  1       -1 0.40584251E-02 0.79865343E+02</pdfrwt>
<totfact> 0.15664633E+05</totfact>
</mgrwt>
</event>
<event>
 8    1  0.2389776E-024  0.7991579E+02  0.7818608E-02  0.1329291E+00
          2   -1    0    0  501    0  0.00000000000E+00  0.00000000000E+00  0.20384377585E+04  0.20384377585E+04  0.25500000000E-02 0. -1.
         -1   -1    0    0    0  501 -0.00000000000E+00 -0.00000000000E+00 -0.78325505359E+00  0.78327126883E+00  0.50400000000E-02 0.  1.
         24    2    1    2    0    0 -0.17763568394E-14  0.00000000000E+00  0.20376545034E+04  0.20392210298E+04  0.79915785940E+02 0.  0.
         66    2    3    3    0    0 -0.15814531294E+02 -0.15069202625E+01  0.19543303736E+04  0.19543959628E+04  0.20000010986E+01 0.  0.
        -13    1    3    3    0    0  0.15814531294E+02  0.15069202625E+01  0.83324129850E+02  0.84825066980E+02  0.10566000000E+00 0.  1.
         13    1    4    4    0    0 -0.22924266433E+01 -0.66211782747E-01  0.29647725330E+03  0.29648614216E+03  0.10566000000E+00 0. -1.
        -13    1    4    4    0    0 -0.11721926080E+02 -0.16678963827E+01  0.14838580511E+04  0.14839052909E+04  0.10566000000E+00 0.  1.
         14    1    4    4    0    0 -0.18001785709E+01  0.22718790300E+00  0.17399506923E+03  0.17400452975E+03  0.00000000000E+00 0. -1.
<mgrwt>
<rscale>  0 0.79915786E+02</rscale>
<asrwt>0</asrwt>
<pdfrwt beam="1">  1        2 0.31361144E+00 0.79915786E+02</pdfrwt>
<pdfrwt beam="2">  1       -1 0.12049986E-03 0.79915786E+02</pdfrwt>
<totfact> 0.27337358E+05</totfact>
</mgrwt>
</event>
<event>
 8    1  0.2389776E-024  0.7893886E+02  0.7818608E-02  0.1332090E+00
         -1   -1    0    0    0  501 -0.00000000000E+00  0.00000000000E+00  0.19642908909E+01  0.19642973567E+01  0.50400000000E-02 0.  1.
          2   -1    0    0  501    0  0.00000000000E+00 -0.00000000000E+00 -0.79307677937E+03  0.79307677938E+03  0.25500000000E-02 0. -1.
         24    2    1    2    0    0  0.00000000000E+00 -0.17763568394E-14 -0.79111248848E+03  0.79504107673E+03  0.78938864077E+02 0.  0.
         66    2    3    3    0    0 -0.14734504219E+02  0.13371332038E+02 -0.73882605461E+03  0.73909663584E+03  0.20000037001E+01 0.  0.
        -13    1    3    3    0    0  0.14734504219E+02 -0.13371332038E+02 -0.52286433875E+02  0.55944440890E+02  0.10566000000E+00 0.  1.
         13    1    4    4    0    0 -0.41002503511E+01  0.38387349479E+01 -0.18373774786E+03  0.18382360864E+03  0.10566000000E+00 0. -1.
        -13    1    4    4    0    0 -0.49607573499E+01  0.39139536867E+01 -0.23190569876E+03  0.23199179388E+03  0.10566000000E+00 0. -1.
        -14    1    4    4    0    0 -0.56734965183E+01  0.56186434035E+01 -0.32318260799E+03  0.32328123333E+03  0.00000000000E+00 0.  1.
<mgrwt>
<rscale>  0 0.78938864E+02</rscale>
<asrwt>0</asrwt>
<pdfrwt beam="1">  1        2 0.12201156E+00 0.78938864E+02</pdfrwt>
<pdfrwt beam="2">  1       -1 0.30219973E-03 0.78938864E+02</pdfrwt>
<totfact> 0.35523865E+05</totfact>
</mgrwt>
</event>
<event>
 8    1  0.2389776E-024  0.8110301E+02  0.7818608E-02  0.1325950E+00
         -1   -1    0    0    0  501 -0.00000000000E+00  0.00000000000E+00  0.80188484357E+02  0.80188484515E+02  0.50400000000E-02 0.  1.
          2   -1    0    0  501    0  0.00000000000E+00 -0.00000000000E+00 -0.20506992010E+02  0.20506992169E+02  0.25500000000E-02 0. -1.
         24    2    1    2    0    0 -0.17763568394E-14  0.00000000000E+00  0.59681492346E+02  0.10069547668E+03  0.81103011633E+02 0.  0.
         66    2    3    3    0    0  0.93605633333E+01 -0.32537647396E+02  0.57512846890E+02  0.66768601922E+02  0.20000003030E+01 0.  0.
        -13    1    3    3    0    0 -0.93605633333E+01  0.32537647396E+02  0.21686454560E+01  0.33926874762E+02  0.10566000000E+00 0.  1.
         13    1    4    4    0    0  0.34820013916E+01 -0.12587349113E+02  0.23333330004E+02  0.26739879291E+02  0.10566000000E+00 0. -1.
        -13    1    4    4    0    0  0.25715505116E+01 -0.81142850039E+01  0.15088589321E+02  0.17324294643E+02  0.10566000000E+00 0.  1.
        -14    1    4    4    0    0  0.33070114301E+01 -0.11836013279E+02  0.19090927565E+02  0.22704427987E+02  0.00000000000E+00 0.  1.
<mgrwt>
<rscale>  0 0.81103012E+02</rscale>
<asrwt>0</asrwt>
<pdfrwt beam="1">  1        2 0.31549219E-02 0.81103012E+02</pdfrwt>
<pdfrwt beam="2">  1       -1 0.12336690E-01 0.81103012E+02</pdfrwt>
<totfact> 0.11997518E+05</totfact>
</mgrwt>
</event>
<event>
 8    1  0.2389776E-024  0.7906868E+02  0.7818608E-02  0.1331715E+00
          2   -1    0    0  501    0  0.00000000000E+00  0.00000000000E+00  0.15359161459E+02  0.15359161671E+02  0.25500000000E-02 0. -1.
         -1   -1    0    0    0  501 -0.00000000000E+00 -0.00000000000E+00 -0.10176103643E+03  0.10176103655E+03  0.50400000000E-02 0.  1.
         24    2    1    2    0    0  0.00000000000E+00  0.44408920985E-15 -0.86401874969E+02  0.11712019822E+03  0.79068684279E+02 0.  0.
         66    2    3    3    0    0 -0.21597943871E+02 -0.37101646180E+01  0.54665065581E+01  0.22674196776E+02  0.20000011376E+01 0.  0.
        -13    1    3    3    0    0  0.21597943871E+02  0.37101646180E+01 -0.91868381527E+02  0.94446001447E+02  0.10566000000E+00 0.  1.
         13    1    4    4    0    0 -0.16398026172E+02 -0.29694647890E+01  0.46684662601E+01  0.17306609279E+02  0.10566000000E+00 0. -1.
        -13    1    4    4    0    0 -0.13938605912E+01 -0.20662193585E+00  0.54977544496E+00  0.15162311986E+01  0.10566000000E+00 0.  1.
        -14    1    4    4    0    0 -0.38060571076E+01 -0.53407789309E+00  0.24826485305E+00  0.38513562987E+01  0.00000000000E+00 0.  1.
<mgrwt>
<rscale>  0 0.79068684E+02</rscale>
<asrwt>0</asrwt>
<pdfrwt beam="1">  1        2 0.23629480E-02 0.79068684E+02</pdfrwt>
<pdfrwt beam="2">  1       -1 0.15655544E-01 0.79068684E+02</pdfrwt>
<totfact> 0.12158625E+05</totfact>
</mgrwt>
</event>
<event>
 8    1  0.2389776E-024  0.7907698E+02  0.7818608E-02  0.1331691E+00
         -1   -1    0    0    0  501 -0.00000000000E+00  0.00000000000E+00  0.10381670395E+02  0.10381671619E+02  0.50400000000E-02 0.  1.
          2   -1    0    0  501    0  0.00000000000E+00 -0.00000000000E+00 -0.15058195551E+03  0.15058195553E+03  0.25500000000E-02 0. -1.
         24    2    1    2    0    0  0.00000000000E+00 -0.17763568394E-14 -0.14020028511E+03  0.16096362715E+03  0.79076983497E+02 0.  0.
         66    2    3    3    0    0  0.36550796182E+02 -0.11778986830E+02 -0.89085376017E+02  0.97030456350E+02  0.20000017901E+01 0.  0.
        -13    1    3    3    0    0 -0.36550796182E+02  0.11778986830E+02 -0.51114909095E+02  0.63933170797E+02  0.10566000000E+00 0.  1.
         13    1    4    4    0    0  0.17181524161E+02 -0.54016809535E+01 -0.41323620644E+02  0.45078106845E+02  0.10566000000E+00 0. -1.
        -13    1    4    4    0    0  0.11877553561E+02 -0.43250425278E+01 -0.30997331913E+02  0.33475782608E+02  0.10566000000E+00 0.  1.
         14    1    4    4    0    0  0.74917184607E+01 -0.20522633489E+01 -0.16764423460E+02  0.18476566897E+02  0.00000000000E+00 0. -1.
<mgrwt>
<rscale>  0 0.79076983E+02</rscale>
<asrwt>0</asrwt>
<pdfrwt beam="1">  1        2 0.23166453E-01 0.79076983E+02</pdfrwt>
<pdfrwt beam="2">  1       -1 0.15971803E-02 0.79076983E+02</pdfrwt>
<totfact> 0.20681742E+05</totfact>
</mgrwt>
</event>
<event>
 8    1  0.2389776E-024  0.7922383E+02  0.7818608E-02  0.1331269E+00
          2   -1    0    0  501    0  0.00000000000E+00  0.00000000000E+00  0.42472511500E+02  0.42472511577E+02  0.25500000000E-02 0. -1.
         -1   -1    0    0    0  501 -0.00000000000E+00 -0.00000000000E+00 -0.36943983825E+02  0.36943984169E+02  0.50400000000E-02 0.  1.
         24    2    1    2    0    0 -0.20816681712E-16  0.17763568394E-14  0.55285276755E+01  0.79416495745E+02  0.79223829611E+02 0.  0.
         66    2    3    3    0    0  0.35859544168E-01  0.11157991588E+02  0.40839920910E+02  0.42383973304E+02  0.19999977347E+01 0.  0.
        -13    1    3    3    0    0 -0.35859544168E-01 -0.11157991588E+02 -0.35311393234E+02  0.37032522441E+02  0.10566000000E+00 0.  1.
         13    1    4    4    0    0  0.60175853289E+00  0.67301206235E+01  0.23074498129E+02  0.24043715705E+02  0.10566000000E+00 0. -1.
        -13    1    4    4    0    0  0.15944543508E-01  0.11004058264E+01  0.31128288220E+01  0.33033338496E+01  0.10566000000E+00 0. -1.
        -14    1    4    4    0    0 -0.58184353223E+00  0.33274651379E+01  0.14652593958E+02  0.15036923750E+02  0.00000000000E+00 0.  1.
<mgrwt>
<rscale>  0 0.79223830E+02</rscale>
<asrwt>0</asrwt>
<pdfrwt beam="1">  1        2 0.65342326E-02 0.79223830E+02</pdfrwt>
<pdfrwt beam="2">  1       -1 0.56836899E-02 0.79223830E+02</pdfrwt>
<totfact> 0.14826136E+05</totfact>
</mgrwt>
</event>
<event>
 8    1  0.2389776E-024  0.7868689E+02  0.7818608E-02  0.1332820E+00
         -1   -1    0    0    0  501 -0.00000000000E+00  0.00000000000E+00  0.92750076413E+01  0.92750090107E+01  0.50400000000E-02 0.  1.
          2   -1    0    0  501    0  0.00000000000E+00 -0.00000000000E+00 -0.16689006531E+03  0.16689006533E+03  0.25500000000E-02 0. -1.
         24    2    1    2    0    0 -0.17763568394E-14  0.71054273576E-14 -0.15761505767E+03  0.17616507434E+03  0.78686892258E+02 0.  0.
         66    2    3    3    0    0 -0.12832288204E+02  0.34231855440E+02 -0.11125647429E+03  0.11712596049E+03  0.20000003750E+01 0.  0.
        -13    1    3    3    0    0  0.12832288204E+02 -0.34231855440E+02 -0.46358583374E+02  0.59039113847E+02  0.10566000000E+00 0.  1.
         13    1    4    4    0    0 -0.11107505972E+01  0.31584715208E+01 -0.87539296100E+01  0.93729481429E+01  0.10566000000E+00 0. -1.
        -13    1    4    4    0    0 -0.11611056244E+02  0.30454736463E+02 -0.10032593901E+03  0.10548750070E+03  0.10566000000E+00 0.  1.
        -14    1    4    4    0    0 -0.11048136278E+00  0.61864745531E+00 -0.21766056674E+01  0.22655116501E+01  0.00000000000E+00 0.  1.
<mgrwt>
<rscale>  0 0.78686892E+02</rscale>
<asrwt>0</asrwt>
<pdfrwt beam="1">  1        2 0.25675393E-01 0.78686892E+02</pdfrwt>
<pdfrwt beam="2">  1       -1 0.14269245E-02 0.78686892E+02</pdfrwt>
<totfact> 0.21669806E+05</totfact>
</mgrwt>
</event>
<event>
 8    1  0.2389776E-024  0.8191740E+02  0.7818608E-02  0.1323697E+00
          2   -1    0    0  501    0  0.00000000000E+00  0.00000000000E+00  0.32145334712E+02  0.32145334813E+02  0.25500000000E-02 0. -1.
         -1   -1    0    0    0  501 -0.00000000000E+00 -0.00000000000E+00 -0.52188443871E+02  0.52188444114E+02  0.50400000000E-02 0.  1.
         24    2    1    2    0    0  0.00000000000E+00  0.11102230246E-15 -0.20043109159E+02  0.84333778928E+02  0.81917397685E+02 0.  0.
         66    2    3    3    0    0  0.10428474097E+02 -0.91014441087E+00  0.30712885349E+02  0.32509425798E+02  0.20000011058E+01 0.  0.
        -13    1    3    3    0    0 -0.10428474097E+02  0.91014441087E+00 -0.50755994507E+02  0.51824353130E+02  0.10566000000E+00 0.  1.
         13    1    4    4    0    0  0.36481965950E+01 -0.15913820639E+00  0.10576201412E+02  0.11189363865E+02  0.10566000000E+00 0. -1.
        -13    1    4    4    0    0  0.27262667600E+01  0.16245267070E+00  0.61701546821E+01  0.67483993771E+01  0.10566000000E+00 0.  1.
         14    1    4    4    0    0  0.40540107424E+01 -0.91345887518E+00  0.13966529255E+02  0.14571662556E+02  0.00000000000E+00 0. -1.
<mgrwt>
<rscale>  0 0.81917398E+02</rscale>
<asrwt>0</asrwt>
<pdfrwt beam="1">  1        2 0.49454361E-02 0.81917398E+02</pdfrwt>
<pdfrwt beam="2">  1       -1 0.80289914E-02 0.81917398E+02</pdfrwt>
<totfact> 0.12765619E+05</totfact>
</mgrwt>
</event>
<event>
 8    1  0.2389776E-024  0.7905923E+02  0.7818608E-02  0.1331743E+00
          2   -1    0    0  501    0  0.00000000000E+00  0.00000000000E+00  0.26076441970E+03  0.26076441971E+03  0.25500000000E-02 0. -1.
         -1   -1    0    0    0  501 -0.00000000000E+00 -0.00000000000E+00 -0.59923442740E+01  0.59923463935E+01  0.50400000000E-02 0.  1.
         24    2    1    2    0    0  0.00000000000E+00  0.00000000000E+00  0.25477207542E+03  0.26675676610E+03  0.79059229989E+02 0.  0.
         66    2    3    3    0    0 -0.17979355041E+02 -0.20187571755E+02  0.22466302736E+03  0.22629244601E+03  0.19999998920E+01 0.  0.
        -13    1    3    3    0    0  0.17979355041E+02  0.20187571755E+02  0.30109048068E+02  0.40464320093E+02  0.10566000000E+00 0.  1.
         13    1    4    4    0    0 -0.94398847495E+01 -0.95714007892E+01  0.11250334984E+03  0.11330374234E+03  0.10566000000E+00 0. -1.
        -13    1    4    4    0    0 -0.64012335531E+00 -0.46339595009E+00  0.62314594054E+01  0.62822562884E+01  0.10566000000E+00 0.  1.
        -14    1    4    4    0    0 -0.78993469360E+01 -0.10152775015E+02  0.10592821811E+03  0.10670644739E+03  0.00000000000E+00 0.  1.
<mgrwt>
<rscale>  0 0.79059230E+02</rscale>
<asrwt>0</asrwt>
<pdfrwt beam="1">  1        2 0.40117612E-01 0.79059230E+02</pdfrwt>
<pdfrwt beam="2">  1       -1 0.92189909E-03 0.79059230E+02</pdfrwt>
<totfact> 0.24997379E+05</totfact>
</mgrwt>
</event>
<event>
 8    1  0.2389776E-024  0.8070473E+02  0.7818608E-02  0.1327063E+00
         -1   -1    0    0    0  501 -0.00000000000E+00  0.00000000000E+00  0.37864489640E+01  0.37864523183E+01  0.50400000000E-02 0.  1.
          2   -1    0    0  501    0  0.00000000000E+00 -0.00000000000E+00 -0.43003681906E+03  0.43003681906E+03  0.25500000000E-02 0. -1.
         24    2    1    2    0    0  0.00000000000E+00  0.17763568394E-14 -0.42625037009E+03  0.43382327138E+03  0.80704725939E+02 0.  0.
         66    2    3    3    0    0 -0.24619843947E+02  0.83909940196E+01 -0.37891714945E+03  0.37981410145E+03  0.20000036503E+01 0.  0.
        -13    1    3    3    0    0  0.24619843947E+02 -0.83909940196E+01 -0.47333220644E+02  0.54009169936E+02  0.10566000000E+00 0.  1.
         13    1    4    4    0    0 -0.14492849079E+02  0.43177082716E+01 -0.20952215168E+03  0.21006719993E+03  0.10566000000E+00 0. -1.
        -13    1    4    4    0    0 -0.57011626963E+01  0.24671231963E+01 -0.94298900732E+02  0.94503353360E+02  0.10566000000E+00 0.  1.
        -14    1    4    4    0    0 -0.44258321720E+01  0.16061625517E+01 -0.75096097039E+02  0.75243548155E+02  0.00000000000E+00 0.  1.
<mgrwt>
<rscale>  0 0.80704726E+02</rscale>
<asrwt>0</asrwt>
<pdfrwt beam="1">  1        2 0.66159472E-01 0.80704726E+02</pdfrwt>
<pdfrwt beam="2">  1       -1 0.58253121E-03 0.80704726E+02</pdfrwt>
<totfact> 0.28313896E+05</totfact>
</mgrwt>
</event>
<event>
 8    1  0.2389776E-024  0.8020737E+02  0.7818608E-02  0.1328464E+00
          2   -1    0    0  501    0  0.00000000000E+00  0.00000000000E+00  0.36345591439E+03  0.36345591440E+03  0.25500000000E-02 0. -1.
         -1   -1    0    0    0  501 -0.00000000000E+00 -0.00000000000E+00 -0.44250343118E+01  0.44250371820E+01  0.50400000000E-02 0.  1.
         24    2    1    2    0    0  0.00000000000E+00 -0.11102230246E-15  0.35903088008E+03  0.36788095158E+03  0.80207366784E+02 0.  0.
         66    2    3    3    0    0  0.35083958248E+02  0.45643435905E+00  0.26847094711E+03  0.27076141142E+03  0.20000028021E+01 0.  0.
        -13    1    3    3    0    0 -0.35083958248E+02 -0.45643435905E+00  0.90559932969E+02  0.97119540166E+02  0.10566000000E+00 0.  1.
         13    1    4    4    0    0  0.30401254844E+02  0.46633152896E+00  0.23447392868E+03  0.23643707018E+03  0.10566000000E+00 0. -1.
        -13    1    4    4    0    0  0.33127946271E+01 -0.16059533718E+00  0.25754567446E+02  0.25967466328E+02  0.10566000000E+00 0.  1.
         14    1    4    4    0    0  0.13699087766E+01  0.15069816728E+00  0.82424509860E+01  0.83568749094E+01  0.00000000000E+00 0. -1.
<mgrwt>
<rscale>  0 0.80207367E+02</rscale>
<asrwt>0</asrwt>
<pdfrwt beam="1">  1        2 0.55916303E-01 0.80207367E+02</pdfrwt>
<pdfrwt beam="2">  1       -1 0.68077463E-03 0.80207367E+02</pdfrwt>
<totfact> 0.27129644E+05</totfact>
</mgrwt>
</event>
<event>
 8    1  0.2389776E-024  0.8041250E+02  0.7818608E-02  0.1327885E+00
         -1   -1    0    0    0  501 -0.00000000000E+00  0.00000000000E+00  0.27343457625E+02  0.27343458089E+02  0.50400000000E-02 0.  1.
          2   -1    0    0  501    0  0.00000000000E+00 -0.00000000000E+00 -0.59119901396E+02  0.59119901451E+02  0.25500000000E-02 0. -1.
         24    2    1    2    0    0  0.00000000000E+00  0.00000000000E+00 -0.31776443771E+02  0.86463359540E+02  0.80412500050E+02 0.  0.
         66    2    3    3    0    0  0.27645007618E+01 -0.39457928604E+02 -0.82973840719E+01  0.40465011716E+02  0.19999991285E+01 0.  0.
        -13    1    3    3    0    0 -0.27645007618E+01  0.39457928604E+02 -0.23479059699E+02  0.45998347825E+02  0.10566000000E+00 0.  1.
         13    1    4    4    0    0  0.24191073512E+01 -0.26248144334E+02 -0.53128949030E+01  0.26889685339E+02  0.10566000000E+00 0. -1.
        -13    1    4    4    0    0 -0.54947363596E-01 -0.77221202130E+01 -0.13942279341E+01  0.78478783989E+01  0.10566000000E+00 0.  1.
        -14    1    4    4    0    0  0.40034077428E+00 -0.54876640574E+01 -0.15902612347E+01  0.57274479777E+01  0.00000000000E+00 0.  1.
<mgrwt>
<rscale>  0 0.80412500E+02</rscale>
<asrwt>0</asrwt>
<pdfrwt beam="1">  1        2 0.90953694E-02 0.80412500E+02</pdfrwt>
<pdfrwt beam="2">  1       -1 0.42066859E-02 0.80412500E+02</pdfrwt>
<totfact> 0.15297556E+05</totfact>
</mgrwt>
</event>
<event>
 8    1  0.2389776E-024  0.8550637E+02  0.7818608E-02  0.1314114E+00
         -1   -1    0    0    0  501 -0.00000000000E+00  0.00000000000E+00  0.35920132042E+01  0.35920167400E+01  0.50400000000E-02 0.  1.
          2   -1    0    0  501    0  0.00000000000E+00 -0.00000000000E+00 -0.50886059794E+03  0.50886059794E+03  0.25500000000E-02 0. -1.
         24    2    1    2    0    0  0.00000000000E+00  0.00000000000E+00 -0.50526858473E+03  0.51245261468E+03  0.85506371564E+02 0.  0.
         66    2    3    3    0    0 -0.66351634665E+01  0.25287086939E+02 -0.45533422251E+03  0.45608849618E+03  0.19999996927E+01 0.  0.
        -13    1    3    3    0    0  0.66351634665E+01 -0.25287086939E+02 -0.49934362226E+02  0.56364118507E+02  0.10566000000E+00 0.  1.
         13    1    4    4    0    0 -0.34487724606E+01  0.12473936959E+02 -0.23794400875E+03  0.23829573139E+03  0.10566000000E+00 0. -1.
        -13    1    4    4    0    0 -0.14423971744E+01  0.73620108035E+01 -0.11918040102E+03  0.11941632578E+03  0.10566000000E+00 0.  1.
         14    1    4    4    0    0 -0.17439938316E+01  0.54511391760E+01 -0.98209812741E+02  0.98376439005E+02  0.00000000000E+00 0. -1.
<mgrwt>
<rscale>  0 0.85506372E+02</rscale>
<asrwt>0</asrwt>
<pdfrwt beam="1">  1        2 0.78286189E-01 0.85506372E+02</pdfrwt>
<pdfrwt beam="2">  1       -1 0.55261809E-03 0.85506372E+02</pdfrwt>
<totfact> 0.25730589E+05</totfact>
</mgrwt>
</event>
<event>
 8    1  0.2389776E-024  0.7855846E+02  0.7818608E-02  0.1333193E+00
         -1   -1    0    0    0  501 -0.00000000000E+00  0.00000000000E+00  0.23241929044E+01  0.23241983690E+01  0.50400000000E-02 0.  1.
          2   -1    0    0  501    0  0.00000000000E+00 -0.00000000000E+00 -0.66382437101E+03  0.66382437101E+03  0.25500000000E-02 0. -1.
         24    2    1    2    0    0 -0.17763568394E-14 -0.35527136788E-14 -0.66150017810E+03  0.66614856938E+03  0.78558455041E+02 0.  0.
         66    2    3    3    0    0  0.11700677565E+02  0.30086108185E+02 -0.52034191573E+03  0.52134613169E+03  0.20000003020E+01 0.  0.
        -13    1    3    3    0    0 -0.11700677565E+02 -0.30086108185E+02 -0.14115826237E+03  0.14480243769E+03  0.10566000000E+00 0.  1.
         13    1    4    4    0    0  0.31883142649E+01  0.78549529576E+01 -0.13115140904E+03  0.13142514558E+03  0.10566000000E+00 0. -1.
        -13    1    4    4    0    0  0.26310350321E+01  0.86019779105E+01 -0.13992696297E+03  0.14021584254E+03  0.10566000000E+00 0.  1.
        -14    1    4    4    0    0  0.58813282676E+01  0.13629177317E+02 -0.24926354372E+03  0.24970514357E+03  0.00000000000E+00 0.  1.
<mgrwt>
<rscale>  0 0.78558455E+02</rscale>
<asrwt>0</asrwt>
<pdfrwt beam="1">  1        2 0.10212668E+00 0.78558455E+02</pdfrwt>
<pdfrwt beam="2">  1       -1 0.35756909E-03 0.78558455E+02</pdfrwt>
<totfact> 0.34629199E+05</totfact>
</mgrwt>
</event>
<event>
 8    1  0.2389776E-024  0.8068826E+02  0.7818608E-02  0.1327110E+00
          2   -1    0    0  501    0  0.00000000000E+00  0.00000000000E+00  0.19940524575E+02  0.19940524739E+02  0.25500000000E-02 0. -1.
         -1   -1    0    0    0  501 -0.00000000000E+00 -0.00000000000E+00 -0.81625176096E+02  0.81625176252E+02  0.50400000000E-02 0.  1.
         24    2    1    2    0    0  0.00000000000E+00  0.00000000000E+00 -0.61684651521E+02  0.10156570099E+03  0.80688260512E+02 0.  0.
         66    2    3    3    0    0  0.18362437817E+02  0.18243781364E+02  0.80505871377E+01  0.27181365571E+02  0.19999999941E+01 0.  0.
        -13    1    3    3    0    0 -0.18362437817E+02 -0.18243781364E+02 -0.69735238659E+02  0.74384335420E+02  0.10566000000E+00 0.  1.
         13    1    4    4    0    0  0.11380524168E+02  0.11241606239E+02  0.46544198282E+01  0.16660276983E+02  0.10566000000E+00 0. -1.
        -13    1    4    4    0    0  0.27000928153E+01  0.34029093074E+01  0.18075935967E+01  0.47062566454E+01  0.10566000000E+00 0.  1.
        -14    1    4    4    0    0  0.42818208332E+01  0.35992658183E+01  0.15885737129E+01  0.58148319425E+01  0.00000000000E+00 0.  1.
<mgrwt>
<rscale>  0 0.80688261E+02</rscale>
<asrwt>0</asrwt>
<pdfrwt beam="1">  1        2 0.30677731E-02 0.80688261E+02</pdfrwt>
<pdfrwt beam="2">  1       -1 0.12557719E-01 0.80688261E+02</pdfrwt>
<totfact> 0.12106347E+05</totfact>
</mgrwt>
</event>
<event>
 8    1  0.2389776E-024  0.7997986E+02  0.7818608E-02  0.1329109E+00
         -1   -1    0    0    0  501 -0.00000000000E+00  0.00000000000E+00  0.80949804817E+02  0.80949804974E+02  0.50400000000E-02 0.  1.
          2   -1    0    0  501    0  0.00000000000E+00 -0.00000000000E+00 -0.19755383139E+02  0.19755383303E+02  0.25500000000E-02 0. -1.
         24    2    1    2    0    0  0.00000000000E+00  0.00000000000E+00  0.61194421678E+02  0.10070518828E+03  0.79979858098E+02 0.  0.
         66    2    3    3    0    0 -0.28937194617E+02 -0.86309238074E+01 -0.23464109787E+01  0.30353907857E+02  0.19999999023E+01 0.  0.
        -13    1    3    3    0    0  0.28937194617E+02  0.86309238074E+01  0.63540832657E+02  0.70351280421E+02  0.10566000000E+00 0.  1.
         13    1    4    4    0    0 -0.16282674734E+02 -0.52026490127E+01 -0.67555463898E+00  0.17107325663E+02  0.10566000000E+00 0. -1.
        -13    1    4    4    0    0 -0.11565474384E+02 -0.29348373414E+01 -0.13497726605E+01  0.12008601843E+02  0.10566000000E+00 0.  1.
         14    1    4    4    0    0 -0.10890454990E+01 -0.49343745320E+00 -0.32108367919E+00  0.12379803505E+01  0.00000000000E+00 0. -1.
<mgrwt>
<rscale>  0 0.79979858E+02</rscale>
<asrwt>0</asrwt>
<pdfrwt beam="1">  1        2 0.30392897E-02 0.79979858E+02</pdfrwt>
<pdfrwt beam="2">  1       -1 0.12453816E-01 0.79979858E+02</pdfrwt>
<totfact> 0.12393785E+05</totfact>
</mgrwt>
</event>
<event>
 8    1  0.2389776E-024  0.7154618E+02  0.7818608E-02  0.1354913E+00
          2   -1    0    0  501    0  0.00000000000E+00  0.00000000000E+00  0.37998028613E+01  0.37998037170E+01  0.25500000000E-02 0. -1.
         -1   -1    0    0    0  501 -0.00000000000E+00 -0.00000000000E+00 -0.33678425478E+03  0.33678425482E+03  0.50400000000E-02 0.  1.
         24    2    1    2    0    0  0.00000000000E+00  0.00000000000E+00 -0.33298445192E+03  0.34058405853E+03  0.71546178852E+02 0.  0.
         66    2    3    3    0    0  0.84006050353E+01 -0.33742085843E+02 -0.12719135554E+03  0.13187395288E+03  0.20000004079E+01 0.  0.
        -13    1    3    3    0    0 -0.84006050353E+01  0.33742085843E+02 -0.20579309638E+03  0.20871010565E+03  0.10566000000E+00 0.  1.
         13    1    4    4    0    0  0.35329015840E+01 -0.14026503041E+02 -0.50959702778E+02  0.52972886011E+02  0.10566000000E+00 0. -1.
        -13    1    4    4    0    0  0.30940442323E+01 -0.98935534634E+01 -0.38248236968E+02  0.39628200880E+02  0.10566000000E+00 0.  1.
        -14    1    4    4    0    0  0.17736592190E+01 -0.98220293386E+01 -0.37983415796E+02  0.39272865988E+02  0.00000000000E+00 0.  1.
<mgrwt>
<rscale>  0 0.71546179E+02</rscale>
<asrwt>0</asrwt>
<pdfrwt beam="1">  1        2 0.58458538E-03 0.71546179E+02</pdfrwt>
<pdfrwt beam="2">  1       -1 0.51812939E-01 0.71546179E+02</pdfrwt>
<totfact> 0.10950085E+05</totfact>
</mgrwt>
</event>
<event>
 8    1  0.2389776E-024  0.8226614E+02  0.7818608E-02  0.1322741E+00
          2   -1    0    0  501    0  0.00000000000E+00  0.00000000000E+00  0.22898160948E+03  0.22898160950E+03  0.25500000000E-02 0. -1.
         -1   -1    0    0    0  501 -0.00000000000E+00 -0.00000000000E+00 -0.73889305802E+01  0.73889322991E+01  0.50400000000E-02 0.  1.
         24    2    1    2    0    0  0.00000000000E+00 -0.71054273576E-14  0.22159267890E+03  0.23637054179E+03  0.82266139363E+02 0.  0.
         66    2    3    3    0    0  0.81233868673E+01  0.34368017572E+02  0.17132099218E+03  0.17493436600E+03  0.20000003709E+01 0.  0.
        -13    1    3    3    0    0 -0.81233868673E+01 -0.34368017572E+02  0.50271686722E+02  0.61436175792E+02  0.10566000000E+00 0.  1.
         13    1    4    4    0    0  0.53447930012E+01  0.24317696545E+02  0.11710106480E+03  0.11971878598E+03  0.10566000000E+00 0. -1.
        -13    1    4    4    0    0  0.20869074296E+01  0.79126562598E+01  0.43389004536E+02  0.44154073316E+02  0.10566000000E+00 0.  1.
         14    1    4    4    0    0  0.69168643648E+00  0.21376647670E+01  0.10830922847E+02  0.11061506701E+02  0.00000000000E+00 0. -1.
<mgrwt>
<rscale>  0 0.82266139E+02</rscale>
<asrwt>0</asrwt>
<pdfrwt beam="1">  1        2 0.35227935E-01 0.82266139E+02</pdfrwt>
<pdfrwt beam="2">  1       -1 0.11367588E-02 0.82266139E+02</pdfrwt>
<totfact> 0.21490141E+05</totfact>
</mgrwt>
</event>
<event>
 8    1  0.2389776E-024  0.7862767E+02  0.7818608E-02  0.1332992E+00
         -1   -1    0    0    0  501 -0.00000000000E+00  0.00000000000E+00  0.18934845647E+02  0.18934846318E+02  0.50400000000E-02 0.  1.
          2   -1    0    0  501    0  0.00000000000E+00 -0.00000000000E+00 -0.81626090051E+02  0.81626090090E+02  0.25500000000E-02 0. -1.
         24    2    1    2    0    0  0.00000000000E+00  0.00000000000E+00 -0.62691244404E+02  0.10056093641E+03  0.78627665655E+02 0.  0.
         66    2    3    3    0    0 -0.10716814897E+02 -0.35044572134E+02 -0.49480072169E+02  0.61605597962E+02  0.20000002250E+01 0.  0.
        -13    1    3    3    0    0  0.10716814897E+02  0.35044572134E+02 -0.13211172235E+02  0.38955338446E+02  0.10566000000E+00 0.  1.
         13    1    4    4    0    0 -0.23953185573E+01 -0.69636082296E+01 -0.99928881700E+01  0.12413636396E+02  0.10566000000E+00 0. -1.
        -13    1    4    4    0    0 -0.55821135912E+01 -0.15939005756E+02 -0.22592476689E+02  0.28207145613E+02  0.10566000000E+00 0.  1.
        -14    1    4    4    0    0 -0.27393827482E+01 -0.12141958148E+02 -0.16894707310E+02  0.20984815954E+02  0.00000000000E+00 0.  1.
<mgrwt>
<rscale>  0 0.78627666E+02</rscale>
<asrwt>0</asrwt>
<pdfrwt beam="1">  1        2 0.12557860E-01 0.78627666E+02</pdfrwt>
<pdfrwt beam="2">  1       -1 0.29130533E-02 0.78627666E+02</pdfrwt>
<totfact> 0.17582533E+05</totfact>
</mgrwt>
</event>
<event>
 8    1  0.2389776E-024  0.8033492E+02  0.7818608E-02  0.1328104E+00
         -1   -1    0    0    0  501 -0.00000000000E+00  0.00000000000E+00  0.72090967514E+01  0.72090985132E+01  0.50400000000E-02 0.  1.
          2   -1    0    0  501    0  0.00000000000E+00 -0.00000000000E+00 -0.22380400788E+03  0.22380400790E+03  0.25500000000E-02 0. -1.
         24    2    1    2    0    0  0.00000000000E+00  0.00000000000E+00 -0.21659491113E+03  0.23101310641E+03  0.80334922701E+02 0.  0.
         66    2    3    3    0    0 -0.10718531052E+02 -0.28978681998E+02 -0.18205948624E+03  0.18467351583E+03  0.20000006602E+01 0.  0.
        -13    1    3    3    0    0  0.10718531052E+02  0.28978681998E+02 -0.34535424891E+02  0.46339590576E+02  0.10566000000E+00 0.  1.
         13    1    4    4    0    0 -0.75692980248E+01 -0.19760768198E+02 -0.12462602197E+03  0.12640980479E+03  0.10566000000E+00 0. -1.
        -13    1    4    4    0    0 -0.18287692075E+01 -0.39616279823E+01 -0.23944339505E+02  0.24338887638E+02  0.10566000000E+00 0.  1.
        -14    1    4    4    0    0 -0.13204638198E+01 -0.52562858170E+01 -0.33489124769E+02  0.33924823406E+02  0.00000000000E+00 0.  1.
<mgrwt>
<rscale>  0 0.80334923E+02</rscale>
<asrwt>0</asrwt>
<pdfrwt beam="1">  1        2 0.34431381E-01 0.80334923E+02</pdfrwt>
<pdfrwt beam="2">  1       -1 0.11090921E-02 0.80334923E+02</pdfrwt>
<totfact> 0.22694641E+05</totfact>
</mgrwt>
</event>
<event>
 8    1  0.2389776E-024  0.8009156E+02  0.7818608E-02  0.1328792E+00
          2   -1    0    0  501    0  0.00000000000E+00  0.00000000000E+00  0.22022189823E+03  0.22022189824E+03  0.25500000000E-02 0. -1.
         -1   -1    0    0    0  501 -0.00000000000E+00 -0.00000000000E+00 -0.72820380236E+01  0.72820397678E+01  0.50400000000E-02 0.  1.
         24    2    1    2    0    0  0.00000000000E+00 -0.71054273576E-14  0.21293986020E+03  0.22750393801E+03  0.80091558521E+02 0.  0.
         66    2    3    3    0    0 -0.13798717279E+01 -0.34511234982E+02  0.16396371138E+03  0.16757394799E+03  0.20000024774E+01 0.  0.
        -13    1    3    3    0    0  0.13798717279E+01  0.34511234982E+02  0.48976148823E+02  0.59929990018E+02  0.10566000000E+00 0.  1.
         13    1    4    4    0    0 -0.38882285689E+00 -0.15072158573E+02  0.71316148176E+02  0.72892559991E+02  0.10566000000E+00 0. -1.
        -13    1    4    4    0    0 -0.10951592921E+00 -0.22533074848E+01  0.87127434164E+01  0.90006916531E+01  0.10566000000E+00 0.  1.
        -14    1    4    4    0    0 -0.88153294179E+00 -0.17185768925E+02  0.83934819787E+02  0.85680696347E+02  0.00000000000E+00 0.  1.
<mgrwt>
<rscale>  0 0.80091559E+02</rscale>
<asrwt>0</asrwt>
<pdfrwt beam="1">  1        2 0.33880293E-01 0.80091559E+02</pdfrwt>
<pdfrwt beam="2">  1       -1 0.11203137E-02 0.80091559E+02</pdfrwt>
<totfact> 0.22746687E+05</totfact>
</mgrwt>
</event>
<event>
 8    1  0.2389776E-024  0.8041599E+02  0.7818608E-02  0.1327875E+00
          2   -1    0    0  501    0  0.00000000000E+00  0.00000000000E+00  0.14544385754E+02  0.14544385978E+02  0.25500000000E-02 0. -1.
         -1   -1    0    0    0  501 -0.00000000000E+00 -0.00000000000E+00 -0.11115511426E+03  0.11115511438E+03  0.50400000000E-02 0.  1.
         24    2    1    2    0    0  0.00000000000E+00  0.35527136788E-14 -0.96610728509E+02  0.12569950036E+03  0.80415990491E+02 0.  0.
         66    2    3    3    0    0  0.26354061060E+02 -0.26717692353E+02 -0.70786764225E+02  0.80144479618E+02  0.20000012071E+01 0.  0.
        -13    1    3    3    0    0 -0.26354061060E+02  0.26717692353E+02 -0.25823964284E+02  0.45555020737E+02  0.10566000000E+00 0.  1.
         13    1    4    4    0    0  0.41944036393E+01 -0.38463962404E+01 -0.10227430265E+02  0.11704669145E+02  0.10566000000E+00 0. -1.
        -13    1    4    4    0    0  0.17755947996E+02 -0.19138704148E+02 -0.50006345308E+02  0.56411075338E+02  0.10566000000E+00 0.  1.
        -14    1    4    4    0    0  0.44037094242E+01 -0.37325919645E+01 -0.10552988652E+02  0.12028735135E+02  0.00000000000E+00 0.  1.
<mgrwt>
<rscale>  0 0.80415990E+02</rscale>
<asrwt>0</asrwt>
<pdfrwt beam="1">  1        2 0.22375979E-02 0.80415990E+02</pdfrwt>
<pdfrwt beam="2">  1       -1 0.17100786E-01 0.80415990E+02</pdfrwt>
<totfact> 0.11433347E+05</totfact>
</mgrwt>
</event>
<event>
 8    1  0.2389776E-024  0.7946633E+02  0.7818608E-02  0.1330573E+00
         -1   -1    0    0    0  501 -0.00000000000E+00  0.00000000000E+00  0.21593793793E+02  0.21593794381E+02  0.50400000000E-02 0.  1.
          2   -1    0    0  501    0  0.00000000000E+00 -0.00000000000E+00 -0.73110089890E+02  0.73110089935E+02  0.25500000000E-02 0. -1.
         24    2    1    2    0    0  0.00000000000E+00  0.00000000000E+00 -0.51516296097E+02  0.94703884316E+02  0.79466325830E+02 0.  0.
         66    2    3    3    0    0  0.20464086452E+02 -0.30859652291E+02 -0.42863541372E+02  0.56677862933E+02  0.19999984586E+01 0.  0.
        -13    1    3    3    0    0 -0.20464086452E+02  0.30859652291E+02 -0.86527547253E+01  0.38026021383E+02  0.10566000000E+00 0.  1.
         13    1    4    4    0    0  0.10639409547E+02 -0.16417456582E+02 -0.21859675642E+02  0.29335754623E+02  0.10566000000E+00 0. -1.
        -13    1    4    4    0    0  0.70240460228E+01 -0.10164791412E+02 -0.15640318111E+02  0.19932157977E+02  0.10566000000E+00 0.  1.
        -14    1    4    4    0    0  0.28006308824E+01 -0.42774042978E+01 -0.53635476189E+01  0.74099503323E+01  0.00000000000E+00 0.  1.
<mgrwt>
<rscale>  0 0.79466326E+02</rscale>
<asrwt>0</asrwt>
<pdfrwt beam="1">  1        2 0.11247706E-01 0.79466326E+02</pdfrwt>
<pdfrwt beam="2">  1       -1 0.33221222E-02 0.79466326E+02</pdfrwt>
<totfact> 0.16618095E+05</totfact>
</mgrwt>
</event>
<event>
 8    1  0.2389776E-024  0.7759281E+02  0.7818608E-02  0.1336025E+00
         -1   -1    0    0    0  501 -0.00000000000E+00  0.00000000000E+00  0.15045203060E+02  0.15045203904E+02  0.50400000000E-02 0.  1.
          2   -1    0    0  501    0  0.00000000000E+00 -0.00000000000E+00 -0.10004259015E+03  0.10004259018E+03  0.25500000000E-02 0. -1.
         24    2    1    2    0    0  0.00000000000E+00  0.00000000000E+00 -0.84997387086E+02  0.11508779408E+03  0.77592812394E+02 0.  0.
         66    2    3    3    0    0  0.17272592286E+02 -0.15207045952E+02 -0.88806389346E+02  0.91761492337E+02  0.19999990616E+01 0.  0.
        -13    1    3    3    0    0 -0.17272592286E+02  0.15207045952E+02  0.38090022605E+01  0.23326301746E+02  0.10566000000E+00 0.  1.
         13    1    4    4    0    0  0.14896835241E+01 -0.19846418074E+01 -0.84389758803E+01  0.87968993430E+01  0.10566000000E+00 0. -1.
        -13    1    4    4    0    0  0.35787740219E+01 -0.27750322210E+01 -0.17309988993E+02  0.17892884348E+02  0.10566000000E+00 0. -1.
         14    1    4    4    0    0  0.12204134740E+02 -0.10447371924E+02 -0.63057424473E+02  0.65071708646E+02  0.00000000000E+00 0. -1.
<mgrwt>
<rscale>  0 0.77592812E+02</rscale>
<asrwt>0</asrwt>
<pdfrwt beam="1">  1        2 0.15391167E-01 0.77592812E+02</pdfrwt>
<pdfrwt beam="2">  1       -1 0.23146468E-02 0.77592812E+02</pdfrwt>
<totfact> 0.19237074E+05</totfact>
</mgrwt>
</event>
<event>
 8    1  0.2389776E-024  0.7941511E+02  0.7818608E-02  0.1330720E+00
          2   -1    0    0  501    0  0.00000000000E+00  0.00000000000E+00  0.59160443137E+03  0.59160443138E+03  0.25500000000E-02 0. -1.
         -1   -1    0    0    0  501 -0.00000000000E+00 -0.00000000000E+00 -0.26651058640E+01  0.26651106296E+01  0.50400000000E-02 0.  1.
         24    2    1    2    0    0  0.71054273576E-14  0.00000000000E+00  0.58893932551E+03  0.59426954201E+03  0.79415108308E+02 0.  0.
         66    2    3    3    0    0  0.38487288530E+02  0.44768244097E+01  0.35875386986E+03  0.36084574611E+03  0.20000027210E+01 0.  0.
        -13    1    3    3    0    0 -0.38487288530E+02 -0.44768244097E+01  0.23018545565E+03  0.23342379590E+03  0.10566000000E+00 0.  1.
         13    1    4    4    0    0  0.74263479492E+01  0.53433411287E+00  0.67406833674E+02  0.67816875089E+02  0.10566000000E+00 0. -1.
        -13    1    4    4    0    0  0.25962648988E+01 -0.92628488061E-01  0.24707649922E+02  0.24844079781E+02  0.10566000000E+00 0.  1.
         14    1    4    4    0    0  0.28464675682E+02  0.40351187849E+01  0.26663938626E+03  0.26818479124E+03  0.00000000000E+00 0. -1.
<mgrwt>
<rscale>  0 0.79415108E+02</rscale>
<asrwt>0</asrwt>
<pdfrwt beam="1">  1        2 0.91016128E-01 0.79415108E+02</pdfrwt>
<pdfrwt beam="2">  1       -1 0.41001638E-03 0.79415108E+02</pdfrwt>
<totfact> 0.32654222E+05</totfact>
</mgrwt>
</event>
<event>
 8    1  0.2389776E-024  0.8073982E+02  0.7818608E-02  0.1326965E+00
          2   -1    0    0  501    0  0.00000000000E+00  0.00000000000E+00  0.11565023746E+03  0.11565023749E+03  0.25500000000E-02 0. -1.
         -1   -1    0    0    0  501 -0.00000000000E+00 -0.00000000000E+00 -0.14091882476E+02  0.14091883378E+02  0.50400000000E-02 0.  1.
         24    2    1    2    0    0  0.00000000000E+00 -0.35527136788E-14  0.10155835498E+03  0.12974212086E+03  0.80739819542E+02 0.  0.
         66    2    3    3    0    0  0.16952554334E+02  0.26383937491E+02  0.91596281157E+02  0.96836873032E+02  0.20000001856E+01 0.  0.
        -13    1    3    3    0    0 -0.16952554334E+02 -0.26383937491E+02  0.99620738245E+01  0.32905247832E+02  0.10566000000E+00 0.  1.
         13    1    4    4    0    0  0.15893956599E+01  0.20749448373E+01  0.79819280591E+01  0.83996377432E+01  0.10566000000E+00 0.  1.
        -13    1    4    4    0    0  0.65768732978E+01  0.10420919452E+02  0.38395482558E+02  0.40324621133E+02  0.10566000000E+00 0.  1.
         14    1    4    4    0    0  0.87862853759E+01  0.13888073202E+02  0.45218870540E+02  0.48112614156E+02  0.00000000000E+00 0. -1.
<mgrwt>
<rscale>  0 0.80739820E+02</rscale>
<asrwt>0</asrwt>
<pdfrwt beam="1">  1        2 0.17792345E-01 0.80739820E+02</pdfrwt>
<pdfrwt beam="2">  1       -1 0.21679819E-02 0.80739820E+02</pdfrwt>
<totfact> 0.18033827E+05</totfact>
</mgrwt>
</event>
<event>
 8    1  0.2389776E-024  0.8002154E+02  0.7818608E-02  0.1328990E+00
         -1   -1    0    0    0  501 -0.00000000000E+00  0.00000000000E+00  0.11192303417E+02  0.11192304552E+02  0.50400000000E-02 0.  1.
          2   -1    0    0  501    0  0.00000000000E+00 -0.00000000000E+00 -0.14303234881E+03  0.14303234883E+03  0.25500000000E-02 0. -1.
         24    2    1    2    0    0  0.17763568394E-14  0.00000000000E+00 -0.13184004539E+03  0.15422465338E+03  0.80021535489E+02 0.  0.
         66    2    3    3    0    0 -0.95220274878E+01 -0.17100799982E+02 -0.13316105859E+03  0.13460673791E+03  0.19999992886E+01 0.  0.
        -13    1    3    3    0    0  0.95220274878E+01  0.17100799982E+02  0.13210132054E+01  0.19617915471E+02  0.10566000000E+00 0.  1.
         13    1    4    4    0    0 -0.22060331874E+01 -0.38848525522E+01 -0.27411263322E+02  0.27773137790E+02  0.10566000000E+00 0. -1.
        -13    1    4    4    0    0 -0.11806930109E+01 -0.14460503917E+01 -0.10817793250E+02  0.10978201699E+02  0.10566000000E+00 0.  1.
         14    1    4    4    0    0 -0.61353012895E+01 -0.11769897038E+02 -0.94932002023E+02  0.95855398420E+02  0.00000000000E+00 0. -1.
<mgrwt>
<rscale>  0 0.80021535E+02</rscale>
<asrwt>0</asrwt>
<pdfrwt beam="1">  1        2 0.22004975E-01 0.80021535E+02</pdfrwt>
<pdfrwt beam="2">  1       -1 0.17218930E-02 0.80021535E+02</pdfrwt>
<totfact> 0.19713413E+05</totfact>
</mgrwt>
</event>
<event>
 8    1  0.2389776E-024  0.8356982E+02  0.7818608E-02  0.1319216E+00
         -1   -1    0    0    0  501 -0.00000000000E+00  0.00000000000E+00  0.38485148013E+02  0.38485148343E+02  0.50400000000E-02 0.  1.
          2   -1    0    0  501    0  0.00000000000E+00 -0.00000000000E+00 -0.45367598197E+02  0.45367598269E+02  0.25500000000E-02 0. -1.
         24    2    1    2    0    0  0.00000000000E+00 -0.17763568394E-14 -0.68824501846E+01  0.83852746612E+02  0.83569821070E+02 0.  0.
         66    2    3    3    0    0 -0.72482583464E+01 -0.15403384807E+02 -0.41705902045E+02  0.45090839072E+02  0.19999975685E+01 0.  0.
        -13    1    3    3    0    0  0.72482583464E+01  0.15403384807E+02  0.34823451860E+02  0.38761907539E+02  0.10566000000E+00 0.  1.
         13    1    4    4    0    0 -0.24348861327E+01 -0.61085563504E+01 -0.17187553022E+02  0.18402887656E+02  0.10566000000E+00 0. -1.
        -13    1    4    4    0    0 -0.47582220190E+01 -0.85168198722E+01 -0.22506106390E+02  0.24529836657E+02  0.10566000000E+00 0.  1.
        -14    1    4    4    0    0 -0.55150194734E-01 -0.77800858482E+00 -0.20122426330E+01  0.21581147597E+01  0.00000000000E+00 0.  1.
<mgrwt>
<rscale>  0 0.83569821E+02</rscale>
<asrwt>0</asrwt>
<pdfrwt beam="1">  1        2 0.69796305E-02 0.83569821E+02</pdfrwt>
<pdfrwt beam="2">  1       -1 0.59207921E-02 0.83569821E+02</pdfrwt>
<totfact> 0.12973942E+05</totfact>
</mgrwt>
</event>
<event>
 8    1  0.2389776E-024  0.8503679E+02  0.7818608E-02  0.1315336E+00
          2   -1    0    0  501    0  0.00000000000E+00  0.00000000000E+00  0.93043949247E+02  0.93043949282E+02  0.25500000000E-02 0. -1.
         -1   -1    0    0    0  501 -0.00000000000E+00 -0.00000000000E+00 -0.19429678254E+02  0.19429678908E+02  0.50400000000E-02 0.  1.
         24    2    1    2    0    0  0.35527136788E-14 -0.71054273576E-14  0.73614270993E+02  0.11247362819E+03  0.85036792886E+02 0.  0.
         66    2    3    3    0    0  0.14765021550E+02 -0.38449679426E+02  0.50663188387E+02  0.65323367680E+02  0.19999995674E+01 0.  0.
        -13    1    3    3    0    0 -0.14765021550E+02  0.38449679426E+02  0.22951082607E+02  0.47150260510E+02  0.10566000000E+00 0.  1.
         13    1    4    4    0    0  0.10668152901E+01 -0.16630805511E+01  0.23639396980E+01  0.30827433747E+01  0.10566000000E+00 0. -1.
        -13    1    4    4    0    0  0.15439619713E+01 -0.39300628715E+01  0.51273986004E+01  0.66430861191E+01  0.10566000000E+00 0. -1.
         14    1    4    4    0    0  0.12154244289E+02 -0.32856536003E+02  0.43171850088E+02  0.55597538186E+02  0.00000000000E+00 0. -1.
<mgrwt>
<rscale>  0 0.85036793E+02</rscale>
<asrwt>0</asrwt>
<pdfrwt beam="1">  1        2 0.14314454E-01 0.85036793E+02</pdfrwt>
<pdfrwt beam="2">  1       -1 0.29891813E-02 0.85036793E+02</pdfrwt>
<totfact> 0.14740910E+05</totfact>
</mgrwt>
</event>
<event>
 8    1  0.2389776E-024  0.7827602E+02  0.7818608E-02  0.1334016E+00
         -1   -1    0    0    0  501 -0.00000000000E+00  0.00000000000E+00  0.48411066474E+02  0.48411066736E+02  0.50400000000E-02 0.  1.
          2   -1    0    0  501    0  0.00000000000E+00 -0.00000000000E+00 -0.31641191809E+02  0.31641191912E+02  0.25500000000E-02 0. -1.
         24    2    1    2    0    0  0.17763568394E-14  0.35527136788E-14  0.16769874665E+02  0.80052258648E+02  0.78276020711E+02 0.  0.
         66    2    3    3    0    0 -0.13299520155E+02 -0.23161278821E+02 -0.20831707071E+02  0.33930548077E+02  0.20000000812E+01 0.  0.
        -13    1    3    3    0    0  0.13299520155E+02  0.23161278821E+02  0.37601581736E+02  0.46121710571E+02  0.10566000000E+00 0.  1.
         13    1    4    4    0    0 -0.99181746383E+00 -0.23742483514E+01 -0.16112025792E+01  0.30377450358E+01  0.10566000000E+00 0. -1.
        -13    1    4    4    0    0 -0.99340304818E+01 -0.16696605366E+02 -0.16029936112E+02  0.25187925841E+02  0.10566000000E+00 0.  1.
        -14    1    4    4    0    0 -0.23736722094E+01 -0.40904251030E+01 -0.31905683792E+01  0.57048771997E+01  0.00000000000E+00 0.  1.
<mgrwt>
<rscale>  0 0.78276021E+02</rscale>
<asrwt>0</asrwt>
<pdfrwt beam="1">  1        2 0.48678756E-02 0.78276021E+02</pdfrwt>
<pdfrwt beam="2">  1       -1 0.74478565E-02 0.78276021E+02</pdfrwt>
<totfact> 0.14449887E+05</totfact>
</mgrwt>
</event>
<event>
 8    1  0.2389776E-024  0.7593734E+02  0.7818608E-02  0.1340993E+00
         -1   -1    0    0    0  501 -0.00000000000E+00  0.00000000000E+00  0.64160586565E+01  0.64160606360E+01  0.50400000000E-02 0.  1.
          2   -1    0    0  501    0  0.00000000000E+00 -0.00000000000E+00 -0.22468927726E+03  0.22468927728E+03  0.25500000000E-02 0. -1.
         24    2    1    2    0    0  0.00000000000E+00  0.71054273576E-14 -0.21827321861E+03  0.23110533791E+03  0.75937337663E+02 0.  0.
         66    2    3    3    0    0 -0.93883283466E-01  0.36328864719E+02 -0.75898722470E+02  0.84168945076E+02  0.20000042187E+01 0.  0.
        -13    1    3    3    0    0  0.93883283466E-01 -0.36328864719E+02 -0.14237449614E+03  0.14693639284E+03  0.10566000000E+00 0.  1.
         13    1    4    4    0    0  0.19331847824E+00  0.93724674641E+00 -0.22556407485E+01  0.24525257837E+01  0.10566000000E+00 0. -1.
        -13    1    4    4    0    0 -0.45731961862E+00  0.53895749262E+01 -0.10861646407E+02  0.12134380323E+02  0.10566000000E+00 0.  1.
         14    1    4    4    0    0  0.17011785691E+00  0.30002043046E+02 -0.62781435315E+02  0.69582038970E+02  0.00000000000E+00 0. -1.
<mgrwt>
<rscale>  0 0.75937338E+02</rscale>
<asrwt>0</asrwt>
<pdfrwt beam="1">  1        2 0.34567575E-01 0.75937338E+02</pdfrwt>
<pdfrwt beam="2">  1       -1 0.98708628E-03 0.75937338E+02</pdfrwt>
<totfact> 0.26348654E+05</totfact>
</mgrwt>
</event>
<event>
 8    1  0.2389776E-024  0.8000672E+02  0.7818608E-02  0.1329032E+00
         -1   -1    0    0    0  501 -0.00000000000E+00  0.00000000000E+00  0.12920552062E+02  0.12920553045E+02  0.50400000000E-02 0.  1.
          2   -1    0    0  501    0  0.00000000000E+00 -0.00000000000E+00 -0.12385451193E+03  0.12385451196E+03  0.25500000000E-02 0. -1.
         24    2    1    2    0    0  0.00000000000E+00  0.00000000000E+00 -0.11093395987E+03  0.13677506500E+03  0.80006718180E+02 0.  0.
         66    2    3    3    0    0  0.10863376863E+02 -0.28872090087E+02 -0.98974203046E+02  0.10368945650E+03  0.19999942438E+01 0.  0.
        -13    1    3    3    0    0 -0.10863376863E+02  0.28872090087E+02 -0.11959756822E+02  0.33085608505E+02  0.10566000000E+00 0.  1.
         13    1    4    4    0    0  0.84685569347E+01 -0.20169682368E+02 -0.69976281251E+02  0.73315916725E+02  0.10566000000E+00 0. -1.
        -13    1    4    4    0    0  0.17121313339E+01 -0.61007933911E+01 -0.19683954500E+02  0.20678982144E+02  0.10566000000E+00 0.  1.
         14    1    4    4    0    0  0.68268859462E+00 -0.26016143274E+01 -0.93139672941E+01  0.96945576269E+01  0.00000000000E+00 0. -1.
<mgrwt>
<rscale>  0 0.80006718E+02</rscale>
<asrwt>0</asrwt>
<pdfrwt beam="1">  1        2 0.19054540E-01 0.80006718E+02</pdfrwt>
<pdfrwt beam="2">  1       -1 0.19877774E-02 0.80006718E+02</pdfrwt>
<totfact> 0.18861080E+05</totfact>
</mgrwt>
</event>
<event>
 8    1  0.2389776E-024  0.7636385E+02  0.7818608E-02  0.1339699E+00
          2   -1    0    0  501    0  0.00000000000E+00  0.00000000000E+00  0.66391137842E+02  0.66391137891E+02  0.25500000000E-02 0. -1.
         -1   -1    0    0    0  501 -0.00000000000E+00 -0.00000000000E+00 -0.21958644041E+02  0.21958644620E+02  0.50400000000E-02 0.  1.
         24    2    1    2    0    0  0.71054273576E-14  0.00000000000E+00  0.44432493801E+02  0.88349782511E+02  0.76363849853E+02 0.  0.
         66    2    3    3    0    0  0.38084077808E+02 -0.22685900763E+01  0.22876654381E+02  0.44529594692E+02  0.20000010865E+01 0.  0.
        -13    1    3    3    0    0 -0.38084077808E+02  0.22685900763E+01  0.21555839420E+02  0.43820187819E+02  0.10566000000E+00 0.  1.
         13    1    4    4    0    0  0.16502306991E+02 -0.11982279813E+01  0.10393385194E+02  0.19539588178E+02  0.10566000000E+00 0. -1.
        -13    1    4    4    0    0  0.13558842657E+02 -0.12128660707E+01  0.82399042186E+01  0.15912901805E+02  0.10566000000E+00 0.  1.
         14    1    4    4    0    0  0.80229281599E+01  0.14250397565E+00  0.42433649682E+01  0.90771047089E+01  0.00000000000E+00 0. -1.
<mgrwt>
<rscale>  0 0.76363850E+02</rscale>
<asrwt>0</asrwt>
<pdfrwt beam="1">  1        2 0.10214021E-01 0.76363850E+02</pdfrwt>
<pdfrwt beam="2">  1       -1 0.33782529E-02 0.76363850E+02</pdfrwt>
<totfact> 0.18077179E+05</totfact>
</mgrwt>
</event>
<event>
 8    1  0.2389776E-024  0.8018084E+02  0.7818608E-02  0.1328539E+00
         -1   -1    0    0    0  501 -0.00000000000E+00  0.00000000000E+00  0.45935944456E+01  0.45935972105E+01  0.50400000000E-02 0.  1.
          2   -1    0    0  501    0  0.00000000000E+00 -0.00000000000E+00 -0.34988751922E+03  0.34988751923E+03  0.25500000000E-02 0. -1.
         24    2    1    2    0    0  0.00000000000E+00  0.00000000000E+00 -0.34529392478E+03  0.35448111644E+03  0.80180842016E+02 0.  0.
         66    2    3    3    0    0  0.21982351134E+02 -0.29009406251E+02 -0.24679362689E+03  0.24947116805E+03  0.20000012475E+01 0.  0.
        -13    1    3    3    0    0 -0.21982351134E+02  0.29009406251E+02 -0.98500297893E+02  0.10500994839E+03  0.10566000000E+00 0.  1.
         13    1    4    4    0    0  0.18800945918E+02 -0.24025116769E+02 -0.20325214465E+03  0.20552889644E+03  0.10566000000E+00 0. -1.
        -13    1    4    4    0    0  0.73325358253E+00 -0.12208020345E+01 -0.11183813448E+02  0.11274611554E+02  0.10566000000E+00 0.  1.
         14    1    4    4    0    0  0.24481516332E+01 -0.37634874479E+01 -0.32357668792E+02  0.32667660060E+02  0.00000000000E+00 0. -1.
<mgrwt>
<rscale>  0 0.80180842E+02</rscale>
<asrwt>0</asrwt>
<pdfrwt beam="1">  1        2 0.53828828E-01 0.80180842E+02</pdfrwt>
<pdfrwt beam="2">  1       -1 0.70670733E-03 0.80180842E+02</pdfrwt>
<totfact> 0.26787743E+05</totfact>
</mgrwt>
</event>
<event>
 8    1  0.2389776E-024  0.8038110E+02  0.7818608E-02  0.1327973E+00
         -1   -1    0    0    0  501 -0.00000000000E+00  0.00000000000E+00  0.27935005099E+02  0.27935005553E+02  0.50400000000E-02 0.  1.
          2   -1    0    0  501    0  0.00000000000E+00 -0.00000000000E+00 -0.57822800040E+02  0.57822800096E+02  0.25500000000E-02 0. -1.
         24    2    1    2    0    0  0.35527136788E-14  0.00000000000E+00 -0.29887794942E+02  0.85757805650E+02  0.80381098172E+02 0.  0.
         66    2    3    3    0    0  0.16711998979E+02  0.27734447270E+02 -0.40307983504E+02  0.51741898062E+02  0.20000013990E+01 0.  0.
        -13    1    3    3    0    0 -0.16711998979E+02 -0.27734447270E+02  0.10420188563E+02  0.34015907587E+02  0.10566000000E+00 0.  1.
         13    1    4    4    0    0  0.10262534798E+02  0.15580649846E+02 -0.23228302403E+02  0.29793312449E+02  0.10566000000E+00 0.  1.
        -13    1    4    4    0    0  0.50509961581E+01  0.10067164444E+02 -0.14269436250E+02  0.18179338191E+02  0.10566000000E+00 0. -1.
         14    1    4    4    0    0  0.13984680238E+01  0.20866329796E+01 -0.28102448512E+01  0.37692474221E+01  0.00000000000E+00 0. -1.
<mgrwt>
<rscale>  0 0.80381098E+02</rscale>
<asrwt>0</asrwt>
<pdfrwt beam="1">  1        2 0.88958154E-02 0.80381098E+02</pdfrwt>
<pdfrwt beam="2">  1       -1 0.42976932E-02 0.80381098E+02</pdfrwt>
<totfact> 0.15236069E+05</totfact>
</mgrwt>
</event>
<event>
 8    1  0.2389776E-024  0.7912986E+02  0.7818608E-02  0.1331539E+00
          2   -1    0    0  501    0  0.00000000000E+00  0.00000000000E+00  0.42124429209E+02  0.42124429287E+02  0.25500000000E-02 0. -1.
         -1   -1    0    0    0  501 -0.00000000000E+00 -0.00000000000E+00 -0.37160944478E+02  0.37160944819E+02  0.50400000000E-02 0.  1.
         24    2    1    2    0    0  0.00000000000E+00  0.00000000000E+00  0.49634847320E+01  0.79285374106E+02  0.79129857617E+02 0.  0.
         66    2    3    3    0    0  0.10421552233E+02 -0.37248264511E+02  0.10705343909E+02  0.40182662296E+02  0.20000002541E+01 0.  0.
        -13    1    3    3    0    0 -0.10421552233E+02  0.37248264511E+02 -0.57418591766E+01  0.39102711809E+02  0.10566000000E+00 0.  1.
         13    1    4    4    0    0  0.22722625765E+01 -0.10275154291E+02  0.33689264075E+01  0.11050013669E+02  0.10566000000E+00 0. -1.
        -13    1    4    4    0    0  0.30986366537E+01 -0.11649331785E+02  0.28874948208E+01  0.12395856990E+02  0.10566000000E+00 0.  1.
         14    1    4    4    0    0  0.50506530030E+01 -0.15323778435E+02  0.44489226802E+01  0.16736791637E+02  0.00000000000E+00 0. -1.
<mgrwt>
<rscale>  0 0.79129858E+02</rscale>
<asrwt>0</asrwt>
<pdfrwt beam="1">  1        2 0.64806814E-02 0.79129858E+02</pdfrwt>
<pdfrwt beam="2">  1       -1 0.57170685E-02 0.79129858E+02</pdfrwt>
<totfact> 0.14849368E+05</totfact>
</mgrwt>
</event>
<event>
 8    1  0.2389776E-024  0.7939536E+02  0.7818608E-02  0.1330776E+00
         -1   -1    0    0    0  501 -0.00000000000E+00  0.00000000000E+00  0.47240794582E+01  0.47240821467E+01  0.50400000000E-02 0.  1.
          2   -1    0    0  501    0  0.00000000000E+00 -0.00000000000E+00 -0.33358993413E+03  0.33358993414E+03  0.25500000000E-02 0. -1.
         24    2    1    2    0    0  0.35527136788E-14 -0.13877787808E-16 -0.32886585467E+03  0.33831401628E+03  0.79395360360E+02 0.  0.
         66    2    3    3    0    0  0.31254141486E+02  0.65494906838E-01 -0.26865823140E+03  0.27047748694E+03  0.19999981661E+01 0.  0.
        -13    1    3    3    0    0 -0.31254141486E+02 -0.65494906838E-01 -0.60207623267E+02  0.67836529342E+02  0.10566000000E+00 0.  1.
         13    1    4    4    0    0  0.96571944668E+01  0.40141104329E+00 -0.88796405551E+02  0.89320968079E+02  0.10566000000E+00 0. -1.
        -13    1    4    4    0    0  0.33031379915E+01  0.53654804669E-01 -0.25071883397E+02  0.25288813743E+02  0.10566000000E+00 0.  1.
        -14    1    4    4    0    0  0.18293809028E+02 -0.38957094112E+00 -0.15478994245E+03  0.15586770512E+03  0.00000000000E+00 0.  1.
<mgrwt>
<rscale>  0 0.79395360E+02</rscale>
<asrwt>0</asrwt>
<pdfrwt beam="1">  1        2 0.51321510E-01 0.79395360E+02</pdfrwt>
<pdfrwt beam="2">  1       -1 0.72678193E-03 0.79395360E+02</pdfrwt>
<totfact> 0.27021180E+05</totfact>
</mgrwt>
</event>
<event>
 8    1  0.2389776E-024  0.8097150E+02  0.7818608E-02  0.1326317E+00
         -1   -1    0    0    0  501 -0.00000000000E+00  0.00000000000E+00  0.32564581325E+02  0.32564581715E+02  0.50400000000E-02 0.  1.
          2   -1    0    0  501    0  0.00000000000E+00 -0.00000000000E+00 -0.50333699023E+02  0.50333699088E+02  0.25500000000E-02 0. -1.
         24    2    1    2    0    0  0.00000000000E+00  0.00000000000E+00 -0.17769117698E+02  0.82898280802E+02  0.80971497554E+02 0.  0.
         66    2    3    3    0    0 -0.19898288176E+02 -0.34484391031E+02 -0.15089869281E+01  0.39892256645E+02  0.20000003891E+01 0.  0.
        -13    1    3    3    0    0  0.19898288176E+02  0.34484391031E+02 -0.16260130770E+02  0.43006024157E+02  0.10566000000E+00 0.  1.
         13    1    4    4    0    0 -0.13858952246E+02 -0.22646821261E+02 -0.45648442517E+00  0.26555011065E+02  0.10566000000E+00 0. -1.
        -13    1    4    4    0    0 -0.26474363999E+01 -0.54823960840E+01 -0.62066899358E+00  0.61206192782E+01  0.10566000000E+00 0.  1.
         14    1    4    4    0    0 -0.33918995304E+01 -0.63551736855E+01 -0.43183350940E+00  0.72166263016E+01  0.00000000000E+00 0. -1.
<mgrwt>
<rscale>  0 0.80971498E+02</rscale>
<asrwt>0</asrwt>
<pdfrwt beam="1">  1        2 0.77436460E-02 0.80971498E+02</pdfrwt>
<pdfrwt beam="2">  1       -1 0.50099356E-02 0.80971498E+02</pdfrwt>
<totfact> 0.14477670E+05</totfact>
</mgrwt>
</event>
<event>
 8    1  0.2389776E-024  0.8075400E+02  0.7818608E-02  0.1326925E+00
         -1   -1    0    0    0  501 -0.00000000000E+00  0.00000000000E+00  0.19267360750E+01  0.19267426668E+01  0.50400000000E-02 0.  1.
          2   -1    0    0  501    0  0.00000000000E+00 -0.00000000000E+00 -0.84614558343E+03  0.84614558344E+03  0.25500000000E-02 0. -1.
         24    2    1    2    0    0  0.00000000000E+00 -0.55511151231E-16 -0.84421884736E+03  0.84807232611E+03  0.80753997228E+02 0.  0.
         66    2    3    3    0    0 -0.20067111531E+02  0.31995404470E+00 -0.79001081197E+03  0.79026822936E+03  0.19999923636E+01 0.  0.
        -13    1    3    3    0    0  0.20067111531E+02 -0.31995404470E+00 -0.54208035392E+02  0.57804096748E+02  0.10566000000E+00 0.  1.
         13    1    4    4    0    0 -0.11747612944E+02  0.53293228589E+00 -0.43243359516E+03  0.43259347639E+03  0.10566000000E+00 0. -1.
        -13    1    4    4    0    0 -0.78523301104E+01 -0.55282436628E-01 -0.33298652543E+03  0.33307911887E+03  0.10566000000E+00 0.  1.
         14    1    4    4    0    0 -0.46716847618E+00 -0.15769580456E+00 -0.24590691381E+02  0.24595634104E+02  0.00000000000E+00 0. -1.
<mgrwt>
<rscale>  0 0.80753997E+02</rscale>
<asrwt>0</asrwt>
<pdfrwt beam="1">  1        2 0.13017595E+00 0.80753997E+02</pdfrwt>
<pdfrwt beam="2">  1       -1 0.29642212E-03 0.80753997E+02</pdfrwt>
<totfact> 0.33837805E+05</totfact>
</mgrwt>
</event>
<event>
 8    1  0.2389776E-024  0.7900687E+02  0.7818608E-02  0.1331894E+00
          2   -1    0    0  501    0  0.00000000000E+00  0.00000000000E+00  0.47770735234E+03  0.47770735235E+03  0.25500000000E-02 0. -1.
         -1   -1    0    0    0  501 -0.00000000000E+00 -0.00000000000E+00 -0.32666874092E+01  0.32666912972E+01  0.50400000000E-02 0.  1.
         24    2    1    2    0    0 -0.35527136788E-14 -0.35527136788E-14  0.47444066493E+03  0.48097404364E+03  0.79006873874E+02 0.  0.
         66    2    3    3    0    0 -0.26060897694E+02 -0.18552901570E+02  0.37819987320E+03  0.37955569372E+03  0.19999994109E+01 0.  0.
        -13    1    3    3    0    0  0.26060897694E+02  0.18552901570E+02  0.96240791726E+02  0.10141834992E+03  0.10566000000E+00 0.  1.
         13    1    4    4    0    0 -0.10943790308E+02 -0.68349518829E+01  0.15456177203E+03  0.15509943794E+03  0.10566000000E+00 0. -1.
        -13    1    4    4    0    0 -0.17179485263E+01 -0.16288087236E+01  0.26117539111E+02  0.26224823703E+02  0.10566000000E+00 0.  1.
         14    1    4    4    0    0 -0.13399158860E+02 -0.10089140964E+02  0.19752056206E+03  0.19823143207E+03  0.00000000000E+00 0. -1.
<mgrwt>
<rscale>  0 0.79006874E+02</rscale>
<asrwt>0</asrwt>
<pdfrwt beam="1">  1        2 0.73493394E-01 0.79006874E+02</pdfrwt>
<pdfrwt beam="2">  1       -1 0.50256790E-03 0.79006874E+02</pdfrwt>
<totfact> 0.30999270E+05</totfact>
</mgrwt>
</event>
<event>
 8    1  0.2389776E-024  0.7803902E+02  0.7818608E-02  0.1334710E+00
          2   -1    0    0  501    0  0.00000000000E+00  0.00000000000E+00  0.34631559243E+02  0.34631559336E+02  0.25500000000E-02 0. -1.
         -1   -1    0    0    0  501 -0.00000000000E+00 -0.00000000000E+00 -0.43963427705E+02  0.43963427993E+02  0.50400000000E-02 0.  1.
         24    2    1    2    0    0 -0.71054273576E-14  0.00000000000E+00 -0.93318684619E+01  0.78594987330E+02  0.78039017577E+02 0.  0.
         66    2    3    3    0    0 -0.21580378353E+02  0.83596156492E+01  0.26938048147E+02  0.35570413904E+02  0.20000009159E+01 0.  0.
        -13    1    3    3    0    0  0.21580378353E+02 -0.83596156492E+01 -0.36269916609E+02  0.43024573426E+02  0.10566000000E+00 0.  1.
         13    1    4    4    0    0 -0.18763671308E+01  0.92976554961E+00  0.20260829391E+01  0.29157149550E+01  0.10566000000E+00 0. -1.
        -13    1    4    4    0    0 -0.15947353816E+01  0.99663583285E+00  0.19381983296E+01  0.27026358839E+01  0.10566000000E+00 0.  1.
        -14    1    4    4    0    0 -0.18109275840E+02  0.64332142667E+01  0.22973766878E+02  0.29952063065E+02  0.00000000000E+00 0.  1.
<mgrwt>
<rscale>  0 0.78039018E+02</rscale>
<asrwt>0</asrwt>
<pdfrwt beam="1">  1        2 0.53279322E-02 0.78039018E+02</pdfrwt>
<pdfrwt beam="2">  1       -1 0.67636043E-02 0.78039018E+02</pdfrwt>
<totfact> 0.14832523E+05</totfact>
</mgrwt>
</event>
<event>
 8    1  0.2389776E-024  0.8129631E+02  0.7818608E-02  0.1325412E+00
          2   -1    0    0  501    0  0.00000000000E+00  0.00000000000E+00  0.69949925858E+03  0.69949925859E+03  0.25500000000E-02 0. -1.
         -1   -1    0    0    0  501 -0.00000000000E+00 -0.00000000000E+00 -0.23620764942E+01  0.23620818712E+01  0.50400000000E-02 0.  1.
         24    2    1    2    0    0  0.00000000000E+00  0.17763568394E-14  0.69713718209E+03  0.70186134046E+03  0.81296313446E+02 0.  0.
         66    2    3    3    0    0  0.15242158631E+02  0.83486185992E+01  0.66578304524E+03  0.66601282733E+03  0.20000005866E+01 0.  0.
        -13    1    3    3    0    0 -0.15242158631E+02 -0.83486185992E+01  0.31354136851E+02  0.35848513135E+02  0.10566000000E+00 0.  1.
         13    1    4    4    0    0  0.14523079236E+01  0.64396449688E+00  0.61643184003E+02  0.61663742886E+02  0.10566000000E+00 0. -1.
        -13    1    4    4    0    0  0.90434631722E+01  0.59277722739E+01  0.39717544522E+03  0.39732262478E+03  0.10566000000E+00 0.  1.
         14    1    4    4    0    0  0.47463875351E+01  0.17768818284E+01  0.20696441601E+03  0.20702645966E+03  0.00000000000E+00 0. -1.
<mgrwt>
<rscale>  0 0.81296313E+02</rscale>
<asrwt>0</asrwt>
<pdfrwt beam="1">  1        2 0.10761547E+00 0.81296313E+02</pdfrwt>
<pdfrwt beam="2">  1       -1 0.36339613E-03 0.81296313E+02</pdfrwt>
<totfact> 0.32076415E+05</totfact>
</mgrwt>
</event>
<event>
 8    1  0.2389776E-024  0.8019581E+02  0.7818608E-02  0.1328497E+00
         -1   -1    0    0    0  501 -0.00000000000E+00  0.00000000000E+00  0.92279107884E+01  0.92279121648E+01  0.50400000000E-02 0.  1.
          2   -1    0    0  501    0  0.00000000000E+00 -0.00000000000E+00 -0.17423682994E+03  0.17423682996E+03  0.25500000000E-02 0. -1.
         24    2    1    2    0    0 -0.71054273576E-14  0.88817841970E-15 -0.16500891915E+03  0.18346474212E+03  0.80195811629E+02 0.  0.
         66    2    3    3    0    0  0.38087052085E+02  0.49102557963E+01 -0.56361308207E+02  0.68229987485E+02  0.19999952441E+01 0.  0.
        -13    1    3    3    0    0 -0.38087052085E+02 -0.49102557963E+01 -0.10864761095E+03  0.11523475464E+03  0.10566000000E+00 0.  1.
         13    1    4    4    0    0  0.20354699543E+02  0.32088170052E+01 -0.29377827938E+02  0.35884233842E+02  0.10566000000E+00 0. -1.
        -13    1    4    4    0    0  0.10851533445E+02  0.61015341961E+00 -0.16330041162E+02  0.19616561210E+02  0.10566000000E+00 0.  1.
        -14    1    4    4    0    0  0.68808190969E+01  0.10912853714E+01 -0.10653439107E+02  0.12729192433E+02  0.00000000000E+00 0.  1.
<mgrwt>
<rscale>  0 0.80195812E+02</rscale>
<asrwt>0</asrwt>
<pdfrwt beam="1">  1        2 0.26805664E-01 0.80195812E+02</pdfrwt>
<pdfrwt beam="2">  1       -1 0.14196788E-02 0.80195812E+02</pdfrwt>
<totfact> 0.20906258E+05</totfact>
</mgrwt>
</event>
<event>
 8    1  0.2389776E-024  0.7736427E+02  0.7818608E-02  0.1336702E+00
         -1   -1    0    0    0  501 -0.00000000000E+00  0.00000000000E+00  0.57888701412E+01  0.57888723352E+01  0.50400000000E-02 0.  1.
          2   -1    0    0  501    0  0.00000000000E+00 -0.00000000000E+00 -0.25848000125E+03  0.25848000126E+03  0.25500000000E-02 0. -1.
         24    2    1    2    0    0  0.00000000000E+00  0.00000000000E+00 -0.25269113111E+03  0.26426887360E+03  0.77364267020E+02 0.  0.
         66    2    3    3    0    0 -0.54210885135E+01 -0.33230515739E+02 -0.19130020986E+03  0.19425093480E+03  0.20000008503E+01 0.  0.
        -13    1    3    3    0    0  0.54210885135E+01  0.33230515739E+02 -0.61390921250E+02  0.70017938794E+02  0.10566000000E+00 0.  1.
         13    1    4    4    0    0 -0.17802461837E+01 -0.10670510905E+02 -0.62080977059E+02  0.63016568901E+02  0.10566000000E+00 0. -1.
        -13    1    4    4    0    0 -0.30556575022E+01 -0.15084527264E+02 -0.84279045688E+02  0.85672917025E+02  0.10566000000E+00 0.  1.
        -14    1    4    4    0    0 -0.58518482761E+00 -0.74754775692E+01 -0.44940187112E+02  0.45561448878E+02  0.00000000000E+00 0.  1.
<mgrwt>
<rscale>  0 0.77364267E+02</rscale>
<asrwt>0</asrwt>
<pdfrwt beam="1">  1        2 0.39766145E-01 0.77364267E+02</pdfrwt>
<pdfrwt beam="2">  1       -1 0.89059578E-03 0.77364267E+02</pdfrwt>
<totfact> 0.26374813E+05</totfact>
</mgrwt>
</event>
<event>
 8    1  0.2389776E-024  0.7978958E+02  0.7818608E-02  0.1329650E+00
         -1   -1    0    0    0  501 -0.00000000000E+00  0.00000000000E+00  0.12685804018E+02  0.12685805019E+02  0.50400000000E-02 0.  1.
          2   -1    0    0  501    0  0.00000000000E+00 -0.00000000000E+00 -0.12546263245E+03  0.12546263247E+03  0.25500000000E-02 0. -1.
         24    2    1    2    0    0 -0.35527136788E-14  0.35527136788E-14 -0.11277682843E+03  0.13814843749E+03  0.79789584225E+02 0.  0.
         66    2    3    3    0    0 -0.18235026715E+02  0.19114483113E+02 -0.10812624490E+03  0.11132459073E+03  0.20000002453E+01 0.  0.
        -13    1    3    3    0    0  0.18235026715E+02 -0.19114483113E+02 -0.46505835313E+01  0.26823846764E+02  0.10566000000E+00 0.  1.
         13    1    4    4    0    0 -0.15838700225E+01  0.17297216337E+01 -0.90537832436E+01  0.93532206344E+01  0.10566000000E+00 0. -1.
        -13    1    4    4    0    0 -0.83946666851E+01  0.84464868199E+01 -0.52724661428E+02  0.54052887574E+02  0.10566000000E+00 0.  1.
        -14    1    4    4    0    0 -0.82564900075E+01  0.89382746598E+01 -0.46347800226E+02  0.47918482519E+02  0.00000000000E+00 0.  1.
<mgrwt>
<rscale>  0 0.79789584E+02</rscale>
<asrwt>0</asrwt>
<pdfrwt beam="1">  1        2 0.19301943E-01 0.79789584E+02</pdfrwt>
<pdfrwt beam="2">  1       -1 0.19516623E-02 0.79789584E+02</pdfrwt>
<totfact> 0.19072677E+05</totfact>
</mgrwt>
</event>
<event>
 8    1  0.2389776E-024  0.7684909E+02  0.7818608E-02  0.1338239E+00
         -1   -1    0    0    0  501 -0.00000000000E+00  0.00000000000E+00  0.12204828090E+03  0.12204828101E+03  0.50400000000E-02 0.  1.
          2   -1    0    0  501    0  0.00000000000E+00 -0.00000000000E+00 -0.12097225871E+02  0.12097226140E+02  0.25500000000E-02 0. -1.
         24    2    1    2    0    0  0.00000000000E+00  0.00000000000E+00  0.10995105503E+03  0.13414550715E+03  0.76849089684E+02 0.  0.
         66    2    3    3    0    0 -0.19151417136E+02 -0.87837022914E+01 -0.10228892764E+01  0.21189065615E+02  0.19999987307E+01 0.  0.
        -13    1    3    3    0    0  0.19151417136E+02  0.87837022914E+01  0.11097394431E+03  0.11295644153E+03  0.10566000000E+00 0.  1.
         13    1    4    4    0    0 -0.52328482022E+01 -0.21921412493E+01  0.43457837737E+00  0.56910636937E+01  0.10566000000E+00 0. -1.
        -13    1    4    4    0    0 -0.76138514691E+01 -0.37655172587E+01 -0.12458642966E+01  0.85856389570E+01  0.10566000000E+00 0.  1.
         14    1    4    4    0    0 -0.63047174644E+01 -0.28260437834E+01 -0.21160335724E+00  0.69123629644E+01  0.00000000000E+00 0. -1.
<mgrwt>
<rscale>  0 0.76849090E+02</rscale>
<asrwt>0</asrwt>
<pdfrwt beam="1">  1        2 0.18611118E-02 0.76849090E+02</pdfrwt>
<pdfrwt beam="2">  1       -1 0.18776658E-01 0.76849090E+02</pdfrwt>
<totfact> 0.12543980E+05</totfact>
</mgrwt>
</event>
<event>
 8    1  0.2389776E-024  0.8020007E+02  0.7818608E-02  0.1328485E+00
         -1   -1    0    0    0  501 -0.00000000000E+00  0.00000000000E+00  0.57724111396E+01  0.57724133399E+01  0.50400000000E-02 0.  1.
          2   -1    0    0  501    0  0.00000000000E+00 -0.00000000000E+00 -0.27856858496E+03  0.27856858497E+03  0.25500000000E-02 0. -1.
         24    2    1    2    0    0  0.00000000000E+00  0.00000000000E+00 -0.27279617382E+03  0.28434099831E+03  0.80200067766E+02 0.  0.
         66    2    3    3    0    0  0.39287161425E+01  0.24863397994E+02 -0.24703903544E+03  0.24832621368E+03  0.20000000282E+01 0.  0.
        -13    1    3    3    0    0 -0.39287161425E+01 -0.24863397994E+02 -0.25757138379E+02  0.36014784628E+02  0.10566000000E+00 0.  1.
         13    1    4    4    0    0  0.37100861749E+01  0.21321548835E+02 -0.21607173222E+03  0.21715289040E+03  0.10566000000E+00 0. -1.
        -13    1    4    4    0    0  0.40898033182E-01  0.88231449917E+00 -0.63163820914E+01  0.63787144696E+01  0.10566000000E+00 0. -1.
         14    1    4    4    0    0  0.17773193448E+00  0.26595346593E+01 -0.24650921132E+02  0.24794608807E+02  0.00000000000E+00 0. -1.
<mgrwt>
<rscale>  0 0.80200068E+02</rscale>
<asrwt>0</asrwt>
<pdfrwt beam="1">  1        2 0.42856695E-01 0.80200068E+02</pdfrwt>
<pdfrwt beam="2">  1       -1 0.88806364E-03 0.80200068E+02</pdfrwt>
<totfact> 0.24656868E+05</totfact>
</mgrwt>
</event>
<event>
 8    1  0.2389776E-024  0.8023440E+02  0.7818608E-02  0.1328388E+00
          2   -1    0    0  501    0  0.00000000000E+00  0.00000000000E+00  0.38071628427E+02  0.38071628513E+02  0.25500000000E-02 0. -1.
         -1   -1    0    0    0  501 -0.00000000000E+00 -0.00000000000E+00 -0.42272682009E+02  0.42272682309E+02  0.50400000000E-02 0.  1.
         24    2    1    2    0    0  0.17763568394E-14 -0.35527136788E-14 -0.42010535817E+01  0.80344310822E+02  0.80234403035E+02 0.  0.
         66    2    3    3    0    0  0.14102464783E+02 -0.20392336299E+02  0.29447805938E+02  0.38547375484E+02  0.19999973650E+01 0.  0.
        -13    1    3    3    0    0 -0.14102464783E+02  0.20392336299E+02 -0.33648859520E+02  0.41796935338E+02  0.10566000000E+00 0.  1.
         13    1    4    4    0    0  0.10192843072E+02 -0.14877791625E+02  0.22091981522E+02  0.28518582453E+02  0.10566000000E+00 0. -1.
        -13    1    4    4    0    0  0.28949774209E+01 -0.35724549085E+01  0.53832551394E+01  0.70805316377E+01  0.10566000000E+00 0.  1.
         14    1    4    4    0    0  0.10146442904E+01 -0.19420897653E+01  0.19725692768E+01  0.29482613935E+01  0.00000000000E+00 0. -1.
<mgrwt>
<rscale>  0 0.80234403E+02</rscale>
<asrwt>0</asrwt>
<pdfrwt beam="1">  1        2 0.58571736E-02 0.80234403E+02</pdfrwt>
<pdfrwt beam="2">  1       -1 0.65034896E-02 0.80234403E+02</pdfrwt>
<totfact> 0.13997915E+05</totfact>
</mgrwt>
</event>
<event>
 8    1  0.2389776E-024  0.8006975E+02  0.7818608E-02  0.1328854E+00
          2   -1    0    0  501    0  0.00000000000E+00  0.00000000000E+00  0.14292820374E+02  0.14292820601E+02  0.25500000000E-02 0. -1.
         -1   -1    0    0    0  501 -0.00000000000E+00 -0.00000000000E+00 -0.11213959952E+03  0.11213959963E+03  0.50400000000E-02 0.  1.
         24    2    1    2    0    0 -0.17763568394E-14 -0.71054273576E-14 -0.97846779144E+02  0.12643242023E+03  0.80069748950E+02 0.  0.
         66    2    3    3    0    0  0.12071835949E+02  0.28587046780E+02 -0.90747516650E+01  0.32392894002E+02  0.19999993174E+01 0.  0.
        -13    1    3    3    0    0 -0.12071835949E+02 -0.28587046780E+02 -0.88772027479E+02  0.94039526230E+02  0.10566000000E+00 0.  1.
         13    1    4    4    0    0  0.44217141672E+01  0.10185559694E+02 -0.38686932122E+01  0.11759044759E+02  0.10566000000E+00 0. -1.
        -13    1    4    4    0    0  0.60262985511E+01  0.13091690003E+02 -0.38618024405E+01  0.14920901564E+02  0.10566000000E+00 0.  1.
         14    1    4    4    0    0  0.16238232307E+01  0.53097970834E+01 -0.13442560123E+01  0.57129476786E+01  0.00000000000E+00 0. -1.
<mgrwt>
<rscale>  0 0.80069749E+02</rscale>
<asrwt>0</asrwt>
<pdfrwt beam="1">  1        2 0.21988955E-02 0.80069749E+02</pdfrwt>
<pdfrwt beam="2">  1       -1 0.17252246E-01 0.80069749E+02</pdfrwt>
<totfact> 0.11534834E+05</totfact>
</mgrwt>
</event>
<event>
 8    1  0.2389776E-024  0.7601792E+02  0.7818608E-02  0.1340748E+00
          2   -1    0    0  501    0  0.00000000000E+00  0.00000000000E+00  0.13821770268E+03  0.13821770270E+03  0.25500000000E-02 0. -1.
         -1   -1    0    0    0  501 -0.00000000000E+00 -0.00000000000E+00 -0.10452213603E+02  0.10452214818E+02  0.50400000000E-02 0.  1.
         24    2    1    2    0    0  0.00000000000E+00  0.88817841970E-15  0.12776548908E+03  0.14866991752E+03  0.76017920104E+02 0.  0.
         66    2    3    3    0    0  0.20246317859E+02 -0.56491437412E+01  0.12579847660E+03  0.12755815507E+03  0.19999993737E+01 0.  0.
        -13    1    3    3    0    0 -0.20246317859E+02  0.56491437412E+01  0.19670124779E+01  0.21111762456E+02  0.10566000000E+00 0.  1.
         13    1    4    4    0    0  0.43799200221E+01 -0.45397694794E+00  0.26510081313E+02  0.26873506837E+02  0.10566000000E+00 0. -1.
        -13    1    4    4    0    0  0.18642476444E+01 -0.76851353900E+00  0.11202675513E+02  0.11383195290E+02  0.10566000000E+00 0. -1.
         14    1    4    4    0    0  0.14002150193E+02 -0.44266532542E+01  0.88085719774E+02  0.89301452940E+02  0.00000000000E+00 0. -1.
<mgrwt>
<rscale>  0 0.76017920E+02</rscale>
<asrwt>0</asrwt>
<pdfrwt beam="1">  1        2 0.21264262E-01 0.76017920E+02</pdfrwt>
<pdfrwt beam="2">  1       -1 0.16080330E-02 0.76017920E+02</pdfrwt>
<totfact> 0.22343353E+05</totfact>
</mgrwt>
</event>
<event>
 8    1  0.2389776E-024  0.7713009E+02  0.7818608E-02  0.1337399E+00
         -1   -1    0    0    0  501 -0.00000000000E+00  0.00000000000E+00  0.65239930476E+00  0.65241877230E+00  0.50400000000E-02 0.  1.
          2   -1    0    0  501    0  0.00000000000E+00 -0.00000000000E+00 -0.22796476460E+04  0.22796476460E+04  0.25500000000E-02 0. -1.
         24    2    1    2    0    0  0.00000000000E+00  0.00000000000E+00 -0.22789952467E+04  0.22803000648E+04  0.77130091064E+02 0.  0.
         66    2    3    3    0    0 -0.11489832517E+02  0.41700658674E+01 -0.22208178270E+04  0.22208523649E+04  0.20000011248E+01 0.  0.
        -13    1    3    3    0    0  0.11489832517E+02 -0.41700658674E+01 -0.58177419665E+02  0.59447699901E+02  0.10566000000E+00 0.  1.
         13    1    4    4    0    0 -0.14717689066E+01  0.52175406720E+00 -0.27669924308E+03  0.27670366933E+03  0.10566000000E+00 0. -1.
        -13    1    4    4    0    0 -0.31533483892E+01  0.13904381962E+01 -0.48804587450E+03  0.48805805362E+03  0.10566000000E+00 0.  1.
        -14    1    4    4    0    0 -0.68647152215E+01  0.22578736040E+01 -0.14560727094E+04  0.14560906419E+04  0.00000000000E+00 0.  1.
<mgrwt>
<rscale>  0 0.77130091E+02</rscale>
<asrwt>0</asrwt>
<pdfrwt beam="1">  1        2 0.35070865E+00 0.77130091E+02</pdfrwt>
<pdfrwt beam="2">  1       -1 0.10037245E-03 0.77130091E+02</pdfrwt>
<totfact> 0.26423159E+05</totfact>
</mgrwt>
</event>
<event>
 8    1  0.2389776E-024  0.8064691E+02  0.7818608E-02  0.1327226E+00
          2   -1    0    0  501    0  0.00000000000E+00  0.00000000000E+00  0.11438320606E+03  0.11438320609E+03  0.25500000000E-02 0. -1.
         -1   -1    0    0    0  501 -0.00000000000E+00 -0.00000000000E+00 -0.14215207007E+02  0.14215207900E+02  0.50400000000E-02 0.  1.
         24    2    1    2    0    0 -0.17763568394E-14  0.17763568394E-14  0.10016799905E+03  0.12859841399E+03  0.80646909713E+02 0.  0.
         66    2    3    3    0    0  0.14379579899E+02 -0.15034378701E+02  0.10514920898E+03  0.10720616125E+03  0.19999998584E+01 0.  0.
        -13    1    3    3    0    0 -0.14379579899E+02  0.15034378701E+02 -0.49812099260E+01  0.21392252742E+02  0.10566000000E+00 0.  1.
         13    1    4    4    0    0  0.89566516621E+01 -0.10080151261E+02  0.65050083763E+02  0.66433091303E+02  0.10566000000E+00 0. -1.
        -13    1    4    4    0    0  0.52059100146E+01 -0.47507254340E+01  0.37472640761E+02  0.38129789677E+02  0.10566000000E+00 0.  1.
        -14    1    4    4    0    0  0.21701822238E+00 -0.20350200633E+00  0.26264844554E+01  0.26432802670E+01  0.00000000000E+00 0.  1.
<mgrwt>
<rscale>  0 0.80646910E+02</rscale>
<asrwt>0</asrwt>
<pdfrwt beam="1">  1        2 0.17597417E-01 0.80646910E+02</pdfrwt>
<pdfrwt beam="2">  1       -1 0.21869550E-02 0.80646910E+02</pdfrwt>
<totfact> 0.18030672E+05</totfact>
</mgrwt>
</event>
<event>
 8    1  0.2389776E-024  0.7994931E+02  0.7818608E-02  0.1329195E+00
          2   -1    0    0  501    0  0.00000000000E+00  0.00000000000E+00  0.10405202835E+02  0.10405203147E+02  0.25500000000E-02 0. -1.
         -1   -1    0    0    0  501 -0.00000000000E+00 -0.00000000000E+00 -0.15357441719E+03  0.15357441727E+03  0.50400000000E-02 0.  1.
         24    2    1    2    0    0  0.17763568394E-14  0.35527136788E-14 -0.14316921436E+03  0.16397962042E+03  0.79949308778E+02 0.  0.
         66    2    3    3    0    0 -0.12601085177E+02 -0.24082456093E+02 -0.11578271997E+02  0.29610951029E+02  0.19999998221E+01 0.  0.
        -13    1    3    3    0    0  0.12601085177E+02  0.24082456093E+02 -0.13159094236E+03  0.13436866939E+03  0.10566000000E+00 0.  1.
         13    1    4    4    0    0 -0.65228127034E+01 -0.13768563113E+02 -0.61426588331E+01  0.16427532904E+02  0.10566000000E+00 0. -1.
        -13    1    4    4    0    0 -0.22003765222E+01 -0.32151536436E+01 -0.13780772139E+01  0.41339001723E+01  0.10566000000E+00 0.  1.
        -14    1    4    4    0    0 -0.38778959517E+01 -0.70987393369E+01 -0.40575359497E+01  0.90495179523E+01  0.00000000000E+00 0.  1.
<mgrwt>
<rscale>  0 0.79949309E+02</rscale>
<asrwt>0</asrwt>
<pdfrwt beam="1">  1        2 0.16008006E-02 0.79949309E+02</pdfrwt>
<pdfrwt beam="2">  1       -1 0.23626832E-01 0.79949309E+02</pdfrwt>
<totfact> 0.10739497E+05</totfact>
</mgrwt>
</event>
<event>
 8    1  0.2389776E-024  0.8011392E+02  0.7818608E-02  0.1328728E+00
          2   -1    0    0  501    0  0.00000000000E+00  0.00000000000E+00  0.31328197100E+03  0.31328197101E+03  0.25500000000E-02 0. -1.
         -1   -1    0    0    0  501 -0.00000000000E+00 -0.00000000000E+00 -0.51217741433E+01  0.51217766231E+01  0.50400000000E-02 0.  1.
         24    2    1    2    0    0  0.00000000000E+00  0.00000000000E+00  0.30816019686E+03  0.31840374763E+03  0.80113916271E+02 0.  0.
         66    2    3    3    0    0  0.83045380066E+01  0.18022120639E+02  0.29235615683E+03  0.29303563716E+03  0.20000061667E+01 0.  0.
        -13    1    3    3    0    0 -0.83045380066E+01 -0.18022120639E+02  0.15804040025E+02  0.25368110473E+02  0.10566000000E+00 0.  1.
         13    1    4    4    0    0  0.21261240700E+01  0.52867463424E+01  0.95362711869E+02  0.95532863819E+02  0.10566000000E+00 0. -1.
        -13    1    4    4    0    0  0.41811493351E+01  0.80389584751E+01  0.12946300144E+03  0.12977976256E+03  0.10566000000E+00 0.  1.
        -14    1    4    4    0    0  0.19972646015E+01  0.46964158216E+01  0.67530443517E+02  0.67723010780E+02  0.00000000000E+00 0.  1.
<mgrwt>
<rscale>  0 0.80113916E+02</rscale>
<asrwt>0</asrwt>
<pdfrwt beam="1">  1        2 0.48197221E-01 0.80113916E+02</pdfrwt>
<pdfrwt beam="2">  1       -1 0.78796554E-03 0.80113916E+02</pdfrwt>
<totfact> 0.25800734E+05</totfact>
</mgrwt>
</event>
<event>
 8    1  0.2389776E-024  0.7984705E+02  0.7818608E-02  0.1329486E+00
         -1   -1    0    0    0  501 -0.00000000000E+00  0.00000000000E+00  0.27363487329E+02  0.27363487793E+02  0.50400000000E-02 0.  1.
          2   -1    0    0  501    0  0.00000000000E+00 -0.00000000000E+00 -0.58248714451E+02  0.58248714507E+02  0.25500000000E-02 0. -1.
         24    2    1    2    0    0  0.00000000000E+00  0.00000000000E+00 -0.30885227122E+02  0.85612202300E+02  0.79847053347E+02 0.  0.
         66    2    3    3    0    0 -0.33718477360E+01  0.39754487858E+02 -0.15781627069E+02  0.42951698780E+02  0.20000032745E+01 0.  0.
        -13    1    3    3    0    0  0.33718477360E+01 -0.39754487858E+02 -0.15103600053E+02  0.42660503520E+02  0.10566000000E+00 0.  1.
         13    1    4    4    0    0 -0.28703333051E+01  0.32811145263E+02 -0.13134273937E+02  0.35458854784E+02  0.10566000000E+00 0. -1.
        -13    1    4    4    0    0 -0.71613954716E+00  0.58324356062E+01 -0.21744590630E+01  0.62665458750E+01  0.10566000000E+00 0.  1.
         14    1    4    4    0    0  0.21462511625E+00  0.11109069890E+01 -0.47289406951E+00  0.12262981202E+01  0.00000000000E+00 0. -1.
<mgrwt>
<rscale>  0 0.79847053E+02</rscale>
<asrwt>0</asrwt>
<pdfrwt beam="1">  1        2 0.89613407E-02 0.79847053E+02</pdfrwt>
<pdfrwt beam="2">  1       -1 0.42097674E-02 0.79847053E+02</pdfrwt>
<totfact> 0.15541385E+05</totfact>
</mgrwt>
</event>
<event>
 8    1  0.2389776E-024  0.8090133E+02  0.7818608E-02  0.1326513E+00
          2   -1    0    0  501    0  0.00000000000E+00  0.00000000000E+00  0.82721066382E+01  0.82721070312E+01  0.25500000000E-02 0. -1.
         -1   -1    0    0    0  501 -0.00000000000E+00 -0.00000000000E+00 -0.19780405336E+03  0.19780405342E+03  0.50400000000E-02 0.  1.
         24    2    1    2    0    0  0.00000000000E+00  0.35527136788E-14 -0.18953194672E+03  0.20607616045E+03  0.80901329284E+02 0.  0.
         66    2    3    3    0    0 -0.30230897893E+02 -0.21209326053E+02 -0.52928686024E+02  0.64569253569E+02  0.20000008242E+01 0.  0.
        -13    1    3    3    0    0  0.30230897893E+02  0.21209326053E+02 -0.13660326070E+03  0.14150690688E+03  0.10566000000E+00 0.  1.
         13    1    4    4    0    0 -0.39764918184E+01 -0.21929409945E+01 -0.65581213618E+01  0.79775683775E+01  0.10566000000E+00 0. -1.
        -13    1    4    4    0    0 -0.12039043201E+02 -0.85909589050E+01 -0.20128493839E+02  0.24978201785E+02  0.10566000000E+00 0.  1.
         14    1    4    4    0    0 -0.14215362873E+02 -0.10425426153E+02 -0.26242070822E+02  0.31613483407E+02  0.00000000000E+00 0. -1.
<mgrwt>
<rscale>  0 0.80901329E+02</rscale>
<asrwt>0</asrwt>
<pdfrwt beam="1">  1        2 0.12726320E-02 0.80901329E+02</pdfrwt>
<pdfrwt beam="2">  1       -1 0.30431389E-01 0.80901329E+02</pdfrwt>
<totfact> 0.97126446E+04</totfact>
</mgrwt>
</event>
<event>
 8    1  0.2389776E-024  0.8214345E+02  0.7818608E-02  0.1323076E+00
         -1   -1    0    0    0  501 -0.00000000000E+00  0.00000000000E+00  0.48374976338E+01  0.48375002593E+01  0.50400000000E-02 0.  1.
          2   -1    0    0  501    0  0.00000000000E+00 -0.00000000000E+00 -0.34871046438E+03  0.34871046439E+03  0.25500000000E-02 0. -1.
         24    2    1    2    0    0  0.00000000000E+00  0.00000000000E+00 -0.34387296675E+03  0.35354796465E+03  0.82143447994E+02 0.  0.
         66    2    3    3    0    0  0.26836153145E+01 -0.40169975104E+02 -0.20648458151E+03  0.21038229749E+03  0.20000012508E+01 0.  0.
        -13    1    3    3    0    0 -0.26836153145E+01  0.40169975104E+02 -0.13738838524E+03  0.14316566716E+03  0.10566000000E+00 0.  1.
         13    1    4    4    0    0  0.10396455831E+00 -0.49839099019E+00 -0.19121496167E+01  0.19815858298E+01  0.10566000000E+00 0. -1.
        -13    1    4    4    0    0  0.14520172003E+01 -0.25645905161E+02 -0.13346346666E+03  0.13591294604E+03  0.10566000000E+00 0.  1.
         14    1    4    4    0    0  0.11276335559E+01 -0.14025678952E+02 -0.71108965237E+02  0.72487765620E+02  0.00000000000E+00 0. -1.
<mgrwt>
<rscale>  0 0.82143448E+02</rscale>
<asrwt>0</asrwt>
<pdfrwt beam="1">  1        2 0.53647744E-01 0.82143448E+02</pdfrwt>
<pdfrwt beam="2">  1       -1 0.74423089E-03 0.82143448E+02</pdfrwt>
<totfact> 0.25112727E+05</totfact>
</mgrwt>
</event>
<event>
 8    1  0.2389776E-024  0.7900014E+02  0.7818608E-02  0.1331913E+00
         -1   -1    0    0    0  501 -0.00000000000E+00  0.00000000000E+00  0.22815444451E+01  0.22815500118E+01  0.50400000000E-02 0.  1.
          2   -1    0    0  501    0  0.00000000000E+00 -0.00000000000E+00 -0.68385855227E+03  0.68385855228E+03  0.25500000000E-02 0. -1.
         24    2    1    2    0    0  0.88817841970E-15 -0.17763568394E-14 -0.68157700783E+03  0.68614010229E+03  0.79000141584E+02 0.  0.
         66    2    3    3    0    0 -0.62402565153E+01  0.12715234453E+02 -0.66102553957E+03  0.66118029460E+03  0.20000017265E+01 0.  0.
        -13    1    3    3    0    0  0.62402565153E+01 -0.12715234453E+02 -0.20551468254E+02  0.24959807692E+02  0.10566000000E+00 0.  1.
         13    1    4    4    0    0 -0.19773598341E+01  0.47563580283E+01 -0.24029615462E+03  0.24035138024E+03  0.10566000000E+00 0. -1.
        -13    1    4    4    0    0 -0.72903111799E+00  0.51740704517E+00 -0.35031418079E+02  0.35042982366E+02  0.10566000000E+00 0.  1.
         14    1    4    4    0    0 -0.35338655632E+01  0.74414693797E+01 -0.38569796687E+03  0.38578593199E+03  0.00000000000E+00 0. -1.
<mgrwt>
<rscale>  0 0.79000142E+02</rscale>
<asrwt>0</asrwt>
<pdfrwt beam="1">  1        2 0.10520884E+00 0.79000142E+02</pdfrwt>
<pdfrwt beam="2">  1       -1 0.35100781E-03 0.79000142E+02</pdfrwt>
<totfact> 0.34375453E+05</totfact>
</mgrwt>
</event>
<event>
 8    1  0.2389776E-024  0.8200332E+02  0.7818608E-02  0.1323461E+00
         -1   -1    0    0    0  501 -0.00000000000E+00  0.00000000000E+00  0.68179067572E+01  0.68179086200E+01  0.50400000000E-02 0.  1.
          2   -1    0    0  501    0  0.00000000000E+00 -0.00000000000E+00 -0.24657656341E+03  0.24657656343E+03  0.25500000000E-02 0. -1.
         24    2    1    2    0    0  0.35527136788E-14  0.35527136788E-14 -0.23975865666E+03  0.25339447205E+03  0.82003323239E+02 0.  0.
         66    2    3    3    0    0  0.30503609738E+02  0.21264414050E+02 -0.17315729394E+03  0.17711604658E+03  0.19999998744E+01 0.  0.
        -13    1    3    3    0    0 -0.30503609738E+02 -0.21264414050E+02 -0.66601362714E+02  0.76278425465E+02  0.10566000000E+00 0.  1.
         13    1    4    4    0    0  0.10032242061E+02  0.62577363318E+01 -0.54039952343E+02  0.55318466700E+02  0.10566000000E+00 0. -1.
        -13    1    4    4    0    0  0.17866215758E+00  0.14503904869E+00 -0.14459606164E+01  0.14679654737E+01  0.10566000000E+00 0. -1.
         14    1    4    4    0    0  0.20292705519E+02  0.14861638670E+02 -0.11767138098E+03  0.12032961441E+03  0.00000000000E+00 0. -1.
<mgrwt>
<rscale>  0 0.82003323E+02</rscale>
<asrwt>0</asrwt>
<pdfrwt beam="1">  1        2 0.37934849E-01 0.82003323E+02</pdfrwt>
<pdfrwt beam="2">  1       -1 0.10489091E-02 0.82003323E+02</pdfrwt>
<totfact> 0.22253508E+05</totfact>
</mgrwt>
</event>
<event>
 8    1  0.2389776E-024  0.7897204E+02  0.7818608E-02  0.1331994E+00
          2   -1    0    0  501    0  0.00000000000E+00  0.00000000000E+00  0.42460234801E+03  0.42460234801E+03  0.25500000000E-02 0. -1.
         -1   -1    0    0    0  501 -0.00000000000E+00 -0.00000000000E+00 -0.36720122338E+01  0.36720156926E+01  0.50400000000E-02 0.  1.
         24    2    1    2    0    0  0.00000000000E+00  0.00000000000E+00  0.42093033577E+03  0.42827436371E+03  0.78972039575E+02 0.  0.
         66    2    3    3    0    0 -0.27305075195E+02 -0.25622569637E+02  0.27812955098E+03  0.28064591622E+03  0.19999889748E+01 0.  0.
        -13    1    3    3    0    0  0.27305075195E+02  0.25622569637E+02  0.14280078480E+03  0.14762844749E+03  0.10566000000E+00 0.  1.
         13    1    4    4    0    0 -0.16215364654E+02 -0.15254493367E+02  0.16801065735E+03  0.16947929008E+03  0.10566000000E+00 0. -1.
        -13    1    4    4    0    0 -0.20653796440E+01 -0.24466300465E+01  0.25277151562E+02  0.25479351381E+02  0.10566000000E+00 0.  1.
         14    1    4    4    0    0 -0.90243308966E+01 -0.79214462236E+01  0.84841742062E+02  0.85687274753E+02  0.00000000000E+00 0. -1.
<mgrwt>
<rscale>  0 0.78972040E+02</rscale>
<asrwt>0</asrwt>
<pdfrwt beam="1">  1        2 0.65323463E-01 0.78972040E+02</pdfrwt>
<pdfrwt beam="2">  1       -1 0.56492501E-03 0.78972040E+02</pdfrwt>
<totfact> 0.29833747E+05</totfact>
</mgrwt>
</event>
<event>
 8    1  0.2389776E-024  0.7902779E+02  0.7818608E-02  0.1331833E+00
          2   -1    0    0  501    0  0.00000000000E+00  0.00000000000E+00  0.96340380389E+03  0.96340380389E+03  0.25500000000E-02 0. -1.
         -1   -1    0    0    0  501 -0.00000000000E+00 -0.00000000000E+00 -0.16206539109E+01  0.16206617477E+01  0.50400000000E-02 0.  1.
         24    2    1    2    0    0  0.35527136788E-14 -0.71054273576E-14  0.96178314997E+03  0.96502446564E+03  0.79027790695E+02 0.  0.
         66    2    3    3    0    0 -0.21977239826E+02  0.22204529666E+02  0.77611957812E+03  0.77675069347E+03  0.20000141220E+01 0.  0.
        -13    1    3    3    0    0  0.21977239826E+02 -0.22204529666E+02  0.18566357185E+03  0.18827377216E+03  0.10566000000E+00 0.  1.
         13    1    4    4    0    0 -0.92967790697E+01  0.97483698369E+01  0.34035436908E+03  0.34062085745E+03  0.10566000000E+00 0. -1.
        -13    1    4    4    0    0 -0.53922168749E+01  0.45559658559E+01  0.16235998015E+03  0.16251340605E+03  0.10566000000E+00 0.  1.
        -14    1    4    4    0    0 -0.72882438815E+01  0.79001939734E+01  0.27340522889E+03  0.27361642997E+03  0.00000000000E+00 0.  1.
<mgrwt>
<rscale>  0 0.79027791E+02</rscale>
<asrwt>0</asrwt>
<pdfrwt beam="1">  1        2 0.14821588E+00 0.79027791E+02</pdfrwt>
<pdfrwt beam="2">  1       -1 0.24933212E-03 0.79027791E+02</pdfrwt>
<totfact> 0.36292614E+05</totfact>
</mgrwt>
</event>
<event>
 8    1  0.2389776E-024  0.8238663E+02  0.7818608E-02  0.1322412E+00
          2   -1    0    0  501    0  0.00000000000E+00  0.00000000000E+00  0.27791522128E+03  0.27791522130E+03  0.25500000000E-02 0. -1.
         -1   -1    0    0    0  501 -0.00000000000E+00 -0.00000000000E+00 -0.61057786924E+01  0.61057807725E+01  0.50400000000E-02 0.  1.
         24    2    1    2    0    0  0.00000000000E+00 -0.71054273576E-14  0.27180944259E+03  0.28402100207E+03  0.82386628368E+02 0.  0.
         66    2    3    3    0    0  0.89508379975E+01 -0.34583158281E+02  0.20653222011E+03  0.20960837359E+03  0.19999999231E+01 0.  0.
        -13    1    3    3    0    0 -0.89508379975E+01  0.34583158281E+02  0.65277222484E+02  0.74412628477E+02  0.10566000000E+00 0.  1.
         13    1    4    4    0    0  0.30616279000E+01 -0.93330409649E+01  0.57144840461E+02  0.57982955896E+02  0.10566000000E+00 0. -1.
        -13    1    4    4    0    0  0.12891110866E+01 -0.51210116196E+01  0.27812282315E+02  0.28309376168E+02  0.10566000000E+00 0.  1.
         14    1    4    4    0    0  0.46000990109E+01 -0.20129105696E+02  0.12157509733E+03  0.12331604153E+03  0.00000000000E+00 0. -1.
<mgrwt>
<rscale>  0 0.82386628E+02</rscale>
<asrwt>0</asrwt>
<pdfrwt beam="1">  1        2 0.42756187E-01 0.82386628E+02</pdfrwt>
<pdfrwt beam="2">  1       -1 0.93935074E-03 0.82386628E+02</pdfrwt>
<totfact> 0.22954022E+05</totfact>
</mgrwt>
</event>
<event>
 8    1  0.2389776E-024  0.8007253E+02  0.7818608E-02  0.1328846E+00
         -1   -1    0    0    0  501 -0.00000000000E+00  0.00000000000E+00  0.97482714412E+00  0.97484017280E+00  0.50400000000E-02 0.  1.
          2   -1    0    0  501    0  0.00000000000E+00 -0.00000000000E+00 -0.16442832299E+04  0.16442832299E+04  0.25500000000E-02 0. -1.
         24    2    1    2    0    0 -0.17763568394E-14  0.00000000000E+00 -0.16433084028E+04  0.16452580701E+04  0.80072533231E+02 0.  0.
         66    2    3    3    0    0 -0.14577701861E+02 -0.11110689816E+02 -0.15529435563E+04  0.15530530081E+04  0.20000024040E+01 0.  0.
        -13    1    3    3    0    0  0.14577701861E+02  0.11110689816E+02 -0.90364846429E+02  0.92205061975E+02  0.10566000000E+00 0.  1.
         13    1    4    4    0    0 -0.62368295877E+01 -0.54400974680E+01 -0.69205007766E+03  0.69209956932E+03  0.10566000000E+00 0. -1.
        -13    1    4    4    0    0 -0.18322064684E+01 -0.12002496513E+01 -0.23287329525E+03  0.23288361982E+03  0.10566000000E+00 0.  1.
         14    1    4    4    0    0 -0.65086658046E+01 -0.44703426962E+01 -0.62802018342E+03  0.62806981895E+03  0.00000000000E+00 0. -1.
<mgrwt>
<rscale>  0 0.80072533E+02</rscale>
<asrwt>0</asrwt>
<pdfrwt beam="1">  1        2 0.25296443E+00 0.80072533E+02</pdfrwt>
<pdfrwt beam="2">  1       -1 0.14997573E-03 0.80072533E+02</pdfrwt>
<totfact> 0.31839853E+05</totfact>
</mgrwt>
</event>
<event>
 8    1  0.2389776E-024  0.8110299E+02  0.7818608E-02  0.1325950E+00
         -1   -1    0    0    0  501 -0.00000000000E+00  0.00000000000E+00  0.13218564680E+02  0.13218565640E+02  0.50400000000E-02 0.  1.
          2   -1    0    0  501    0  0.00000000000E+00 -0.00000000000E+00 -0.12440257676E+03  0.12440257678E+03  0.25500000000E-02 0. -1.
         24    2    1    2    0    0  0.35527136788E-14  0.00000000000E+00 -0.11118401208E+03  0.13762114242E+03  0.81102985767E+02 0.  0.
         66    2    3    3    0    0 -0.19031898070E+02  0.35109291594E+02 -0.43925552272E+02  0.59399744585E+02  0.20000034848E+01 0.  0.
        -13    1    3    3    0    0  0.19031898070E+02 -0.35109291594E+02 -0.67258459804E+02  0.78221397838E+02  0.10566000000E+00 0.  1.
         13    1    4    4    0    0 -0.51260762479E+01  0.96155607167E+01 -0.11638225999E+02  0.15943498175E+02  0.10566000000E+00 0. -1.
        -13    1    4    4    0    0 -0.73456523282E+01  0.14893277891E+02 -0.19079964683E+02  0.25294753425E+02  0.10566000000E+00 0.  1.
        -14    1    4    4    0    0 -0.65601694943E+01  0.10600452987E+02 -0.13207361589E+02  0.18161492986E+02  0.00000000000E+00 0.  1.
<mgrwt>
<rscale>  0 0.81102986E+02</rscale>
<asrwt>0</asrwt>
<pdfrwt beam="1">  1        2 0.19138857E-01 0.81102986E+02</pdfrwt>
<pdfrwt beam="2">  1       -1 0.20336255E-02 0.81102986E+02</pdfrwt>
<totfact> 0.18213274E+05</totfact>
</mgrwt>
</event>
<event>
 8    1  0.2389776E-024  0.7876702E+02  0.7818608E-02  0.1332587E+00
         -1   -1    0    0    0  501 -0.00000000000E+00  0.00000000000E+00  0.15956166099E+02  0.15956166895E+02  0.50400000000E-02 0.  1.
          2   -1    0    0  501    0  0.00000000000E+00 -0.00000000000E+00 -0.97207606782E+02  0.97207606816E+02  0.25500000000E-02 0. -1.
         24    2    1    2    0    0  0.00000000000E+00  0.00000000000E+00 -0.81251440683E+02  0.11316377371E+03  0.78767017637E+02 0.  0.
         66    2    3    3    0    0 -0.36027173733E+02 -0.68827172724E+00 -0.63396271437E+02  0.72948736747E+02  0.19999989372E+01 0.  0.
        -13    1    3    3    0    0  0.36027173733E+02  0.68827172724E+00 -0.17855169246E+02  0.40215036964E+02  0.10566000000E+00 0.  1.
         13    1    4    4    0    0 -0.21321226983E+02 -0.15762505547E+00 -0.37115832624E+02  0.42804389507E+02  0.10566000000E+00 0. -1.
        -13    1    4    4    0    0 -0.64984501896E+00 -0.25460021812E+00 -0.13248371393E+01  0.15011586529E+01  0.10566000000E+00 0. -1.
         14    1    4    4    0    0 -0.14056101732E+02 -0.27604645365E+00 -0.24955601674E+02  0.28643188587E+02  0.00000000000E+00 0. -1.
<mgrwt>
<rscale>  0 0.78767018E+02</rscale>
<asrwt>0</asrwt>
<pdfrwt beam="1">  1        2 0.14955016E-01 0.78767018E+02</pdfrwt>
<pdfrwt beam="2">  1       -1 0.24547949E-02 0.78767018E+02</pdfrwt>
<totfact> 0.18333687E+05</totfact>
</mgrwt>
</event>
<event>
 8    1  0.2389776E-024  0.7957428E+02  0.7818608E-02  0.1330264E+00
         -1   -1    0    0    0  501 -0.00000000000E+00  0.00000000000E+00  0.15508918351E+02  0.15508919170E+02  0.50400000000E-02 0.  1.
          2   -1    0    0  501    0  0.00000000000E+00 -0.00000000000E+00 -0.10207137009E+03  0.10207137012E+03  0.25500000000E-02 0. -1.
         24    2    1    2    0    0 -0.35527136788E-14  0.44408920985E-15 -0.86562451736E+02  0.11758028929E+03  0.79574282145E+02 0.  0.
         66    2    3    3    0    0 -0.30609228600E+02  0.24368683580E+01 -0.80635453052E+02  0.86307238906E+02  0.19999989516E+01 0.  0.
        -13    1    3    3    0    0  0.30609228600E+02 -0.24368683580E+01 -0.59269986837E+01  0.31273050383E+02  0.10566000000E+00 0.  1.
         13    1    4    4    0    0 -0.13881020209E+02  0.54035619279E+00 -0.36523322923E+02  0.39076066693E+02  0.10566000000E+00 0. -1.
        -13    1    4    4    0    0 -0.14717005332E+01  0.31123469946E+00 -0.31787255764E+01  0.35182708570E+01  0.10566000000E+00 0.  1.
         14    1    4    4    0    0 -0.15256507858E+02  0.15852774657E+01 -0.40933404553E+02  0.43712901356E+02  0.00000000000E+00 0. -1.
<mgrwt>
<rscale>  0 0.79574282E+02</rscale>
<asrwt>0</asrwt>
<pdfrwt beam="1">  1        2 0.15703287E-01 0.79574282E+02</pdfrwt>
<pdfrwt beam="2">  1       -1 0.23859876E-02 0.79574282E+02</pdfrwt>
<totfact> 0.18084697E+05</totfact>
</mgrwt>
</event>
<event>
 8    1  0.2389776E-024  0.7911840E+02  0.7818608E-02  0.1331572E+00
          2   -1    0    0  501    0  0.00000000000E+00  0.00000000000E+00  0.71735831522E+03  0.71735831522E+03  0.25500000000E-02 0. -1.
         -1   -1    0    0    0  501 -0.00000000000E+00 -0.00000000000E+00 -0.21815151817E+01  0.21815210037E+01  0.50400000000E-02 0.  1.
         24    2    1    2    0    0  0.00000000000E+00  0.35527136788E-14  0.71517680004E+03  0.71953983623E+03  0.79118396131E+02 0.  0.
         66    2    3    3    0    0 -0.10219404191E+02 -0.28334894280E+02  0.59068134733E+03  0.59145224368E+03  0.20000035084E+01 0.  0.
        -13    1    3    3    0    0  0.10219404191E+02  0.28334894280E+02  0.12449545271E+03  0.12808759255E+03  0.10566000000E+00 0.  1.
         13    1    4    4    0    0 -0.32603167864E+01 -0.88270874823E+01  0.19676480175E+03  0.19698970915E+03  0.10566000000E+00 0. -1.
        -13    1    4    4    0    0 -0.34623225654E+01 -0.10259457967E+02  0.19504000099E+03  0.19534036272E+03  0.10566000000E+00 0.  1.
        -14    1    4    4    0    0 -0.34967648391E+01 -0.92483488306E+01  0.19887654458E+03  0.19912217181E+03  0.00000000000E+00 0.  1.
<mgrwt>
<rscale>  0 0.79118396E+02</rscale>
<asrwt>0</asrwt>
<pdfrwt beam="1">  1        2 0.11036289E+00 0.79118396E+02</pdfrwt>
<pdfrwt beam="2">  1       -1 0.33561794E-03 0.79118396E+02</pdfrwt>
<totfact> 0.34618257E+05</totfact>
</mgrwt>
</event>
<event>
 8    1  0.2389776E-024  0.7244608E+02  0.7818608E-02  0.1351967E+00
          2   -1    0    0  501    0  0.00000000000E+00  0.00000000000E+00  0.27550534715E+03  0.27550534716E+03  0.25500000000E-02 0. -1.
         -1   -1    0    0    0  501 -0.00000000000E+00 -0.00000000000E+00 -0.47625507890E+01  0.47625534559E+01  0.50400000000E-02 0.  1.
         24    2    1    2    0    0  0.00000000000E+00  0.00000000000E+00  0.27074279636E+03  0.28026790061E+03  0.72446078812E+02 0.  0.
         66    2    3    3    0    0  0.24827092187E+02  0.22728090951E+02  0.18696546765E+03  0.18998167467E+03  0.19999986490E+01 0.  0.
        -13    1    3    3    0    0 -0.24827092187E+02 -0.22728090951E+02  0.83777328711E+02  0.90286225941E+02  0.10566000000E+00 0.  1.
         13    1    4    4    0    0  0.14432398712E+02  0.13333996017E+02  0.10682806078E+03  0.10862014231E+03  0.10566000000E+00 0. -1.
        -13    1    4    4    0    0  0.45857563094E+01  0.39992548611E+01  0.38136563355E+02  0.38619060436E+02  0.10566000000E+00 0.  1.
         14    1    4    4    0    0  0.58089371656E+01  0.53948400730E+01  0.42000843514E+02  0.42742471925E+02  0.00000000000E+00 0. -1.
<mgrwt>
<rscale>  0 0.72446079E+02</rscale>
<asrwt>0</asrwt>
<pdfrwt beam="1">  1        2 0.42385451E-01 0.72446079E+02</pdfrwt>
<pdfrwt beam="2">  1       -1 0.73270011E-03 0.72446079E+02</pdfrwt>
<totfact> 0.32025090E+05</totfact>
</mgrwt>
</event>
