<event>
 8    1  0.1319619E-020  0.7839128E+02  0.7818608E-02  0.1333680E+00
         -2   -1    0    0    0  501 -0.00000000000E+00  0.00000000000E+00  0.81350254217E+01  0.81350258214E+01  0.25500000000E-02 0.  1.
          1   -1    0    0  501    0  0.00000000000E+00 -0.00000000000E+00 -0.18884981300E+03  0.18884981307E+03  0.50400000000E-02 0. -1.
        -24    2    1    2    0    0  0.00000000000E+00  0.00000000000E+00 -0.18071478758E+03  0.19698483889E+03  0.78391276954E+02 0.  0.
         66    2    3    3    0    0  0.17289426695E+02  0.35123105465E+02 -0.87104877600E+02  0.95518671014E+02  0.19999994208E+01 0.  0.
         13    1    3    3    0    0 -0.17289426695E+02 -0.35123105465E+02 -0.93609909978E+02  0.10146616787E+03  0.10566000000E+00 0. -1.
         13    1    4    4    0    0  0.35682055841E+01  0.72961023649E+01 -0.18745731845E+02  0.20429851376E+02  0.10566000000E+00 0. -1.
        -13    1    4    4    0    0  0.23450851061E+01  0.53162952070E+01 -0.14276757590E+02  0.15414259314E+02  0.10566000000E+00 0.  1.
        -14    1    4    4    0    0  0.11376136005E+02  0.22510707893E+02 -0.54082388165E+02  0.59674560324E+02  0.00000000000E+00 0.  1.
<mgrwt>
<rscale>  0 0.78391277E+02</rscale>
<asrwt>0</asrwt>
<pdfrwt beam="1">  1        1 0.29053814E-01 0.78391277E+02</pdfrwt>
<pdfrwt beam="2">  1       -2 0.12515425E-02 0.78391277E+02</pdfrwt>
<totfact> 0.17403660E+05</totfact>
</mgrwt>
</event>
<event>
 8    1  0.1319619E-020  0.8041272E+02  0.7818608E-02  0.1327884E+00
         -2   -1    0    0    0  501 -0.00000000000E+00  0.00000000000E+00  0.56408799183E+03  0.56408799183E+03  0.25500000000E-02 0.  1.
          1   -1    0    0  501    0  0.00000000000E+00 -0.00000000000E+00 -0.28657762328E+01  0.28657806647E+01  0.50400000000E-02 0. -1.
        -24    2    1    2    0    0 -0.17763568394E-14  0.00000000000E+00  0.56122221559E+03  0.56695377250E+03  0.80412715865E+02 0.  0.
         66    2    3    3    0    0 -0.92401028052E+01 -0.17085912532E+02  0.52878302409E+03  0.52914345358E+03  0.19999995436E+01 0.  0.
         13    1    3    3    0    0  0.92401028052E+01  0.17085912532E+02  0.32439191508E+02  0.37810318917E+02  0.10566000000E+00 0. -1.
         13    1    4    4    0    0 -0.33653895656E+00 -0.60648809305E+00  0.15512104185E+02  0.15527962730E+02  0.10566000000E+00 0. -1.
        -13    1    4    4    0    0 -0.39176483047E+01 -0.55205164356E+01  0.18658680027E+03  0.18670958537E+03  0.10566000000E+00 0.  1.
        -14    1    4    4    0    0 -0.49859155439E+01 -0.10958908003E+02  0.32668411964E+03  0.32690590549E+03  0.00000000000E+00 0.  1.
<mgrwt>
<rscale>  0 0.80412716E+02</rscale>
<asrwt>0</asrwt>
<pdfrwt beam="1">  1        1 0.44088891E-03 0.80412716E+02</pdfrwt>
<pdfrwt beam="2">  1       -2 0.86782784E-01 0.80412716E+02</pdfrwt>
<totfact> 0.45174170E+04</totfact>
</mgrwt>
</event>
<event>
 8    1  0.1319619E-020  0.8272143E+02  0.7818608E-02  0.1321501E+00
         -2   -1    0    0    0  501 -0.00000000000E+00  0.00000000000E+00  0.10093082237E+02  0.10093082559E+02  0.25500000000E-02 0.  1.
          1   -1    0    0  501    0  0.00000000000E+00 -0.00000000000E+00 -0.16949317783E+03  0.16949317790E+03  0.50400000000E-02 0. -1.
        -24    2    1    2    0    0  0.35527136788E-14  0.35527136788E-14 -0.15940009559E+03  0.17958626046E+03  0.82721426921E+02 0.  0.
         66    2    3    3    0    0 -0.23830484188E+02 -0.26381863701E+02 -0.33959544784E+02  0.49205135831E+02  0.20000003186E+01 0.  0.
         13    1    3    3    0    0  0.23830484188E+02  0.26381863701E+02 -0.12544055081E+03  0.13038112463E+03  0.10566000000E+00 0. -1.
         13    1    4    4    0    0 -0.15081029080E+02 -0.15655193305E+02 -0.20608304395E+02  0.29953896067E+02  0.10566000000E+00 0. -1.
        -13    1    4    4    0    0 -0.19796275271E+01 -0.25567793943E+01 -0.36075273663E+01  0.48457676122E+01  0.10566000000E+00 0.  1.
        -14    1    4    4    0    0 -0.67698275807E+01 -0.81698910012E+01 -0.97437130226E+01  0.14405472152E+02  0.00000000000E+00 0.  1.
<mgrwt>
<rscale>  0 0.82721427E+02</rscale>
<asrwt>0</asrwt>
<pdfrwt beam="1">  1        1 0.26075871E-01 0.82721427E+02</pdfrwt>
<pdfrwt beam="2">  1       -2 0.15527820E-02 0.82721427E+02</pdfrwt>
<totfact> 0.14772727E+05</totfact>
</mgrwt>
</event>
<event>
 8    1  0.1319619E-020  0.7968918E+02  0.7818608E-02  0.1329936E+00
         -2   -1    0    0    0  501 -0.00000000000E+00  0.00000000000E+00  0.30503135997E+01  0.30503146655E+01  0.25500000000E-02 0.  1.
          1   -1    0    0  501    0  0.00000000000E+00 -0.00000000000E+00 -0.52046814837E+03  0.52046814840E+03  0.50400000000E-02 0. -1.
        -24    2    1    2    0    0  0.00000000000E+00  0.00000000000E+00 -0.51741783477E+03  0.52351846306E+03  0.79689180108E+02 0.  0.
         66    2    3    3    0    0  0.36270491721E+02 -0.15853506446E+02 -0.28728342921E+03  0.29000457049E+03  0.19999925894E+01 0.  0.
         13    1    3    3    0    0 -0.36270491721E+02  0.15853506446E+02 -0.23013440557E+03  0.23351389258E+03  0.10566000000E+00 0. -1.
         13    1    4    4    0    0  0.24403004137E+02 -0.10357042449E+02 -0.19824326777E+03  0.20000794814E+03  0.10566000000E+00 0. -1.
        -13    1    4    4    0    0  0.38179850349E+01 -0.16621695920E+01 -0.29452185428E+02  0.29745288837E+02  0.10566000000E+00 0.  1.
         14    1    4    4    0    0  0.80495025490E+01 -0.38342944052E+01 -0.59587976007E+02  0.60251333508E+02  0.00000000000E+00 0. -1.
<mgrwt>
<rscale>  0 0.79689180E+02</rscale>
<asrwt>0</asrwt>
<pdfrwt beam="1">  1        1 0.80071953E-01 0.79689180E+02</pdfrwt>
<pdfrwt beam="2">  1       -2 0.46927951E-03 0.79689180E+02</pdfrwt>
<totfact> 0.19899092E+05</totfact>
</mgrwt>
</event>
<event>
 8    1  0.1319619E-020  0.7916810E+02  0.7818608E-02  0.1331429E+00
          1   -1    0    0  501    0  0.00000000000E+00  0.00000000000E+00  0.14588059632E+03  0.14588059641E+03  0.50400000000E-02 0. -1.
         -2   -1    0    0    0  501 -0.00000000000E+00 -0.00000000000E+00 -0.10740955323E+02  0.10740955626E+02  0.25500000000E-02 0.  1.
        -24    2    1    2    0    0  0.00000000000E+00  0.00000000000E+00  0.13513964100E+03  0.15662155204E+03  0.79168099590E+02 0.  0.
         66    2    3    3    0    0 -0.86032990473E+01  0.33744419825E+02  0.30485857443E+02  0.46325912047E+02  0.19999997833E+01 0.  0.
         13    1    3    3    0    0  0.86032990473E+01 -0.33744419825E+02  0.10465378356E+03  0.11029563999E+03  0.10566000000E+00 0. -1.
         13    1    4    4    0    0 -0.32231248703E+01  0.15088617572E+02  0.12717676500E+02  0.19995133752E+02  0.10566000000E+00 0. -1.
        -13    1    4    4    0    0 -0.15307152620E+01  0.55697234023E+01  0.48306953902E+01  0.75307164321E+01  0.10566000000E+00 0.  1.
         14    1    4    4    0    0 -0.38494589150E+01  0.13086078850E+02  0.12937485553E+02  0.18800061863E+02  0.00000000000E+00 0. -1.
<mgrwt>
<rscale>  0 0.79168100E+02</rscale>
<asrwt>0</asrwt>
<pdfrwt beam="1">  1        1 0.22443169E-01 0.79168100E+02</pdfrwt>
<pdfrwt beam="2">  1       -2 0.16524546E-02 0.79168100E+02</pdfrwt>
<totfact> 0.16152710E+05</totfact>
</mgrwt>
</event>
<event>
 8    1  0.1319619E-020  0.7324951E+02  0.7818608E-02  0.1349379E+00
         -2   -1    0    0    0  501 -0.00000000000E+00  0.00000000000E+00  0.30678312082E+02  0.30678312188E+02  0.25500000000E-02 0.  1.
          1   -1    0    0  501    0  0.00000000000E+00 -0.00000000000E+00 -0.43723809200E+02  0.43723809490E+02  0.50400000000E-02 0. -1.
        -24    2    1    2    0    0  0.00000000000E+00 -0.44408920985E-15 -0.13045497118E+02  0.74402121678E+02  0.73249509999E+02 0.  0.
         66    2    3    3    0    0  0.36536041504E+02  0.21079343996E+01 -0.67360541675E+01  0.37265267334E+02  0.20000018869E+01 0.  0.
         13    1    3    3    0    0 -0.36536041504E+02 -0.21079343996E+01 -0.63094429504E+01  0.37136854344E+02  0.10566000000E+00 0. -1.
         13    1    4    4    0    0  0.10772140604E+02  0.13532656721E+00 -0.20558598823E+01  0.10967910027E+02  0.10566000000E+00 0. -1.
        -13    1    4    4    0    0  0.17267191212E+02  0.69644416452E+00 -0.29088613752E+01  0.17524655927E+02  0.10566000000E+00 0.  1.
         14    1    4    4    0    0  0.84967096877E+01  0.12761636679E+01 -0.17713329101E+01  0.87727013800E+01  0.00000000000E+00 0. -1.
<mgrwt>
<rscale>  0 0.73249510E+02</rscale>
<asrwt>0</asrwt>
<pdfrwt beam="1">  1        1 0.67267399E-02 0.73249510E+02</pdfrwt>
<pdfrwt beam="2">  1       -2 0.47197403E-02 0.73249510E+02</pdfrwt>
<totfact> 0.16455243E+05</totfact>
</mgrwt>
</event>
<event>
 8    1  0.1319619E-020  0.8234029E+02  0.7818608E-02  0.1322538E+00
          1   -1    0    0  501    0  0.00000000000E+00  0.00000000000E+00  0.37924159502E+02  0.37924159837E+02  0.50400000000E-02 0. -1.
         -2   -1    0    0    0  501 -0.00000000000E+00 -0.00000000000E+00 -0.44693960519E+02  0.44693960591E+02  0.25500000000E-02 0.  1.
        -24    2    1    2    0    0 -0.17763568394E-14 -0.35527136788E-14 -0.67698010168E+01  0.82618120428E+02  0.82340291579E+02 0.  0.
         66    2    3    3    0    0 -0.91007050064E+01 -0.28999267897E+02 -0.31214846695E+02  0.43613610529E+02  0.19999997443E+01 0.  0.
         13    1    3    3    0    0  0.91007050064E+01  0.28999267897E+02  0.24445045678E+02  0.39004509899E+02  0.10566000000E+00 0. -1.
         13    1    4    4    0    0 -0.12074812467E+01 -0.22799374985E+01 -0.27018847360E+01  0.37373080045E+01  0.10566000000E+00 0. -1.
        -13    1    4    4    0    0 -0.67931235093E+01 -0.23924925984E+02 -0.25255684132E+02  0.35445865138E+02  0.10566000000E+00 0.  1.
        -14    1    4    4    0    0 -0.11001002504E+01 -0.27944044149E+01 -0.32572778275E+01  0.44304373871E+01  0.00000000000E+00 0.  1.
<mgrwt>
<rscale>  0 0.82340292E+02</rscale>
<asrwt>0</asrwt>
<pdfrwt beam="1">  1        1 0.58344862E-02 0.82340292E+02</pdfrwt>
<pdfrwt beam="2">  1       -2 0.68759939E-02 0.82340292E+02</pdfrwt>
<totfact> 0.11599260E+05</totfact>
</mgrwt>
</event>
<event>
 8    1  0.1319619E-020  0.8000395E+02  0.7818608E-02  0.1329040E+00
         -2   -1    0    0    0  501 -0.00000000000E+00  0.00000000000E+00  0.18636556538E+03  0.18636556540E+03  0.25500000000E-02 0.  1.
          1   -1    0    0  501    0  0.00000000000E+00 -0.00000000000E+00 -0.85861244883E+01  0.85861259675E+01  0.50400000000E-02 0. -1.
        -24    2    1    2    0    0  0.00000000000E+00  0.00000000000E+00  0.17777944089E+03  0.19495169137E+03  0.80003952167E+02 0.  0.
         66    2    3    3    0    0  0.24476550119E+02  0.16407831369E+02  0.15477571667E+03  0.15756852767E+03  0.20000012324E+01 0.  0.
         13    1    3    3    0    0 -0.24476550119E+02 -0.16407831369E+02  0.23003724225E+02  0.37383163700E+02  0.10566000000E+00 0. -1.
         13    1    4    4    0    0  0.87259800245E+01  0.66784695694E+01  0.55207634225E+02  0.56290662849E+02  0.10566000000E+00 0. -1.
        -13    1    4    4    0    0  0.49791503746E+01  0.31196507585E+01  0.33640708884E+02  0.34150148134E+02  0.10566000000E+00 0.  1.
         14    1    4    4    0    0  0.10771419720E+02  0.66097110410E+01  0.65927373559E+02  0.67127716684E+02  0.00000000000E+00 0. -1.
<mgrwt>
<rscale>  0 0.80003952E+02</rscale>
<asrwt>0</asrwt>
<pdfrwt beam="1">  1        1 0.13209423E-02 0.80003952E+02</pdfrwt>
<pdfrwt beam="2">  1       -2 0.28671627E-01 0.80003952E+02</pdfrwt>
<totfact> 0.87473751E+04</totfact>
</mgrwt>
</event>
<event>
 8    1  0.1319619E-020  0.7919365E+02  0.7818608E-02  0.1331355E+00
          1   -1    0    0  501    0  0.00000000000E+00  0.00000000000E+00  0.12005064736E+03  0.12005064746E+03  0.50400000000E-02 0. -1.
         -2   -1    0    0    0  501 -0.00000000000E+00 -0.00000000000E+00 -0.13060392450E+02  0.13060392699E+02  0.25500000000E-02 0.  1.
        -24    2    1    2    0    0 -0.35527136788E-14 -0.44408920985E-15  0.10699025491E+03  0.13311104016E+03  0.79193651057E+02 0.  0.
         66    2    3    3    0    0 -0.28637017384E+02 -0.29036530664E+01  0.78862315242E+01  0.29911579986E+02  0.20000009453E+01 0.  0.
         13    1    3    3    0    0  0.28637017384E+02  0.29036530664E+01  0.99104023383E+02  0.10319946018E+03  0.10566000000E+00 0. -1.
         13    1    4    4    0    0 -0.12629056983E+02 -0.99334766530E+00  0.28044115020E+01  0.12975195866E+02  0.10566000000E+00 0. -1.
        -13    1    4    4    0    0 -0.13363468583E+02 -0.18271374917E+01  0.39164182448E+01  0.14045291734E+02  0.10566000000E+00 0.  1.
        -14    1    4    4    0    0 -0.26444918189E+01 -0.83167909400E-01  0.11654017775E+01  0.28910923860E+01  0.00000000000E+00 0.  1.
<mgrwt>
<rscale>  0 0.79193651E+02</rscale>
<asrwt>0</asrwt>
<pdfrwt beam="1">  1        1 0.18469330E-01 0.79193651E+02</pdfrwt>
<pdfrwt beam="2">  1       -2 0.20092913E-02 0.79193651E+02</pdfrwt>
<totfact> 0.15585938E+05</totfact>
</mgrwt>
</event>
<event>
 8    1  0.1319619E-020  0.7939035E+02  0.7818608E-02  0.1330790E+00
          1   -1    0    0  501    0  0.00000000000E+00  0.00000000000E+00  0.28438926149E+02  0.28438926595E+02  0.50400000000E-02 0. -1.
         -2   -1    0    0    0  501 -0.00000000000E+00 -0.00000000000E+00 -0.55406691247E+02  0.55406691306E+02  0.25500000000E-02 0.  1.
        -24    2    1    2    0    0  0.35527136788E-14 -0.35527136788E-14 -0.26967765098E+02  0.83845617901E+02  0.79390347567E+02 0.  0.
         66    2    3    3    0    0 -0.29987255787E+02  0.17219942538E+02 -0.34024075898E+02  0.48553060374E+02  0.20000000804E+01 0.  0.
         13    1    3    3    0    0  0.29987255787E+02 -0.17219942538E+02  0.70563107997E+01  0.35292557527E+02  0.10566000000E+00 0. -1.
         13    1    4    4    0    0 -0.13485097445E+02  0.79853122425E+01 -0.16553625616E+02  0.22795761662E+02  0.10566000000E+00 0. -1.
        -13    1    4    4    0    0 -0.11438551228E+02  0.60805840689E+01 -0.12271925008E+02  0.17844474333E+02  0.10566000000E+00 0.  1.
         14    1    4    4    0    0 -0.50636071144E+01  0.31540462269E+01 -0.51985252750E+01  0.79128243785E+01  0.00000000000E+00 0. -1.
<mgrwt>
<rscale>  0 0.79390348E+02</rscale>
<asrwt>0</asrwt>
<pdfrwt beam="1">  1        1 0.43752195E-02 0.79390348E+02</pdfrwt>
<pdfrwt beam="2">  1       -2 0.85241064E-02 0.79390348E+02</pdfrwt>
<totfact> 0.12246899E+05</totfact>
</mgrwt>
</event>
<event>
 8    1  0.1319619E-020  0.7886021E+02  0.7818608E-02  0.1332317E+00
          1   -1    0    0  501    0  0.00000000000E+00  0.00000000000E+00  0.12089501819E+02  0.12089502870E+02  0.50400000000E-02 0. -1.
         -2   -1    0    0    0  501 -0.00000000000E+00 -0.00000000000E+00 -0.12860193097E+03  0.12860193100E+03  0.25500000000E-02 0.  1.
        -24    2    1    2    0    0  0.00000000000E+00  0.00000000000E+00 -0.11651242915E+03  0.14069143386E+03  0.78860214408E+02 0.  0.
         66    2    3    3    0    0 -0.27096990419E+02 -0.24167595024E+02 -0.85608298361E+02  0.93011291218E+02  0.20000016705E+01 0.  0.
         13    1    3    3    0    0  0.27096990419E+02  0.24167595024E+02 -0.30904130789E+02  0.47680142647E+02  0.10566000000E+00 0. -1.
         13    1    4    4    0    0 -0.12803778105E+02 -0.12044046450E+02 -0.40471063496E+02  0.44123847670E+02  0.10566000000E+00 0. -1.
        -13    1    4    4    0    0 -0.11353554008E+02 -0.10215603451E+02 -0.36788964853E+02  0.39833413630E+02  0.10566000000E+00 0.  1.
         14    1    4    4    0    0 -0.29396583050E+01 -0.19079451235E+01 -0.83482700121E+01  0.90540299171E+01  0.00000000000E+00 0. -1.
<mgrwt>
<rscale>  0 0.78860214E+02</rscale>
<asrwt>0</asrwt>
<pdfrwt beam="1">  1        1 0.18599235E-02 0.78860214E+02</pdfrwt>
<pdfrwt beam="2">  1       -2 0.19784911E-01 0.78860214E+02</pdfrwt>
<totfact> 0.10287236E+05</totfact>
</mgrwt>
</event>
<event>
 8    1  0.1319619E-020  0.7877024E+02  0.7818608E-02  0.1332578E+00
         -2   -1    0    0    0  501 -0.00000000000E+00  0.00000000000E+00  0.21750251418E+03  0.21750251419E+03  0.25500000000E-02 0.  1.
          1   -1    0    0  501    0  0.00000000000E+00 -0.00000000000E+00 -0.71318137087E+01  0.71318154896E+01  0.50400000000E-02 0. -1.
        -24    2    1    2    0    0  0.00000000000E+00  0.00000000000E+00  0.21037070047E+03  0.22463432968E+03  0.78770238389E+02 0.  0.
         66    2    3    3    0    0 -0.30679254836E+00  0.37591092953E+02  0.71996153436E+02  0.81244264400E+02  0.19999993087E+01 0.  0.
         13    1    3    3    0    0  0.30679254836E+00 -0.37591092953E+02  0.13837454703E+03  0.14339006528E+03  0.10566000000E+00 0. -1.
         13    1    4    4    0    0  0.34364775367E+00  0.15901945530E+02  0.31459938535E+02  0.35252359667E+02  0.10566000000E+00 0. -1.
        -13    1    4    4    0    0 -0.23779700673E+00  0.18125798666E+02  0.34400652993E+02  0.38884665552E+02  0.10566000000E+00 0.  1.
         14    1    4    4    0    0 -0.41264329530E+00  0.35633487566E+01  0.61355619081E+01  0.71072391812E+01  0.00000000000E+00 0. -1.
<mgrwt>
<rscale>  0 0.78770238E+02</rscale>
<asrwt>0</asrwt>
<pdfrwt beam="1">  1        1 0.10972021E-02 0.78770238E+02</pdfrwt>
<pdfrwt beam="2">  1       -2 0.33461930E-01 0.78770238E+02</pdfrwt>
<totfact> 0.85491653E+04</totfact>
</mgrwt>
</event>
<event>
 8    1  0.1319619E-020  0.7685418E+02  0.7818608E-02  0.1338224E+00
         -2   -1    0    0    0  501 -0.00000000000E+00  0.00000000000E+00  0.47548016040E+02  0.47548016108E+02  0.25500000000E-02 0.  1.
          1   -1    0    0  501    0  0.00000000000E+00 -0.00000000000E+00 -0.31055790587E+02  0.31055790996E+02  0.50400000000E-02 0. -1.
        -24    2    1    2    0    0  0.71054273576E-14  0.00000000000E+00  0.16492225453E+02  0.78603807104E+02  0.76854180048E+02 0.  0.
         66    2    3    3    0    0 -0.37585339588E+02  0.32741631940E+01  0.92919153712E+00  0.37792079803E+02  0.20000006037E+01 0.  0.
         13    1    3    3    0    0  0.37585339588E+02 -0.32741631940E+01  0.15563033916E+02  0.40811727300E+02  0.10566000000E+00 0. -1.
         13    1    4    4    0    0 -0.13295666315E+01  0.12561350200E+00  0.24295732656E+00  0.13615133042E+01  0.10566000000E+00 0. -1.
        -13    1    4    4    0    0 -0.16807246689E+02  0.21939080682E+01  0.12891165973E+00  0.16950650610E+02  0.10566000000E+00 0.  1.
         14    1    4    4    0    0 -0.19448526267E+02  0.95464162385E+00  0.55732255084E+00  0.19479915889E+02  0.00000000000E+00 0. -1.
<mgrwt>
<rscale>  0 0.76854180E+02</rscale>
<asrwt>0</asrwt>
<pdfrwt beam="1">  1        1 0.47778140E-02 0.76854180E+02</pdfrwt>
<pdfrwt beam="2">  1       -2 0.73150794E-02 0.76854180E+02</pdfrwt>
<totfact> 0.13645036E+05</totfact>
</mgrwt>
</event>
<event>
 8    1  0.1319619E-020  0.8208247E+02  0.7818608E-02  0.1323243E+00
         -2   -1    0    0    0  501 -0.00000000000E+00  0.00000000000E+00  0.58603824656E+02  0.58603824711E+02  0.25500000000E-02 0.  1.
          1   -1    0    0  501    0  0.00000000000E+00 -0.00000000000E+00 -0.28741862855E+02  0.28741863297E+02  0.50400000000E-02 0. -1.
        -24    2    1    2    0    0  0.35527136788E-14 -0.35527136788E-14  0.29861961801E+02  0.87345688008E+02  0.82082473470E+02 0.  0.
         66    2    3    3    0    0 -0.18929309255E+02 -0.25964198693E+02  0.42068015951E+02  0.52973354881E+02  0.19999996646E+01 0.  0.
         13    1    3    3    0    0  0.18929309255E+02  0.25964198693E+02 -0.12206054150E+02  0.34372333127E+02  0.10566000000E+00 0. -1.
         13    1    4    4    0    0 -0.51325076177E+00 -0.91529266378E+00  0.17615968635E+01  0.20531864381E+01  0.10566000000E+00 0. -1.
        -13    1    4    4    0    0 -0.12040227888E+02 -0.17060874233E+02  0.27782606771E+02  0.34755214289E+02  0.10566000000E+00 0.  1.
         14    1    4    4    0    0 -0.63758306052E+01 -0.79880317960E+01  0.12523812316E+02  0.16164954154E+02  0.00000000000E+00 0. -1.
<mgrwt>
<rscale>  0 0.82082473E+02</rscale>
<asrwt>0</asrwt>
<pdfrwt beam="1">  1        1 0.44218252E-02 0.82082473E+02</pdfrwt>
<pdfrwt beam="2">  1       -2 0.90159729E-02 0.82082473E+02</pdfrwt>
<totfact> 0.11142878E+05</totfact>
</mgrwt>
</event>
<event>
 8    1  0.1319619E-020  0.8104705E+02  0.7818608E-02  0.1326106E+00
          1   -1    0    0  501    0  0.00000000000E+00  0.00000000000E+00  0.13223058956E+02  0.13223059917E+02  0.50400000000E-02 0. -1.
         -2   -1    0    0    0  501 -0.00000000000E+00 -0.00000000000E+00 -0.12418880337E+03  0.12418880339E+03  0.25500000000E-02 0.  1.
        -24    2    1    2    0    0  0.00000000000E+00  0.35527136788E-14 -0.11096574441E+03  0.13741186331E+03  0.81047046496E+02 0.  0.
         66    2    3    3    0    0  0.24803737520E+02 -0.27211640066E+02 -0.84111668954E+02  0.91839379477E+02  0.20000045999E+01 0.  0.
         13    1    3    3    0    0 -0.24803737520E+02  0.27211640066E+02 -0.26854075456E+02  0.45572483833E+02  0.10566000000E+00 0. -1.
         13    1    4    4    0    0  0.91447914291E+01 -0.89586928133E+01 -0.29396425493E+02  0.32063162399E+02  0.10566000000E+00 0. -1.
        -13    1    4    4    0    0  0.83917597475E+01 -0.93816156948E+01 -0.29719051632E+02  0.32274905711E+02  0.10566000000E+00 0.  1.
        -14    1    4    4    0    0  0.72671863430E+01 -0.88713315581E+01 -0.24996191829E+02  0.27501311367E+02  0.00000000000E+00 0.  1.
<mgrwt>
<rscale>  0 0.81047046E+02</rscale>
<asrwt>0</asrwt>
<pdfrwt beam="1">  1        1 0.20343169E-02 0.81047046E+02</pdfrwt>
<pdfrwt beam="2">  1       -2 0.19105969E-01 0.81047046E+02</pdfrwt>
<totfact> 0.96874001E+04</totfact>
</mgrwt>
</event>
<event>
 8    1  0.1319619E-020  0.7940219E+02  0.7818608E-02  0.1330757E+00
          1   -1    0    0  501    0  0.00000000000E+00  0.00000000000E+00  0.18897430763E+02  0.18897431435E+02  0.50400000000E-02 0. -1.
         -2   -1    0    0    0  501 -0.00000000000E+00 -0.00000000000E+00 -0.83406931949E+02  0.83406931988E+02  0.25500000000E-02 0.  1.
        -24    2    1    2    0    0 -0.35527136788E-14  0.00000000000E+00 -0.64509501185E+02  0.10230436342E+03  0.79402185311E+02 0.  0.
         66    2    3    3    0    0 -0.16545823976E+02  0.35866665264E+02 -0.37094281423E+02  0.54223313030E+02  0.19999983554E+01 0.  0.
         13    1    3    3    0    0  0.16545823976E+02 -0.35866665264E+02 -0.27415219763E+02  0.48081050393E+02  0.10566000000E+00 0. -1.
         13    1    4    4    0    0 -0.28473102017E+01  0.51237944816E+01 -0.56588901983E+01  0.81482910838E+01  0.10566000000E+00 0. -1.
        -13    1    4    4    0    0 -0.51909739612E+01  0.13296537563E+02 -0.13124955992E+02  0.19391228833E+02  0.10566000000E+00 0.  1.
        -14    1    4    4    0    0 -0.85075398136E+01  0.17446333219E+02 -0.18310435233E+02  0.26683793113E+02  0.00000000000E+00 0.  1.
<mgrwt>
<rscale>  0 0.79402185E+02</rscale>
<asrwt>0</asrwt>
<pdfrwt beam="1">  1        1 0.29072971E-02 0.79402185E+02</pdfrwt>
<pdfrwt beam="2">  1       -2 0.12831836E-01 0.79402185E+02</pdfrwt>
<totfact> 0.11288456E+05</totfact>
</mgrwt>
</event>
<event>
 8    1  0.1319619E-020  0.8181296E+02  0.7818608E-02  0.1323984E+00
         -2   -1    0    0    0  501 -0.00000000000E+00  0.00000000000E+00  0.22700690260E+01  0.22700704582E+01  0.25500000000E-02 0.  1.
          1   -1    0    0  501    0  0.00000000000E+00 -0.00000000000E+00 -0.73713149301E+03  0.73713149303E+03  0.50400000000E-02 0. -1.
        -24    2    1    2    0    0  0.00000000000E+00  0.17763568394E-14 -0.73486142398E+03  0.73940156349E+03  0.81812955117E+02 0.  0.
         66    2    3    3    0    0 -0.33709920126E+02  0.69612597197E+01 -0.56699558615E+03  0.56804296718E+03  0.19999995281E+01 0.  0.
         13    1    3    3    0    0  0.33709920126E+02 -0.69612597197E+01 -0.16786583783E+03  0.17135859630E+03  0.10566000000E+00 0. -1.
         13    1    4    4    0    0 -0.80020525008E+01  0.15614485504E+01 -0.12975671713E+03  0.13001264465E+03  0.10566000000E+00 0. -1.
        -13    1    4    4    0    0 -0.18091478422E+02  0.36580649712E+01 -0.31908447325E+03  0.31961788946E+03  0.10566000000E+00 0.  1.
        -14    1    4    4    0    0 -0.76163892027E+01  0.17417461981E+01 -0.11815439578E+03  0.11841243307E+03  0.00000000000E+00 0.  1.
<mgrwt>
<rscale>  0 0.81812955E+02</rscale>
<asrwt>0</asrwt>
<pdfrwt beam="1">  1        1 0.11340465E+00 0.81812955E+02</pdfrwt>
<pdfrwt beam="2">  1       -2 0.34924209E-03 0.81812955E+02</pdfrwt>
<totfact> 0.18858024E+05</totfact>
</mgrwt>
</event>
<event>
 8    1  0.1319619E-020  0.7976380E+02  0.7818608E-02  0.1329723E+00
          1   -1    0    0  501    0  0.00000000000E+00  0.00000000000E+00  0.12943430608E+04  0.12943430608E+04  0.50400000000E-02 0. -1.
         -2   -1    0    0    0  501 -0.00000000000E+00 -0.00000000000E+00 -0.12288581813E+01  0.12288608271E+01  0.25500000000E-02 0.  1.
        -24    2    1    2    0    0  0.00000000000E+00  0.00000000000E+00  0.12931142026E+04  0.12955719217E+04  0.79763795797E+02 0.  0.
         66    2    3    3    0    0 -0.47688747434E+01 -0.24891560954E+02  0.11465985587E+04  0.11468803716E+04  0.19999985759E+01 0.  0.
         13    1    3    3    0    0  0.47688747434E+01  0.24891560954E+02  0.14651564393E+03  0.14869155004E+03  0.10566000000E+00 0. -1.
         13    1    4    4    0    0 -0.13546104153E+00 -0.10845694346E+00  0.10113113963E+02  0.10115154506E+02  0.10566000000E+00 0.  1.
        -13    1    4    4    0    0 -0.41591460374E+01 -0.22231067985E+02  0.10268842532E+04  0.10271332920E+04  0.10566000000E+00 0.  1.
         14    1    4    4    0    0 -0.47426766449E+00 -0.25520360254E+01  0.10960119157E+03  0.10963192515E+03  0.00000000000E+00 0. -1.
<mgrwt>
<rscale>  0 0.79763796E+02</rscale>
<asrwt>0</asrwt>
<pdfrwt beam="1">  1        1 0.19912925E+00 0.79763796E+02</pdfrwt>
<pdfrwt beam="2">  1       -2 0.18905574E-03 0.79763796E+02</pdfrwt>
<totfact> 0.17381209E+05</totfact>
</mgrwt>
</event>
<event>
 8    1  0.1319619E-020  0.7737662E+02  0.7818608E-02  0.1336665E+00
         -2   -1    0    0    0  501 -0.00000000000E+00  0.00000000000E+00  0.41717872272E+02  0.41717872350E+02  0.25500000000E-02 0.  1.
          1   -1    0    0  501    0  0.00000000000E+00 -0.00000000000E+00 -0.35878756192E+02  0.35878756546E+02  0.50400000000E-02 0. -1.
        -24    2    1    2    0    0  0.17763568394E-14 -0.35527136788E-14  0.58391160800E+01  0.77596628897E+02  0.77376621402E+02 0.  0.
         66    2    3    3    0    0 -0.14272737479E+02  0.21898551739E+02  0.31489742266E+02  0.40973912024E+02  0.19999987854E+01 0.  0.
         13    1    3    3    0    0  0.14272737479E+02 -0.21898551739E+02 -0.25650626186E+02  0.36622716873E+02  0.10566000000E+00 0. -1.
         13    1    4    4    0    0 -0.21632734430E+00  0.89055618264E+00  0.10589821638E+01  0.14044554436E+01  0.10566000000E+00 0. -1.
        -13    1    4    4    0    0 -0.95740124792E+01  0.14148901064E+02  0.21190202905E+02  0.27219275880E+02  0.10566000000E+00 0.  1.
         14    1    4    4    0    0 -0.44823976553E+01  0.68590944927E+01  0.92405571971E+01  0.12350180700E+02  0.00000000000E+00 0. -1.
<mgrwt>
<rscale>  0 0.77376621E+02</rscale>
<asrwt>0</asrwt>
<pdfrwt beam="1">  1        1 0.55198087E-02 0.77376621E+02</pdfrwt>
<pdfrwt beam="2">  1       -2 0.64181342E-02 0.77376621E+02</pdfrwt>
<totfact> 0.13705584E+05</totfact>
</mgrwt>
</event>
<event>
 8    1  0.1319619E-020  0.7976087E+02  0.7818608E-02  0.1329731E+00
         -2   -1    0    0    0  501 -0.00000000000E+00  0.00000000000E+00  0.10836427903E+02  0.10836428203E+02  0.25500000000E-02 0.  1.
          1   -1    0    0  501    0  0.00000000000E+00 -0.00000000000E+00 -0.14676877219E+03  0.14676877228E+03  0.50400000000E-02 0. -1.
        -24    2    1    2    0    0  0.00000000000E+00  0.00000000000E+00 -0.13593234429E+03  0.15760520048E+03  0.79760873834E+02 0.  0.
         66    2    3    3    0    0 -0.15390497323E+02 -0.33460789463E+02 -0.37914772689E+02  0.52896331010E+02  0.20000017430E+01 0.  0.
         13    1    3    3    0    0  0.15390497323E+02  0.33460789463E+02 -0.98017571602E+02  0.10470886947E+03  0.10566000000E+00 0. -1.
         13    1    4    4    0    0 -0.48714779381E+01 -0.12026489953E+02 -0.13467994331E+02  0.18702026447E+02  0.10566000000E+00 0.  1.
        -13    1    4    4    0    0 -0.32803744405E+01 -0.73652250421E+01 -0.75539659067E+01  0.11049025357E+02  0.10566000000E+00 0.  1.
        -14    1    4    4    0    0 -0.72386449445E+01 -0.14069074468E+02 -0.16892812451E+02  0.23145279206E+02  0.00000000000E+00 0.  1.
<mgrwt>
<rscale>  0 0.79760874E+02</rscale>
<asrwt>0</asrwt>
<pdfrwt beam="1">  1        1 0.22579810E-01 0.79760874E+02</pdfrwt>
<pdfrwt beam="2">  1       -2 0.16671429E-02 0.79760874E+02</pdfrwt>
<totfact> 0.15851605E+05</totfact>
</mgrwt>
</event>
<event>
 8    1  0.1319619E-020  0.8028744E+02  0.7818608E-02  0.1328238E+00
          1   -1    0    0  501    0  0.00000000000E+00  0.00000000000E+00  0.15138377009E+03  0.15138377017E+03  0.50400000000E-02 0. -1.
         -2   -1    0    0    0  501 -0.00000000000E+00 -0.00000000000E+00 -0.10645250377E+02  0.10645250683E+02  0.25500000000E-02 0.  1.
        -24    2    1    2    0    0 -0.35527136788E-14  0.00000000000E+00  0.14073851971E+03  0.16202902086E+03  0.80287437803E+02 0.  0.
         66    2    3    3    0    0 -0.28777277125E+02  0.89512592017E+01  0.16970687733E+02  0.34644782754E+02  0.20000024855E+01 0.  0.
         13    1    3    3    0    0  0.28777277125E+02 -0.89512592017E+01  0.12376783198E+03  0.12738423810E+03  0.10566000000E+00 0. -1.
         13    1    4    4    0    0 -0.15983158965E+01  0.19264868637E+00  0.66878674211E+00  0.17464727204E+01  0.10566000000E+00 0. -1.
        -13    1    4    4    0    0 -0.16025469207E+02  0.55774821575E+01  0.92916495330E+01  0.19346056073E+02  0.10566000000E+00 0.  1.
         14    1    4    4    0    0 -0.11153492021E+02  0.31811283578E+01  0.70102514576E+01  0.13552253960E+02  0.00000000000E+00 0. -1.
<mgrwt>
<rscale>  0 0.80287438E+02</rscale>
<asrwt>0</asrwt>
<pdfrwt beam="1">  1        1 0.23289811E-01 0.80287438E+02</pdfrwt>
<pdfrwt beam="2">  1       -2 0.16377308E-02 0.80287438E+02</pdfrwt>
<totfact> 0.15664405E+05</totfact>
</mgrwt>
</event>
<event>
 8    1  0.1319619E-020  0.8000675E+02  0.7818608E-02  0.1329032E+00
          1   -1    0    0  501    0  0.00000000000E+00  0.00000000000E+00  0.20758529606E+02  0.20758530218E+02  0.50400000000E-02 0. -1.
         -2   -1    0    0    0  501 -0.00000000000E+00 -0.00000000000E+00 -0.77089748249E+02  0.77089748291E+02  0.25500000000E-02 0.  1.
        -24    2    1    2    0    0  0.00000000000E+00  0.00000000000E+00 -0.56331218643E+02  0.97848278509E+02  0.80006746049E+02 0.  0.
         66    2    3    3    0    0 -0.11411644677E+02 -0.24118077057E+02 -0.64594032024E+02  0.69916351898E+02  0.20000035955E+01 0.  0.
         13    1    3    3    0    0  0.11411644677E+02  0.24118077057E+02  0.82628133816E+01  0.27931926611E+02  0.10566000000E+00 0. -1.
         13    1    4    4    0    0 -0.22402072156E+01 -0.62552589468E+01 -0.15855939168E+02  0.17192113418E+02  0.10566000000E+00 0. -1.
        -13    1    4    4    0    0 -0.63883249841E+01 -0.12970869680E+02 -0.33913324148E+02  0.36867043211E+02  0.10566000000E+00 0.  1.
        -14    1    4    4    0    0 -0.27831124776E+01 -0.48919484301E+01 -0.14824768709E+02  0.15857195268E+02  0.00000000000E+00 0.  1.
<mgrwt>
<rscale>  0 0.80006746E+02</rscale>
<asrwt>0</asrwt>
<pdfrwt beam="1">  1        1 0.31936200E-02 0.80006746E+02</pdfrwt>
<pdfrwt beam="2">  1       -2 0.11859961E-01 0.80006746E+02</pdfrwt>
<totfact> 0.11262478E+05</totfact>
</mgrwt>
</event>
<event>
 8    1  0.1319619E-020  0.8267897E+02  0.7818608E-02  0.1321616E+00
         -2   -1    0    0    0  501 -0.00000000000E+00  0.00000000000E+00  0.51218405058E+02  0.51218405122E+02  0.25500000000E-02 0.  1.
          1   -1    0    0  501    0  0.00000000000E+00 -0.00000000000E+00 -0.33365990907E+02  0.33365991288E+02  0.50400000000E-02 0. -1.
        -24    2    1    2    0    0  0.71054273576E-14  0.00000000000E+00  0.17852414151E+02  0.84584396410E+02  0.82678966037E+02 0.  0.
         66    2    3    3    0    0  0.34780475222E+02  0.18779410456E+02 -0.33706935402E+01  0.39720388810E+02  0.19999996296E+01 0.  0.
         13    1    3    3    0    0 -0.34780475222E+02 -0.18779410456E+02  0.21223107691E+02  0.44864007599E+02  0.10566000000E+00 0. -1.
         13    1    4    4    0    0  0.16340619371E+02  0.80272702163E+01 -0.13609218653E+01  0.18256948839E+02  0.10566000000E+00 0. -1.
        -13    1    4    4    0    0  0.21275739274E+01  0.12595445382E+01  0.71701355451E-01  0.24757480445E+01  0.10566000000E+00 0.  1.
         14    1    4    4    0    0  0.16312281924E+02  0.94925957020E+01 -0.20814730303E+01  0.18987691927E+02  0.00000000000E+00 0. -1.
<mgrwt>
<rscale>  0 0.82678966E+02</rscale>
<asrwt>0</asrwt>
<pdfrwt beam="1">  1        1 0.51332294E-02 0.82678966E+02</pdfrwt>
<pdfrwt beam="2">  1       -2 0.78797546E-02 0.82678966E+02</pdfrwt>
<totfact> 0.11212104E+05</totfact>
</mgrwt>
</event>
<event>
 8    1  0.1319619E-020  0.7788218E+02  0.7818608E-02  0.1335171E+00
         -2   -1    0    0    0  501 -0.00000000000E+00  0.00000000000E+00  0.25238558167E+02  0.25238558296E+02  0.25500000000E-02 0.  1.
          1   -1    0    0  501    0  0.00000000000E+00 -0.00000000000E+00 -0.60083014904E+02  0.60083015115E+02  0.50400000000E-02 0. -1.
        -24    2    1    2    0    0  0.00000000000E+00  0.00000000000E+00 -0.34844456737E+02  0.85321573411E+02  0.77882184896E+02 0.  0.
         66    2    3    3    0    0 -0.11421348329E+02 -0.31013540794E+02 -0.39941693988E+02  0.51880881106E+02  0.19999988771E+01 0.  0.
         13    1    3    3    0    0  0.11421348329E+02  0.31013540794E+02  0.50972372510E+01  0.33440692305E+02  0.10566000000E+00 0. -1.
         13    1    4    4    0    0 -0.17406498165E+00 -0.29864684282E+00 -0.28822690737E+00  0.46230654364E+00  0.10566000000E+00 0. -1.
        -13    1    4    4    0    0 -0.90702525140E+01 -0.25623032644E+02 -0.32359210543E+02  0.42260370958E+02  0.10566000000E+00 0.  1.
        -14    1    4    4    0    0 -0.21770308331E+01 -0.50918613072E+01 -0.72942565374E+01  0.91582036041E+01  0.00000000000E+00 0.  1.
<mgrwt>
<rscale>  0 0.77882185E+02</rscale>
<asrwt>0</asrwt>
<pdfrwt beam="1">  1        1 0.92435408E-02 0.77882185E+02</pdfrwt>
<pdfrwt beam="2">  1       -2 0.38828551E-02 0.77882185E+02</pdfrwt>
<totfact> 0.14578420E+05</totfact>
</mgrwt>
</event>
<event>
 8    1  0.1319619E-020  0.8406051E+02  0.7818608E-02  0.1317908E+00
          1   -1    0    0  501    0  0.00000000000E+00  0.00000000000E+00  0.32433130158E+03  0.32433130161E+03  0.50400000000E-02 0. -1.
         -2   -1    0    0    0  501 -0.00000000000E+00 -0.00000000000E+00 -0.54467218462E+01  0.54467224431E+01  0.25500000000E-02 0.  1.
        -24    2    1    2    0    0  0.00000000000E+00  0.00000000000E+00  0.31888457973E+03  0.32977802406E+03  0.84060513693E+02 0.  0.
         66    2    3    3    0    0  0.97381715471E+01  0.39926930988E+02  0.12543386174E+03  0.13201002043E+03  0.20000051127E+01 0.  0.
         13    1    3    3    0    0 -0.97381715471E+01 -0.39926930988E+02  0.19345071799E+03  0.19776800363E+03  0.10566000000E+00 0. -1.
         13    1    4    4    0    0  0.46279718867E+01  0.18783284202E+02  0.58446994339E+02  0.61565349024E+02  0.10566000000E+00 0. -1.
        -13    1    4    4    0    0  0.48731926314E+01  0.18396089911E+02  0.59217414210E+02  0.62200300965E+02  0.10566000000E+00 0.  1.
         14    1    4    4    0    0  0.23700702904E+00  0.27475568756E+01  0.77694531918E+01  0.82443704439E+01  0.00000000000E+00 0. -1.
<mgrwt>
<rscale>  0 0.84060514E+02</rscale>
<asrwt>0</asrwt>
<pdfrwt beam="1">  1        1 0.49897108E-01 0.84060514E+02</pdfrwt>
<pdfrwt beam="2">  1       -2 0.83795751E-03 0.84060514E+02</pdfrwt>
<totfact> 0.16064570E+05</totfact>
</mgrwt>
</event>
<event>
 8    1  0.1319619E-020  0.8021366E+02  0.7818608E-02  0.1328446E+00
         -2   -1    0    0    0  501 -0.00000000000E+00  0.00000000000E+00  0.32373019395E+03  0.32373019396E+03  0.25500000000E-02 0.  1.
          1   -1    0    0  501    0  0.00000000000E+00 -0.00000000000E+00 -0.49688208737E+01  0.49688234298E+01  0.50400000000E-02 0. -1.
        -24    2    1    2    0    0  0.35527136788E-14 -0.35527136788E-14  0.31876137308E+03  0.32869901739E+03  0.80213658859E+02 0.  0.
         66    2    3    3    0    0  0.30970471531E+02 -0.24794400796E+02  0.18288373682E+03  0.18714805266E+03  0.20000007349E+01 0.  0.
         13    1    3    3    0    0 -0.30970471531E+02  0.24794400796E+02  0.13587763625E+03  0.14155096473E+03  0.10566000000E+00 0. -1.
         13    1    4    4    0    0  0.61435027369E+01 -0.44525660365E+01  0.37057058094E+02  0.37825979020E+02  0.10566000000E+00 0.  1.
        -13    1    4    4    0    0  0.17641663474E+02 -0.15105405498E+02  0.10449401628E+03  0.10704397306E+03  0.10566000000E+00 0. -1.
        -14    1    4    4    0    0  0.71853053200E+01 -0.52364292612E+01  0.41332662447E+02  0.42278100583E+02  0.00000000000E+00 0.  1.
<mgrwt>
<rscale>  0 0.80213659E+02</rscale>
<asrwt>0</asrwt>
<pdfrwt beam="1">  1        1 0.76443409E-03 0.80213659E+02</pdfrwt>
<pdfrwt beam="2">  1       -2 0.49804651E-01 0.80213659E+02</pdfrwt>
<totfact> 0.66880741E+04</totfact>
</mgrwt>
</event>
<event>
 8    1  0.1319619E-020  0.7961794E+02  0.7818608E-02  0.1330139E+00
          1   -1    0    0  501    0  0.00000000000E+00  0.00000000000E+00  0.14868876511E+02  0.14868877365E+02  0.50400000000E-02 0. -1.
         -2   -1    0    0    0  501 -0.00000000000E+00 -0.00000000000E+00 -0.10658195397E+03  0.10658195400E+03  0.25500000000E-02 0.  1.
        -24    2    1    2    0    0  0.00000000000E+00  0.71054273576E-14 -0.91713077459E+02  0.12145083137E+03  0.79617936813E+02 0.  0.
         66    2    3    3    0    0  0.92666411378E+01 -0.23115058907E+02 -0.93212100314E+02  0.96502187719E+02  0.20000008501E+01 0.  0.
         13    1    3    3    0    0 -0.92666411378E+01  0.23115058907E+02  0.14990228546E+01  0.24948643646E+02  0.10566000000E+00 0. -1.
         13    1    4    4    0    0  0.39383531392E+01 -0.11620459603E+02 -0.46338927015E+02  0.47935926275E+02  0.10566000000E+00 0.  1.
        -13    1    4    4    0    0  0.68954227764E+00 -0.16963179261E+01 -0.55779038128E+01  0.58717236004E+01  0.10566000000E+00 0. -1.
        -14    1    4    4    0    0  0.46387457210E+01 -0.97982813779E+01 -0.41295269485E+02  0.42694537844E+02  0.00000000000E+00 0.  1.
<mgrwt>
<rscale>  0 0.79617937E+02</rscale>
<asrwt>0</asrwt>
<pdfrwt beam="1">  1        1 0.22875196E-02 0.79617937E+02</pdfrwt>
<pdfrwt beam="2">  1       -2 0.16397223E-01 0.79617937E+02</pdfrwt>
<totfact> 0.10571542E+05</totfact>
</mgrwt>
</event>
<event>
 8    1  0.1319619E-020  0.8281664E+02  0.7818608E-02  0.1321243E+00
         -2   -1    0    0    0  501 -0.00000000000E+00  0.00000000000E+00  0.55212818742E+01  0.55212824630E+01  0.25500000000E-02 0.  1.
          1   -1    0    0  501    0  0.00000000000E+00 -0.00000000000E+00 -0.31055270878E+03  0.31055270882E+03  0.50400000000E-02 0. -1.
        -24    2    1    2    0    0  0.00000000000E+00  0.00000000000E+00 -0.30503142690E+03  0.31607399128E+03  0.82816644256E+02 0.  0.
         66    2    3    3    0    0  0.21750444524E+02 -0.33974949349E+02 -0.11736271454E+03  0.12411843449E+03  0.19999987310E+01 0.  0.
         13    1    3    3    0    0 -0.21750444524E+02  0.33974949349E+02 -0.18766871236E+03  0.19195555680E+03  0.10566000000E+00 0. -1.
         13    1    4    4    0    0  0.16449619960E+01 -0.27748606157E+01 -0.10749513874E+02  0.11223589620E+02  0.10566000000E+00 0. -1.
        -13    1    4    4    0    0  0.12085200081E+02 -0.19580744420E+02 -0.66912854877E+02  0.70758737445E+02  0.10566000000E+00 0.  1.
        -14    1    4    4    0    0  0.80202824474E+01 -0.11619344313E+02 -0.39700345788E+02  0.42136107420E+02  0.00000000000E+00 0.  1.
<mgrwt>
<rscale>  0 0.82816644E+02</rscale>
<asrwt>0</asrwt>
<pdfrwt beam="1">  1        1 0.47777326E-01 0.82816644E+02</pdfrwt>
<pdfrwt beam="2">  1       -2 0.84942827E-03 0.82816644E+02</pdfrwt>
<totfact> 0.16574792E+05</totfact>
</mgrwt>
</event>
<event>
 8    1  0.1319619E-020  0.8138127E+02  0.7818608E-02  0.1325177E+00
         -2   -1    0    0    0  501 -0.00000000000E+00  0.00000000000E+00  0.79886506732E+01  0.79886510801E+01  0.25500000000E-02 0.  1.
          1   -1    0    0  501    0  0.00000000000E+00 -0.00000000000E+00 -0.20726000314E+03  0.20726000320E+03  0.50400000000E-02 0. -1.
        -24    2    1    2    0    0 -0.35527136788E-14  0.00000000000E+00 -0.19927135247E+03  0.21524865428E+03  0.81381270916E+02 0.  0.
         66    2    3    3    0    0  0.28850974501E+02  0.25549225929E+02 -0.65354086621E+02  0.75896629069E+02  0.19999976842E+01 0.  0.
         13    1    3    3    0    0 -0.28850974501E+02 -0.25549225929E+02 -0.13391726585E+03  0.13935202521E+03  0.10566000000E+00 0. -1.
         13    1    4    4    0    0  0.18028315500E+02  0.16321993210E+02 -0.40902025583E+02  0.47585864318E+02  0.10566000000E+00 0.  1.
        -13    1    4    4    0    0  0.54921511417E+00  0.42935343808E+00 -0.81755734834E+00  0.10796044043E+01  0.10566000000E+00 0. -1.
        -14    1    4    4    0    0  0.10273443886E+02  0.87978792811E+01 -0.23634503690E+02  0.27231160346E+02  0.00000000000E+00 0.  1.
<mgrwt>
<rscale>  0 0.81381271E+02</rscale>
<asrwt>0</asrwt>
<pdfrwt beam="1">  1        1 0.31886150E-01 0.81381271E+02</pdfrwt>
<pdfrwt beam="2">  1       -2 0.12290234E-02 0.81381271E+02</pdfrwt>
<totfact> 0.16043672E+05</totfact>
</mgrwt>
</event>
<event>
 8    1  0.1319619E-020  0.8128718E+02  0.7818608E-02  0.1325438E+00
         -2   -1    0    0    0  501 -0.00000000000E+00  0.00000000000E+00  0.45777696187E+02  0.45777696258E+02  0.25500000000E-02 0.  1.
          1   -1    0    0  501    0  0.00000000000E+00 -0.00000000000E+00 -0.36085288083E+02  0.36085288435E+02  0.50400000000E-02 0. -1.
        -24    2    1    2    0    0  0.00000000000E+00 -0.71054273576E-14  0.96924081042E+01  0.81862984693E+02  0.81287179112E+02 0.  0.
         66    2    3    3    0    0 -0.33947664171E+01  0.32135801990E+02  0.29633663198E+02  0.43890639133E+02  0.20000000979E+01 0.  0.
         13    1    3    3    0    0  0.33947664171E+01 -0.32135801990E+02 -0.19941255094E+02  0.37972345560E+02  0.10566000000E+00 0. -1.
         13    1    4    4    0    0 -0.15070309316E+01  0.77954481487E+01  0.66802021261E+01  0.10376724847E+02  0.10566000000E+00 0. -1.
        -13    1    4    4    0    0 -0.94042940011E+00  0.95346407076E+01  0.92275520690E+01  0.13302355509E+02  0.10566000000E+00 0.  1.
         14    1    4    4    0    0 -0.94730608541E+00  0.14805713134E+02  0.13725909003E+02  0.20211558777E+02  0.00000000000E+00 0. -1.
<mgrwt>
<rscale>  0 0.81287179E+02</rscale>
<asrwt>0</asrwt>
<pdfrwt beam="1">  1        1 0.55515829E-02 0.81287179E+02</pdfrwt>
<pdfrwt beam="2">  1       -2 0.70427225E-02 0.81287179E+02</pdfrwt>
<totfact> 0.11930688E+05</totfact>
</mgrwt>
</event>
<event>
 8    1  0.1319619E-020  0.7913253E+02  0.7818608E-02  0.1331531E+00
         -2   -1    0    0    0  501 -0.00000000000E+00  0.00000000000E+00  0.51362964151E+02  0.51362964214E+02  0.25500000000E-02 0.  1.
          1   -1    0    0  501    0  0.00000000000E+00 -0.00000000000E+00 -0.30478953012E+02  0.30478953428E+02  0.50400000000E-02 0. -1.
        -24    2    1    2    0    0  0.00000000000E+00  0.00000000000E+00  0.20884011139E+02  0.81841917643E+02  0.79132531630E+02 0.  0.
         66    2    3    3    0    0  0.33278950253E+02  0.98997073883E+00  0.32510104837E+02  0.46576555165E+02  0.20000006176E+01 0.  0.
         13    1    3    3    0    0 -0.33278950253E+02 -0.98997073883E+00 -0.11626093698E+02  0.35265362478E+02  0.10566000000E+00 0. -1.
         13    1    4    4    0    0  0.23410486890E+01 -0.11573748224E+00  0.28761313529E+01  0.37117650416E+01  0.10566000000E+00 0. -1.
        -13    1    4    4    0    0  0.50478896704E+01 -0.14438424931E+00  0.48446099999E+01  0.69988175446E+01  0.10566000000E+00 0.  1.
         14    1    4    4    0    0  0.25890011893E+02  0.12500924704E+01  0.24789363485E+02  0.35865972578E+02  0.00000000000E+00 0. -1.
<mgrwt>
<rscale>  0 0.79132532E+02</rscale>
<asrwt>0</asrwt>
<pdfrwt beam="1">  1        1 0.46890697E-02 0.79132532E+02</pdfrwt>
<pdfrwt beam="2">  1       -2 0.79019945E-02 0.79132532E+02</pdfrwt>
<totfact> 0.12513823E+05</totfact>
</mgrwt>
</event>
<event>
 8    1  0.1319619E-020  0.8427319E+02  0.7818608E-02  0.1317344E+00
          1   -1    0    0  501    0  0.00000000000E+00  0.00000000000E+00  0.14609606669E+02  0.14609607538E+02  0.50400000000E-02 0. -1.
         -2   -1    0    0    0  501 -0.00000000000E+00 -0.00000000000E+00 -0.12152912863E+03  0.12152912866E+03  0.25500000000E-02 0.  1.
        -24    2    1    2    0    0  0.00000000000E+00 -0.17763568394E-14 -0.10691952196E+03  0.13613873620E+03  0.84273194531E+02 0.  0.
         66    2    3    3    0    0 -0.27863564715E+02  0.11953177773E+02 -0.10070478193E+03  0.10518892432E+03  0.19999997779E+01 0.  0.
         13    1    3    3    0    0  0.27863564715E+02 -0.11953177773E+02 -0.62147400376E+01  0.30949811878E+02  0.10566000000E+00 0. -1.
         13    1    4    4    0    0 -0.11132159576E+02  0.54429476165E+01 -0.42884143560E+02  0.44638678167E+02  0.10566000000E+00 0.  1.
        -13    1    4    4    0    0 -0.13445069245E+01  0.29606020241E+00 -0.44726114642E+01  0.46808939166E+01  0.10566000000E+00 0. -1.
        -14    1    4    4    0    0 -0.15386898215E+02  0.62141699539E+01 -0.53348026902E+02  0.55869352236E+02  0.00000000000E+00 0.  1.
<mgrwt>
<rscale>  0 0.84273195E+02</rscale>
<asrwt>0</asrwt>
<pdfrwt beam="1">  1        1 0.22476320E-02 0.84273195E+02</pdfrwt>
<pdfrwt beam="2">  1       -2 0.18696788E-01 0.84273195E+02</pdfrwt>
<totfact> 0.88167799E+04</totfact>
</mgrwt>
</event>
<event>
 8    1  0.1319619E-020  0.7927750E+02  0.7818608E-02  0.1331114E+00
          1   -1    0    0  501    0  0.00000000000E+00  0.00000000000E+00  0.24868997263E+02  0.24868997774E+02  0.50400000000E-02 0. -1.
         -2   -1    0    0    0  501 -0.00000000000E+00 -0.00000000000E+00 -0.63180298420E+02  0.63180298472E+02  0.25500000000E-02 0.  1.
        -24    2    1    2    0    0  0.00000000000E+00  0.00000000000E+00 -0.38311301158E+02  0.88049296245E+02  0.79277504835E+02 0.  0.
         66    2    3    3    0    0  0.33854806826E+01 -0.95125572015E+01 -0.61711164633E+02  0.62563712111E+02  0.20000022135E+01 0.  0.
         13    1    3    3    0    0 -0.33854806826E+01  0.95125572015E+01  0.23399863475E+02  0.25485584134E+02  0.10566000000E+00 0. -1.
         13    1    4    4    0    0 -0.11081224395E+00 -0.66673409634E+00 -0.31346200704E+01  0.32083984681E+01  0.10566000000E+00 0. -1.
        -13    1    4    4    0    0  0.23632234841E+00 -0.18083850973E+01 -0.11462376250E+02  0.11607038306E+02  0.10566000000E+00 0.  1.
        -14    1    4    4    0    0  0.32599705782E+01 -0.70374380079E+01 -0.47114168312E+02  0.47748275337E+02  0.00000000000E+00 0.  1.
<mgrwt>
<rscale>  0 0.79277505E+02</rscale>
<asrwt>0</asrwt>
<pdfrwt beam="1">  1        1 0.38259997E-02 0.79277505E+02</pdfrwt>
<pdfrwt beam="2">  1       -2 0.97200458E-02 0.79277505E+02</pdfrwt>
<totfact> 0.11996625E+05</totfact>
</mgrwt>
</event>
<event>
 8    1  0.1319619E-020  0.8862799E+02  0.7818608E-02  0.1306209E+00
          1   -1    0    0  501    0  0.00000000000E+00  0.00000000000E+00  0.24544534610E+02  0.24544535128E+02  0.50400000000E-02 0. -1.
         -2   -1    0    0    0  501 -0.00000000000E+00 -0.00000000000E+00 -0.80006811296E+02  0.80006811337E+02  0.25500000000E-02 0.  1.
        -24    2    1    2    0    0  0.00000000000E+00 -0.71054273576E-14 -0.55462276686E+02  0.10455134646E+03  0.88627986056E+02 0.  0.
         66    2    3    3    0    0 -0.45951049568E+01 -0.37914471497E+02 -0.54205053796E+02  0.66338601053E+02  0.19999985256E+01 0.  0.
         13    1    3    3    0    0  0.45951049568E+01  0.37914471497E+02 -0.12572228896E+01  0.38212745412E+02  0.10566000000E+00 0. -1.
         13    1    4    4    0    0  0.35844902548E-02 -0.30532148462E+01 -0.43228894692E+01  0.52934555013E+01  0.10566000000E+00 0. -1.
        -13    1    4    4    0    0 -0.33907977055E+01 -0.29194679042E+02 -0.42013535870E+02  0.51273532683E+02  0.10566000000E+00 0.  1.
        -14    1    4    4    0    0 -0.12078917415E+01 -0.56665776090E+01 -0.78686284567E+01  0.97716128683E+01  0.00000000000E+00 0.  1.
<mgrwt>
<rscale>  0 0.88627986E+02</rscale>
<asrwt>0</asrwt>
<pdfrwt beam="1">  1        1 0.37760824E-02 0.88627986E+02</pdfrwt>
<pdfrwt beam="2">  1       -2 0.12308740E-01 0.88627986E+02</pdfrwt>
<totfact> 0.86055924E+04</totfact>
</mgrwt>
</event>
<event>
 8    1  0.1319619E-020  0.8004908E+02  0.7818608E-02  0.1328912E+00
         -2   -1    0    0    0  501 -0.00000000000E+00  0.00000000000E+00  0.32193184038E+01  0.32193194138E+01  0.25500000000E-02 0.  1.
          1   -1    0    0  501    0  0.00000000000E+00 -0.00000000000E+00 -0.49760951090E+03  0.49760951093E+03  0.50400000000E-02 0. -1.
        -24    2    1    2    0    0 -0.35527136788E-14 -0.44408920985E-15 -0.49439019250E+03  0.50082883034E+03  0.80049077838E+02 0.  0.
         66    2    3    3    0    0 -0.25274087700E+02 -0.18845356104E+01 -0.44096056424E+03  0.44169282335E+03  0.19999991612E+01 0.  0.
         13    1    3    3    0    0  0.25274087700E+02  0.18845356104E+01 -0.53429628256E+02  0.59136006994E+02  0.10566000000E+00 0. -1.
         13    1    4    4    0    0 -0.10416243026E+02 -0.12028950992E+01 -0.19641486708E+03  0.19669457606E+03  0.10566000000E+00 0.  1.
        -13    1    4    4    0    0 -0.40637067858E+01  0.43715326379E-01 -0.65877842890E+02  0.66003158802E+02  0.10566000000E+00 0. -1.
        -14    1    4    4    0    0 -0.10794137888E+02 -0.72535583760E+00 -0.17866785427E+03  0.17899508849E+03  0.00000000000E+00 0.  1.
<mgrwt>
<rscale>  0 0.80049078E+02</rscale>
<asrwt>0</asrwt>
<pdfrwt beam="1">  1        1 0.76555249E-01 0.80049078E+02</pdfrwt>
<pdfrwt beam="2">  1       -2 0.49528023E-03 0.80049078E+02</pdfrwt>
<totfact> 0.19565878E+05</totfact>
</mgrwt>
</event>
<event>
 8    1  0.1319619E-020  0.8066917E+02  0.7818608E-02  0.1327163E+00
         -2   -1    0    0    0  501 -0.00000000000E+00  0.00000000000E+00  0.15950979456E+02  0.15950979660E+02  0.25500000000E-02 0.  1.
          1   -1    0    0  501    0  0.00000000000E+00 -0.00000000000E+00 -0.10199241129E+03  0.10199241142E+03  0.50400000000E-02 0. -1.
        -24    2    1    2    0    0  0.00000000000E+00  0.00000000000E+00 -0.86041431837E+02  0.11794339108E+03  0.80669173211E+02 0.  0.
         66    2    3    3    0    0  0.13140975550E+02  0.34608981564E+02 -0.19726976330E+02  0.41995481189E+02  0.20000004719E+01 0.  0.
         13    1    3    3    0    0 -0.13140975550E+02 -0.34608981564E+02 -0.66314455507E+02  0.75947909889E+02  0.10566000000E+00 0. -1.
         13    1    4    4    0    0  0.10207122935E+02  0.26413777911E+02 -0.14486949926E+02  0.31808110669E+02  0.10566000000E+00 0. -1.
        -13    1    4    4    0    0  0.16000507810E+01  0.38118600140E+01 -0.21493085128E+01  0.46605933513E+01  0.10566000000E+00 0.  1.
         14    1    4    4    0    0  0.13338018340E+01  0.43833436388E+01 -0.30907178915E+01  0.55267771688E+01  0.00000000000E+00 0. -1.
<mgrwt>
<rscale>  0 0.80669173E+02</rscale>
<asrwt>0</asrwt>
<pdfrwt beam="1">  1        1 0.15691140E-01 0.80669173E+02</pdfrwt>
<pdfrwt beam="2">  1       -2 0.24539969E-02 0.80669173E+02</pdfrwt>
<totfact> 0.14419796E+05</totfact>
</mgrwt>
</event>
<event>
 8    1  0.1474779E-020  0.8015434E+02  0.7818608E-02  0.1328614E+00
          1   -1    0    0  501    0  0.00000000000E+00  0.00000000000E+00  0.33770284745E+02  0.33770285122E+02  0.50400000000E-02 0. -1.
         -2   -1    0    0    0  501 -0.00000000000E+00 -0.00000000000E+00 -0.47561919246E+02  0.47561919314E+02  0.25500000000E-02 0.  1.
        -24    2    1    2    0    0  0.35527136788E-14  0.00000000000E+00 -0.13791634500E+02  0.81332204435E+02  0.80154340470E+02 0.  0.
         66    2    3    3    0    0  0.21920533223E+02  0.77827863151E+01 -0.39984337044E+02  0.46301498331E+02  0.19999998171E+01 0.  0.
         13    1    3    3    0    0 -0.21920533223E+02 -0.77827863151E+01  0.26192702544E+02  0.35030706104E+02  0.10566000000E+00 0. -1.
         13    1    4    4    0    0  0.10237448214E+01  0.27619306746E-01 -0.17735981514E+01  0.20507634490E+01  0.10566000000E+00 0. -1.
        -13    1    4    4    0    0  0.71768438438E+00  0.46510845586E+00 -0.14463737867E+01  0.16836145395E+01  0.10566000000E+00 0.  1.
        -14    1    4    4    0    0  0.20179104017E+02  0.72900585524E+01 -0.36764365106E+02  0.42567120343E+02  0.00000000000E+00 0.  1.
<mgrwt>
<rscale>  0 0.80154340E+02</rscale>
<asrwt>0</asrwt>
<pdfrwt beam="1">  1        1 0.51954284E-02 0.80154340E+02</pdfrwt>
<pdfrwt beam="2">  1       -2 0.73172184E-02 0.80154340E+02</pdfrwt>
<totfact> 0.12278006E+05</totfact>
</mgrwt>
</event>
<event>
 8    1  0.1319619E-020  0.8249037E+02  0.7818608E-02  0.1322129E+00
          1   -1    0    0  501    0  0.00000000000E+00  0.00000000000E+00  0.25232387761E+01  0.25232438096E+01  0.50400000000E-02 0. -1.
         -2   -1    0    0    0  501 -0.00000000000E+00 -0.00000000000E+00 -0.67419847246E+03  0.67419847247E+03  0.25500000000E-02 0.  1.
        -24    2    1    2    0    0 -0.35527136788E-14 -0.35527136788E-14 -0.67167523368E+03  0.67672171628E+03  0.82490373579E+02 0.  0.
         66    2    3    3    0    0 -0.23792865245E+02 -0.25920555078E+02 -0.51220950907E+03  0.51342044836E+03  0.19999997945E+01 0.  0.
         13    1    3    3    0    0  0.23792865245E+02  0.25920555078E+02 -0.15946572461E+03  0.16330126792E+03  0.10566000000E+00 0. -1.
         13    1    4    4    0    0 -0.67547920622E+01 -0.84811179565E+01 -0.16135684799E+03  0.16172074739E+03  0.10566000000E+00 0. -1.
        -13    1    4    4    0    0 -0.12011131117E+02 -0.12397734533E+02 -0.25348313440E+03  0.25407022982E+03  0.10566000000E+00 0.  1.
         14    1    4    4    0    0 -0.50269420659E+01 -0.50417025892E+01 -0.97369526673E+02  0.97629471145E+02  0.00000000000E+00 0. -1.
<mgrwt>
<rscale>  0 0.82490374E+02</rscale>
<asrwt>0</asrwt>
<pdfrwt beam="1">  1        1 0.38819151E-03 0.82490374E+02</pdfrwt>
<pdfrwt beam="2">  1       -2 0.10372270E+00 0.82490374E+02</pdfrwt>
<totfact> 0.36204656E+04</totfact>
</mgrwt>
</event>
<event>
 8    1  0.1319619E-020  0.8063263E+02  0.7818608E-02  0.1327266E+00
         -2   -1    0    0    0  501 -0.00000000000E+00  0.00000000000E+00  0.30004303484E+02  0.30004303592E+02  0.25500000000E-02 0.  1.
          1   -1    0    0  501    0  0.00000000000E+00 -0.00000000000E+00 -0.54172409832E+02  0.54172410067E+02  0.50400000000E-02 0. -1.
        -24    2    1    2    0    0  0.35527136788E-14 -0.11102230246E-15 -0.24168106349E+02  0.84176713659E+02  0.80632634572E+02 0.  0.
         66    2    3    3    0    0  0.23902820336E+02 -0.75553778186E+00  0.21760399410E+02  0.32394917025E+02  0.20000022934E+01 0.  0.
         13    1    3    3    0    0 -0.23902820336E+02  0.75553778186E+00 -0.45928505759E+02  0.51781796634E+02  0.10566000000E+00 0. -1.
         13    1    4    4    0    0  0.29363257737E+01  0.10777414118E+00  0.34184954112E+01  0.45089798433E+01  0.10566000000E+00 0. -1.
        -13    1    4    4    0    0  0.18334174574E+02 -0.52220417478E+00  0.16281621827E+02  0.24525844080E+02  0.10566000000E+00 0.  1.
         14    1    4    4    0    0  0.26323199887E+01 -0.34110774826E+00  0.20602821723E+01  0.33600931011E+01  0.00000000000E+00 0. -1.
<mgrwt>
<rscale>  0 0.80632635E+02</rscale>
<asrwt>0</asrwt>
<pdfrwt beam="1">  1        1 0.83342170E-02 0.80632635E+02</pdfrwt>
<pdfrwt beam="2">  1       -2 0.46160467E-02 0.80632635E+02</pdfrwt>
<totfact> 0.13035848E+05</totfact>
</mgrwt>
</event>
<event>
 8    1  0.1319619E-020  0.8098765E+02  0.7818608E-02  0.1326272E+00
         -2   -1    0    0    0  501 -0.00000000000E+00  0.00000000000E+00  0.31129175768E+02  0.31129175872E+02  0.25500000000E-02 0.  1.
          1   -1    0    0  501    0  0.00000000000E+00 -0.00000000000E+00 -0.52675662729E+02  0.52675662970E+02  0.50400000000E-02 0. -1.
        -24    2    1    2    0    0  0.35527136788E-14  0.00000000000E+00 -0.21546486961E+02  0.83804838843E+02  0.80987652843E+02 0.  0.
         66    2    3    3    0    0  0.31470354971E+02  0.25440118811E+02 -0.10363151239E+02  0.41820781761E+02  0.19999991090E+01 0.  0.
         13    1    3    3    0    0 -0.31470354971E+02 -0.25440118811E+02 -0.11183335723E+02  0.41984057081E+02  0.10566000000E+00 0. -1.
         13    1    4    4    0    0  0.55312716544E+01  0.38993748179E+01 -0.20254145071E+01  0.70649527986E+01  0.10566000000E+00 0. -1.
        -13    1    4    4    0    0  0.25941510543E+02  0.21553931415E+02 -0.83345163158E+01  0.34742038727E+02  0.10566000000E+00 0.  1.
        -14    1    4    4    0    0 -0.24272266257E-02 -0.13187421549E-01 -0.32204159793E-02  0.13790235505E-01  0.00000000000E+00 0.  1.
<mgrwt>
<rscale>  0 0.80987653E+02</rscale>
<asrwt>0</asrwt>
<pdfrwt beam="1">  1        1 0.81039481E-02 0.80987653E+02</pdfrwt>
<pdfrwt beam="2">  1       -2 0.47891040E-02 0.80987653E+02</pdfrwt>
<totfact> 0.12820851E+05</totfact>
</mgrwt>
</event>
<event>
 8    1  0.1319619E-020  0.7860690E+02  0.7818608E-02  0.1333052E+00
         -2   -1    0    0    0  501 -0.00000000000E+00  0.00000000000E+00  0.20717743062E+02  0.20717743219E+02  0.25500000000E-02 0.  1.
          1   -1    0    0  501    0  0.00000000000E+00 -0.00000000000E+00 -0.74562224992E+02  0.74562225163E+02  0.50400000000E-02 0. -1.
        -24    2    1    2    0    0  0.88817841970E-15  0.00000000000E+00 -0.53844481930E+02  0.95279968382E+02  0.78606896266E+02 0.  0.
         66    2    3    3    0    0  0.65772552644E+01 -0.31374473335E+02  0.57115601768E+00  0.32123886480E+02  0.19999998852E+01 0.  0.
         13    1    3    3    0    0 -0.65772552644E+01  0.31374473335E+02 -0.54415637948E+02  0.63156081902E+02  0.10566000000E+00 0. -1.
         13    1    4    4    0    0  0.26681145732E+01 -0.10167388242E+02  0.63441990515E+00  0.10531299620E+02  0.10566000000E+00 0. -1.
        -13    1    4    4    0    0  0.25838657064E+01 -0.15907957030E+02 -0.37773089858E+00  0.16121206639E+02  0.10566000000E+00 0.  1.
        -14    1    4    4    0    0  0.13252749849E+01 -0.52991280634E+01  0.31446701111E+00  0.54713802206E+01  0.00000000000E+00 0.  1.
<mgrwt>
<rscale>  0 0.78606896E+02</rscale>
<asrwt>0</asrwt>
<pdfrwt beam="1">  1        1 0.11471111E-01 0.78606896E+02</pdfrwt>
<pdfrwt beam="2">  1       -2 0.31873452E-02 0.78606896E+02</pdfrwt>
<totfact> 0.14698135E+05</totfact>
</mgrwt>
</event>
<event>
 8    1  0.1319619E-020  0.7921393E+02  0.7818608E-02  0.1331297E+00
         -2   -1    0    0    0  501 -0.00000000000E+00  0.00000000000E+00  0.61215583628E+01  0.61215588939E+01  0.25500000000E-02 0.  1.
          1   -1    0    0  501    0  0.00000000000E+00 -0.00000000000E+00 -0.25626016269E+03  0.25626016274E+03  0.50400000000E-02 0. -1.
        -24    2    1    2    0    0 -0.17763568394E-14  0.00000000000E+00 -0.25013860433E+03  0.26238172163E+03  0.79213928526E+02 0.  0.
         66    2    3    3    0    0  0.97750624444E+01  0.37951129864E+02 -0.10674633481E+03  0.11373047131E+03  0.20000008634E+01 0.  0.
         13    1    3    3    0    0 -0.97750624444E+01 -0.37951129864E+02 -0.14339226951E+03  0.14865125033E+03  0.10566000000E+00 0. -1.
         13    1    4    4    0    0  0.13852445120E+01  0.63928947989E+01 -0.18729956860E+02  0.19839618300E+02  0.10566000000E+00 0. -1.
        -13    1    4    4    0    0  0.74689392939E+00  0.43708609415E+01 -0.12875437921E+02  0.13618015333E+02  0.10566000000E+00 0.  1.
        -14    1    4    4    0    0  0.76429240030E+01  0.27187374124E+02 -0.75140940032E+02  0.80272837672E+02  0.00000000000E+00 0.  1.
<mgrwt>
<rscale>  0 0.79213929E+02</rscale>
<asrwt>0</asrwt>
<pdfrwt beam="1">  1        1 0.39424632E-01 0.79213929E+02</pdfrwt>
<pdfrwt beam="2">  1       -2 0.94177845E-03 0.79213929E+02</pdfrwt>
<totfact> 0.17961710E+05</totfact>
</mgrwt>
</event>
<event>
 8    1  0.1319619E-020  0.8005046E+02  0.7818608E-02  0.1328908E+00
         -2   -1    0    0    0  501 -0.00000000000E+00  0.00000000000E+00  0.31309473961E+01  0.31309484345E+01  0.25500000000E-02 0.  1.
          1   -1    0    0  501    0  0.00000000000E+00 -0.00000000000E+00 -0.51167217163E+03  0.51167217166E+03  0.50400000000E-02 0. -1.
        -24    2    1    2    0    0  0.00000000000E+00  0.00000000000E+00 -0.50854122424E+03  0.51480312009E+03  0.80050457265E+02 0.  0.
         66    2    3    3    0    0 -0.38365788470E+02  0.91362065525E+01 -0.29738186933E+03  0.29999230025E+03  0.20000010956E+01 0.  0.
         13    1    3    3    0    0  0.38365788470E+02 -0.91362065525E+01 -0.21115935491E+03  0.21481081985E+03  0.10566000000E+00 0. -1.
         13    1    4    4    0    0 -0.43108051759E+01  0.12637779250E+01 -0.30598754229E+02  0.30926931634E+02  0.10566000000E+00 0. -1.
        -13    1    4    4    0    0 -0.74595238553E+01  0.13641133471E+01 -0.55772296723E+02  0.56285571395E+02  0.10566000000E+00 0. -1.
        -14    1    4    4    0    0 -0.26595459439E+02  0.65083152804E+01 -0.21101081838E+03  0.21277979722E+03  0.00000000000E+00 0.  1.
<mgrwt>
<rscale>  0 0.80050457E+02</rscale>
<asrwt>0</asrwt>
<pdfrwt beam="1">  1        1 0.78718730E-01 0.80050457E+02</pdfrwt>
<pdfrwt beam="2">  1       -2 0.48168470E-03 0.80050457E+02</pdfrwt>
<totfact> 0.19628106E+05</totfact>
</mgrwt>
</event>
<event>
 8    1  0.1319619E-020  0.8054438E+02  0.7818608E-02  0.1327514E+00
          1   -1    0    0  501    0  0.00000000000E+00  0.00000000000E+00  0.26441672130E+02  0.26441672610E+02  0.50400000000E-02 0. -1.
         -2   -1    0    0    0  501 -0.00000000000E+00 -0.00000000000E+00 -0.61336863488E+02  0.61336863541E+02  0.25500000000E-02 0.  1.
        -24    2    1    2    0    0  0.00000000000E+00  0.00000000000E+00 -0.34895191358E+02  0.87778536151E+02  0.80544379251E+02 0.  0.
         66    2    3    3    0    0  0.28640871210E+02 -0.16391592882E+02 -0.42568125508E+02  0.53898322111E+02  0.19999990572E+01 0.  0.
         13    1    3    3    0    0 -0.28640871210E+02  0.16391592882E+02  0.76729341496E+01  0.33880214040E+02  0.10566000000E+00 0. -1.
         13    1    4    4    0    0  0.13907167122E+01 -0.94004499136E+00 -0.28481308996E+01  0.33076866865E+01  0.10566000000E+00 0. -1.
        -13    1    4    4    0    0  0.45845269288E+01 -0.28523194833E+01 -0.69051304171E+01  0.87661624277E+01  0.10566000000E+00 0.  1.
         14    1    4    4    0    0  0.22665627570E+02 -0.12599228407E+02 -0.32814864191E+02  0.41824472997E+02  0.00000000000E+00 0. -1.
<mgrwt>
<rscale>  0 0.80544379E+02</rscale>
<asrwt>0</asrwt>
<pdfrwt beam="1">  1        1 0.40679496E-02 0.80544379E+02</pdfrwt>
<pdfrwt beam="2">  1       -2 0.94364405E-02 0.80544379E+02</pdfrwt>
<totfact> 0.11589500E+05</totfact>
</mgrwt>
</event>
<event>
 8    1  0.1319619E-020  0.7966616E+02  0.7818608E-02  0.1330001E+00
          1   -1    0    0  501    0  0.00000000000E+00  0.00000000000E+00  0.47484469304E+01  0.47484496051E+01  0.50400000000E-02 0. -1.
         -2   -1    0    0    0  501 -0.00000000000E+00 -0.00000000000E+00 -0.33414588349E+03  0.33414588350E+03  0.25500000000E-02 0.  1.
        -24    2    1    2    0    0  0.00000000000E+00  0.00000000000E+00 -0.32939743656E+03  0.33889433311E+03  0.79666164703E+02 0.  0.
         66    2    3    3    0    0  0.28669079945E+01  0.26660272946E+02 -0.28996326132E+03  0.29120728396E+03  0.20000007326E+01 0.  0.
         13    1    3    3    0    0 -0.28669079945E+01 -0.26660272946E+02 -0.39434175244E+02  0.47687049146E+02  0.10566000000E+00 0. -1.
         13    1    4    4    0    0  0.47053315429E+00  0.25104385992E+01 -0.25990069298E+02  0.26115485244E+02  0.10566000000E+00 0. -1.
        -13    1    4    4    0    0  0.16803413431E+01  0.11907545919E+02 -0.13811297708E+03  0.13863556109E+03  0.10566000000E+00 0.  1.
        -14    1    4    4    0    0  0.71603349711E+00  0.12242288428E+02 -0.12586021494E+03  0.12645623762E+03  0.00000000000E+00 0.  1.
<mgrwt>
<rscale>  0 0.79666165E+02</rscale>
<asrwt>0</asrwt>
<pdfrwt beam="1">  1        1 0.73053077E-03 0.79666165E+02</pdfrwt>
<pdfrwt beam="2">  1       -2 0.51407041E-01 0.79666165E+02</pdfrwt>
<totfact> 0.66835334E+04</totfact>
</mgrwt>
</event>
<event>
 8    1  0.1319619E-020  0.8075268E+02  0.7818608E-02  0.1326929E+00
          1   -1    0    0  501    0  0.00000000000E+00  0.00000000000E+00  0.48833868234E+02  0.48833868494E+02  0.50400000000E-02 0. -1.
         -2   -1    0    0    0  501 -0.00000000000E+00 -0.00000000000E+00 -0.33383568041E+02  0.33383568138E+02  0.25500000000E-02 0.  1.
        -24    2    1    2    0    0  0.00000000000E+00 -0.35527136788E-14  0.15450300193E+02  0.82217436632E+02  0.80752678657E+02 0.  0.
         66    2    3    3    0    0  0.24097818082E+02  0.24397237728E+02 -0.13923564210E+02  0.37064749901E+02  0.19999999600E+01 0.  0.
         13    1    3    3    0    0 -0.24097818082E+02 -0.24397237728E+02  0.29373864404E+02  0.45152686732E+02  0.10566000000E+00 0. -1.
         13    1    4    4    0    0  0.17965457977E+01  0.23216921552E+01 -0.13655836156E+01  0.32394156747E+01  0.10566000000E+00 0. -1.
        -13    1    4    4    0    0  0.20931468801E+02  0.20243596314E+02 -0.11711086207E+02  0.31386147933E+02  0.10566000000E+00 0.  1.
        -14    1    4    4    0    0  0.13698034832E+01  0.18319492585E+01 -0.84689438791E+00  0.24391862931E+01  0.00000000000E+00 0.  1.
<mgrwt>
<rscale>  0 0.80752679E+02</rscale>
<asrwt>0</asrwt>
<pdfrwt beam="1">  1        1 0.75129028E-02 0.80752679E+02</pdfrwt>
<pdfrwt beam="2">  1       -2 0.51359336E-02 0.80752679E+02</pdfrwt>
<totfact> 0.12770604E+05</totfact>
</mgrwt>
</event>
<event>
 8    1  0.1319619E-020  0.7990036E+02  0.7818608E-02  0.1329334E+00
         -2   -1    0    0    0  501 -0.00000000000E+00  0.00000000000E+00  0.27224011022E+01  0.27224022965E+01  0.25500000000E-02 0.  1.
          1   -1    0    0  501    0  0.00000000000E+00 -0.00000000000E+00 -0.58625331990E+03  0.58625331992E+03  0.50400000000E-02 0. -1.
        -24    2    1    2    0    0  0.00000000000E+00  0.00000000000E+00 -0.58353091880E+03  0.58897572222E+03  0.79900364013E+02 0.  0.
         66    2    3    3    0    0  0.29617188892E+02  0.81575513848E+01 -0.47992344982E+03  0.48090980569E+03  0.20000004663E+01 0.  0.
         13    1    3    3    0    0 -0.29617188892E+02 -0.81575513848E+01 -0.10360746898E+03  0.10806591653E+03  0.10566000000E+00 0. -1.
         13    1    4    4    0    0  0.92631738420E+01  0.25641707331E+01 -0.14342980361E+03  0.14375152552E+03  0.10566000000E+00 0.  1.
        -13    1    4    4    0    0  0.52326461484E+01  0.18364348205E+01 -0.80416500651E+02  0.80607554358E+02  0.10566000000E+00 0. -1.
         14    1    4    4    0    0  0.15121368902E+02  0.37569458313E+01 -0.25607714556E+03  0.25655072581E+03  0.00000000000E+00 0. -1.
<mgrwt>
<rscale>  0 0.79900364E+02</rscale>
<asrwt>0</asrwt>
<pdfrwt beam="1">  1        1 0.90192719E-01 0.79900364E+02</pdfrwt>
<pdfrwt beam="2">  1       -2 0.41883150E-03 0.79900364E+02</pdfrwt>
<totfact> 0.19971091E+05</totfact>
</mgrwt>
</event>
<event>
 8    1  0.1319619E-020  0.8046023E+02  0.7818608E-02  0.1327750E+00
          1   -1    0    0  501    0  0.00000000000E+00  0.00000000000E+00  0.24707673915E+02  0.24707674429E+02  0.50400000000E-02 0. -1.
         -2   -1    0    0    0  501 -0.00000000000E+00 -0.00000000000E+00 -0.65504426205E+02  0.65504426254E+02  0.25500000000E-02 0.  1.
        -24    2    1    2    0    0  0.44408920985E-15 -0.35527136788E-14 -0.40796752289E+02  0.90212100684E+02  0.80460226898E+02 0.  0.
         66    2    3    3    0    0  0.33682047116E+01  0.24992965618E+02 -0.55518399992E+02  0.61010538936E+02  0.19999975677E+01 0.  0.
         13    1    3    3    0    0 -0.33682047116E+01 -0.24992965618E+02  0.14721647702E+02  0.29201561747E+02  0.10566000000E+00 0. -1.
         13    1    4    4    0    0  0.17511236076E+00  0.11805155666E+01 -0.18173503024E+01  0.21767424054E+01  0.10566000000E+00 0. -1.
        -13    1    4    4    0    0  0.26858554956E+01  0.19184367832E+02 -0.43807976650E+02  0.47899934979E+02  0.10566000000E+00 0.  1.
         14    1    4    4    0    0  0.50723685529E+00  0.46280822200E+01 -0.98930730397E+01  0.10933861552E+02  0.00000000000E+00 0. -1.
<mgrwt>
<rscale>  0 0.80460227E+02</rscale>
<asrwt>0</asrwt>
<pdfrwt beam="1">  1        1 0.38011807E-02 0.80460227E+02</pdfrwt>
<pdfrwt beam="2">  1       -2 0.10077604E-01 0.80460227E+02</pdfrwt>
<totfact> 0.11474671E+05</totfact>
</mgrwt>
</event>
<event>
 8    1  0.1319619E-020  0.8002443E+02  0.7818608E-02  0.1328982E+00
         -2   -1    0    0    0  501 -0.00000000000E+00  0.00000000000E+00  0.88261132106E+02  0.88261132143E+02  0.25500000000E-02 0.  1.
          1   -1    0    0  501    0  0.00000000000E+00 -0.00000000000E+00 -0.18139096638E+02  0.18139097338E+02  0.50400000000E-02 0. -1.
        -24    2    1    2    0    0  0.00000000000E+00 -0.17763568394E-14  0.70122035468E+02  0.10640022948E+03  0.80024427366E+02 0.  0.
         66    2    3    3    0    0  0.35897236468E+02 -0.15348278990E+02  0.46581450296E+02  0.60811288187E+02  0.20000013285E+01 0.  0.
         13    1    3    3    0    0 -0.35897236468E+02  0.15348278990E+02  0.23540585173E+02  0.45588941294E+02  0.10566000000E+00 0. -1.
         13    1    4    4    0    0  0.66129672069E+00 -0.17686793736E+00  0.69401041591E+00  0.98051522836E+00  0.10566000000E+00 0. -1.
        -13    1    4    4    0    0  0.78384033443E+01 -0.39601440803E+01  0.11025854298E+02  0.14096238334E+02  0.10566000000E+00 0.  1.
        -14    1    4    4    0    0  0.27397536403E+02 -0.11211266972E+02  0.34861585582E+02  0.45734534625E+02  0.00000000000E+00 0.  1.
<mgrwt>
<rscale>  0 0.80024427E+02</rscale>
<asrwt>0</asrwt>
<pdfrwt beam="1">  1        1 0.27906303E-02 0.80024427E+02</pdfrwt>
<pdfrwt beam="2">  1       -2 0.13578636E-01 0.80024427E+02</pdfrwt>
<totfact> 0.10925513E+05</totfact>
</mgrwt>
</event>
<event>
 8    1  0.1319619E-020  0.7983282E+02  0.7818608E-02  0.1329527E+00
         -2   -1    0    0    0  501 -0.00000000000E+00  0.00000000000E+00  0.10817806480E+02  0.10817806780E+02  0.25500000000E-02 0.  1.
          1   -1    0    0  501    0  0.00000000000E+00 -0.00000000000E+00 -0.14728677294E+03  0.14728677303E+03  0.50400000000E-02 0. -1.
        -24    2    1    2    0    0  0.00000000000E+00  0.00000000000E+00 -0.13646896646E+03  0.15810457981E+03  0.79832821252E+02 0.  0.
         66    2    3    3    0    0 -0.38084288761E+02  0.36231924778E+01 -0.45890764384E+02  0.59778782431E+02  0.19999997603E+01 0.  0.
         13    1    3    3    0    0  0.38084288761E+02 -0.36231924778E+01 -0.90578202080E+02  0.98325797379E+02  0.10566000000E+00 0. -1.
         13    1    4    4    0    0 -0.10599896773E+02  0.12026336115E+01 -0.14122048646E+02  0.17698801124E+02  0.10566000000E+00 0. -1.
        -13    1    4    4    0    0 -0.14655237717E+02  0.11724866223E+01 -0.17218388680E+02  0.22641439667E+02  0.10566000000E+00 0.  1.
        -14    1    4    4    0    0 -0.12829154270E+02  0.12480722441E+01 -0.14550327057E+02  0.19438541640E+02  0.00000000000E+00 0.  1.
<mgrwt>
<rscale>  0 0.79832821E+02</rscale>
<asrwt>0</asrwt>
<pdfrwt beam="1">  1        1 0.22659502E-01 0.79832821E+02</pdfrwt>
<pdfrwt beam="2">  1       -2 0.16642780E-02 0.79832821E+02</pdfrwt>
<totfact> 0.15823686E+05</totfact>
</mgrwt>
</event>
<event>
 8    1  0.1319619E-020  0.7926072E+02  0.7818608E-02  0.1331163E+00
          1   -1    0    0  501    0  0.00000000000E+00  0.00000000000E+00  0.22466327022E+03  0.22466327028E+03  0.50400000000E-02 0. -1.
         -2   -1    0    0    0  501 -0.00000000000E+00 -0.00000000000E+00 -0.69907526414E+01  0.69907531064E+01  0.25500000000E-02 0.  1.
        -24    2    1    2    0    0 -0.71054273576E-14 -0.35527136788E-14  0.21767251758E+03  0.23165402339E+03  0.79260719405E+02 0.  0.
         66    2    3    3    0    0 -0.22316154100E+02 -0.20954565721E+02  0.18234886049E+03  0.18491136115E+03  0.20000006780E+01 0.  0.
         13    1    3    3    0    0  0.22316154100E+02  0.20954565721E+02  0.35323657091E+02  0.46742662234E+02  0.10566000000E+00 0. -1.
         13    1    4    4    0    0 -0.64706234079E+01 -0.56051030737E+01  0.51189497686E+02  0.51900500818E+02  0.10566000000E+00 0.  1.
        -13    1    4    4    0    0 -0.24033708540E+00 -0.50378345752E+00  0.28173960064E+01  0.28740988117E+01  0.10566000000E+00 0. -1.
        -14    1    4    4    0    0 -0.15605193607E+02 -0.14845679189E+02  0.12834196680E+03  0.13013676152E+03  0.00000000000E+00 0.  1.
<mgrwt>
<rscale>  0 0.79260719E+02</rscale>
<asrwt>0</asrwt>
<pdfrwt beam="1">  1        1 0.34563577E-01 0.79260719E+02</pdfrwt>
<pdfrwt beam="2">  1       -2 0.10755006E-02 0.79260719E+02</pdfrwt>
<totfact> 0.17480407E+05</totfact>
</mgrwt>
</event>
<event>
 8    1  0.1319619E-020  0.7953584E+02  0.7818608E-02  0.1330374E+00
         -2   -1    0    0    0  501 -0.00000000000E+00  0.00000000000E+00  0.49601551797E+02  0.49601551863E+02  0.25500000000E-02 0.  1.
          1   -1    0    0  501    0  0.00000000000E+00 -0.00000000000E+00 -0.31883830128E+02  0.31883830527E+02  0.50400000000E-02 0. -1.
        -24    2    1    2    0    0  0.00000000000E+00  0.17763568394E-14  0.17717721669E+02  0.81485382389E+02  0.79535840236E+02 0.  0.
         66    2    3    3    0    0  0.77188237516E+01  0.12636993129E+02  0.46649462355E+02  0.48984142126E+02  0.20000015862E+01 0.  0.
         13    1    3    3    0    0 -0.77188237516E+01 -0.12636993129E+02 -0.28931740687E+02  0.32501240263E+02  0.10566000000E+00 0. -1.
         13    1    4    4    0    0  0.16762597111E+01  0.23346815411E+01  0.72921726173E+01  0.78388474940E+01  0.10566000000E+00 0. -1.
        -13    1    4    4    0    0  0.15154742524E+01  0.21558406021E+01  0.73554853714E+01  0.78140028152E+01  0.10566000000E+00 0.  1.
         14    1    4    4    0    0  0.45270897882E+01  0.81464709860E+01  0.32001804366E+02  0.33331291817E+02  0.00000000000E+00 0. -1.
<mgrwt>
<rscale>  0 0.79535840E+02</rscale>
<asrwt>0</asrwt>
<pdfrwt beam="1">  1        1 0.49052047E-02 0.79535840E+02</pdfrwt>
<pdfrwt beam="2">  1       -2 0.76310079E-02 0.79535840E+02</pdfrwt>
<totfact> 0.12429580E+05</totfact>
</mgrwt>
</event>
<event>
 8    1  0.1319619E-020  0.7571496E+02  0.7818608E-02  0.1341671E+00
          1   -1    0    0  501    0  0.00000000000E+00  0.00000000000E+00  0.10272050203E+02  0.10272051439E+02  0.50400000000E-02 0. -1.
         -2   -1    0    0    0  501 -0.00000000000E+00 -0.00000000000E+00 -0.13952312163E+03  0.13952312165E+03  0.25500000000E-02 0.  1.
        -24    2    1    2    0    0  0.71054273576E-14  0.00000000000E+00 -0.12925107143E+03  0.14979517309E+03  0.75714955041E+02 0.  0.
         66    2    3    3    0    0 -0.37056587139E+02  0.44365306346E+01 -0.76915924618E+02  0.85515687951E+02  0.19999928675E+01 0.  0.
         13    1    3    3    0    0  0.37056587139E+02 -0.44365306346E+01 -0.52335146811E+02  0.64279485143E+02  0.10566000000E+00 0. -1.
         13    1    4    4    0    0 -0.16506103825E+02  0.20419736725E+01 -0.34056246929E+02  0.37900662777E+02  0.10566000000E+00 0. -1.
        -13    1    4    4    0    0 -0.18519399016E+02  0.23270407764E+01 -0.39510302830E+02  0.43697350634E+02  0.10566000000E+00 0.  1.
         14    1    4    4    0    0 -0.20310842983E+01  0.67516185800E-01 -0.33493748584E+01  0.39176745404E+01  0.00000000000E+00 0. -1.
<mgrwt>
<rscale>  0 0.75714955E+02</rscale>
<asrwt>0</asrwt>
<pdfrwt beam="1">  1        1 0.15803156E-02 0.75714955E+02</pdfrwt>
<pdfrwt beam="2">  1       -2 0.21465094E-01 0.75714955E+02</pdfrwt>
<totfact> 0.11141498E+05</totfact>
</mgrwt>
</event>
<event>
 8    1  0.1319619E-020  0.7726050E+02  0.7818608E-02  0.1337011E+00
          1   -1    0    0  501    0  0.00000000000E+00  0.00000000000E+00  0.51916825606E+01  0.51916850070E+01  0.50400000000E-02 0. -1.
         -2   -1    0    0    0  501 -0.00000000000E+00 -0.00000000000E+00 -0.28743976063E+03  0.28743976064E+03  0.25500000000E-02 0.  1.
        -24    2    1    2    0    0  0.00000000000E+00 -0.17763568394E-14 -0.28224807807E+03  0.29263144565E+03  0.77260503548E+02 0.  0.
         66    2    3    3    0    0  0.22957415180E+02  0.80212287069E+01 -0.25477724460E+03  0.25594301590E+03  0.20000004766E+01 0.  0.
         13    1    3    3    0    0 -0.22957415180E+02 -0.80212287069E+01 -0.27470833475E+02  0.36688429751E+02  0.10566000000E+00 0. -1.
         13    1    4    4    0    0  0.82316839460E+01  0.36946767773E+01 -0.95010884441E+02  0.95438412515E+02  0.10566000000E+00 0. -1.
        -13    1    4    4    0    0  0.40039986488E+01  0.11932106822E+01 -0.39395149251E+02  0.39616217708E+02  0.10566000000E+00 0.  1.
        -14    1    4    4    0    0  0.10721732586E+02  0.31333412474E+01 -0.12037121090E+03  0.12088838568E+03  0.00000000000E+00 0.  1.
<mgrwt>
<rscale>  0 0.77260504E+02</rscale>
<asrwt>0</asrwt>
<pdfrwt beam="1">  1        1 0.79872081E-03 0.77260504E+02</pdfrwt>
<pdfrwt beam="2">  1       -2 0.44221489E-01 0.77260504E+02</pdfrwt>
<totfact> 0.78661614E+04</totfact>
</mgrwt>
</event>
<event>
 8    1  0.1319619E-020  0.7783725E+02  0.7818608E-02  0.1335304E+00
         -2   -1    0    0    0  501 -0.00000000000E+00  0.00000000000E+00  0.31752816982E+02  0.31752817084E+02  0.25500000000E-02 0.  1.
          1   -1    0    0  501    0  0.00000000000E+00 -0.00000000000E+00 -0.47701569339E+02  0.47701569605E+02  0.50400000000E-02 0. -1.
        -24    2    1    2    0    0  0.44408920985E-15  0.00000000000E+00 -0.15948752357E+02  0.79454386690E+02  0.77837245985E+02 0.  0.
         66    2    3    3    0    0 -0.27347003424E+01 -0.38719378888E+02 -0.54822895093E+01  0.39252062179E+02  0.19999998944E+01 0.  0.
         13    1    3    3    0    0  0.27347003424E+01  0.38719378888E+02 -0.10466462848E+02  0.40202324511E+02  0.10566000000E+00 0. -1.
         13    1    4    4    0    0 -0.13142737850E+00 -0.14209510906E+02 -0.18969083088E+01  0.14336558112E+02  0.10566000000E+00 0. -1.
        -13    1    4    4    0    0 -0.98152091593E+00 -0.11828399189E+02 -0.15710143699E+01  0.11973038916E+02  0.10566000000E+00 0.  1.
        -14    1    4    4    0    0 -0.16217520480E+01 -0.12681468793E+02 -0.20143668305E+01  0.12942465151E+02  0.00000000000E+00 0.  1.
<mgrwt>
<rscale>  0 0.77837246E+02</rscale>
<asrwt>0</asrwt>
<pdfrwt beam="1">  1        1 0.73387030E-02 0.77837246E+02</pdfrwt>
<pdfrwt beam="2">  1       -2 0.48850488E-02 0.77837246E+02</pdfrwt>
<totfact> 0.14094607E+05</totfact>
</mgrwt>
</event>
<event>
 8    1  0.1319619E-020  0.8136362E+02  0.7818608E-02  0.1325226E+00
          1   -1    0    0  501    0  0.00000000000E+00  0.00000000000E+00  0.30070394820E+02  0.30070395243E+02  0.50400000000E-02 0. -1.
         -2   -1    0    0    0  501 -0.00000000000E+00 -0.00000000000E+00 -0.55037835415E+02  0.55037835474E+02  0.25500000000E-02 0.  1.
        -24    2    1    2    0    0  0.88817841970E-15  0.00000000000E+00 -0.24967440595E+02  0.85108230717E+02  0.81363615000E+02 0.  0.
         66    2    3    3    0    0  0.74552782801E+01 -0.30890732164E+02 -0.39019553573E+02  0.50362129481E+02  0.20000042510E+01 0.  0.
         13    1    3    3    0    0 -0.74552782801E+01  0.30890732164E+02  0.14052112978E+02  0.34746101235E+02  0.10566000000E+00 0. -1.
         13    1    4    4    0    0  0.20062156295E+00 -0.18358618223E+01 -0.27722810379E+01  0.33327681934E+01  0.10566000000E+00 0. -1.
        -13    1    4    4    0    0  0.35058477345E+01 -0.13465024856E+02 -0.17616377799E+02  0.22448737014E+02  0.10566000000E+00 0.  1.
         14    1    4    4    0    0  0.37488089827E+01 -0.15589845485E+02 -0.18630894736E+02  0.24580624274E+02  0.00000000000E+00 0. -1.
<mgrwt>
<rscale>  0 0.81363615E+02</rscale>
<asrwt>0</asrwt>
<pdfrwt beam="1">  1        1 0.46262146E-02 0.81363615E+02</pdfrwt>
<pdfrwt beam="2">  1       -2 0.84673593E-02 0.81363615E+02</pdfrwt>
<totfact> 0.11525162E+05</totfact>
</mgrwt>
</event>
<event>
 8    1  0.1319619E-020  0.7842557E+02  0.7818608E-02  0.1333580E+00
         -2   -1    0    0    0  501 -0.00000000000E+00  0.00000000000E+00  0.33052386321E+02  0.33052386419E+02  0.25500000000E-02 0.  1.
          1   -1    0    0  501    0  0.00000000000E+00 -0.00000000000E+00 -0.46521372990E+02  0.46521373263E+02  0.50400000000E-02 0. -1.
        -24    2    1    2    0    0 -0.35527136788E-14  0.35527136788E-14 -0.13468986670E+02  0.79573759682E+02  0.78425567438E+02 0.  0.
         66    2    3    3    0    0 -0.21459399146E+02  0.24905672945E+02  0.14900334557E+02  0.36149942400E+02  0.20000022676E+01 0.  0.
         13    1    3    3    0    0  0.21459399146E+02 -0.24905672945E+02 -0.28369321226E+02  0.43423817283E+02  0.10566000000E+00 0. -1.
         13    1    4    4    0    0 -0.15243088957E+01  0.21082777969E+01  0.82018644078E+00  0.27298759517E+01  0.10566000000E+00 0. -1.
        -13    1    4    4    0    0 -0.10863081063E+02  0.11654446341E+02  0.77821922415E+01  0.17731506699E+02  0.10566000000E+00 0.  1.
        -14    1    4    4    0    0 -0.90720091869E+01  0.11142948807E+02  0.62979558745E+01  0.15688559749E+02  0.00000000000E+00 0.  1.
<mgrwt>
<rscale>  0 0.78425567E+02</rscale>
<asrwt>0</asrwt>
<pdfrwt beam="1">  1        1 0.71571344E-02 0.78425567E+02</pdfrwt>
<pdfrwt beam="2">  1       -2 0.50849825E-02 0.78425567E+02</pdfrwt>
<totfact> 0.13749389E+05</totfact>
</mgrwt>
</event>
<event>
 8    1  0.1319619E-020  0.7922248E+02  0.7818608E-02  0.1331273E+00
         -2   -1    0    0    0  501 -0.00000000000E+00  0.00000000000E+00  0.18363321804E+02  0.18363321981E+02  0.25500000000E-02 0.  1.
          1   -1    0    0  501    0  0.00000000000E+00 -0.00000000000E+00 -0.85444802793E+02  0.85444802941E+02  0.50400000000E-02 0. -1.
        -24    2    1    2    0    0 -0.22204460493E-15  0.00000000000E+00 -0.67081480989E+02  0.10380812492E+03  0.79222482340E+02 0.  0.
         66    2    3    3    0    0 -0.13906812650E+01 -0.30753195738E+02 -0.95198050847E+00  0.30864207832E+02  0.20000039308E+01 0.  0.
         13    1    3    3    0    0  0.13906812650E+01  0.30753195738E+02 -0.66129500481E+02  0.72943917090E+02  0.10566000000E+00 0. -1.
         13    1    4    4    0    0 -0.62988627446E+00 -0.15723351862E+02  0.14068091032E+00  0.15736947151E+02  0.10566000000E+00 0. -1.
        -13    1    4    4    0    0 -0.38587107769E+00 -0.32918919391E+01  0.13822615361E+00  0.33189937530E+01  0.10566000000E+00 0.  1.
         14    1    4    4    0    0 -0.37492391287E+00 -0.11737951938E+02 -0.12308875724E+01  0.11808266928E+02  0.00000000000E+00 0. -1.
<mgrwt>
<rscale>  0 0.79222482E+02</rscale>
<asrwt>0</asrwt>
<pdfrwt beam="1">  1        1 0.13145354E-01 0.79222482E+02</pdfrwt>
<pdfrwt beam="2">  1       -2 0.28251265E-02 0.79222482E+02</pdfrwt>
<totfact> 0.14706223E+05</totfact>
</mgrwt>
</event>
<event>
 8    1  0.1319619E-020  0.7826648E+02  0.7818608E-02  0.1334044E+00
          1   -1    0    0  501    0  0.00000000000E+00  0.00000000000E+00  0.29243034327E+01  0.29243077758E+01  0.50400000000E-02 0. -1.
         -2   -1    0    0    0  501 -0.00000000000E+00 -0.00000000000E+00 -0.52368352186E+03  0.52368352187E+03  0.25500000000E-02 0.  1.
        -24    2    1    2    0    0  0.10658141036E-13 -0.22204460493E-15 -0.52075921843E+03  0.52660782964E+03  0.78266484930E+02 0.  0.
         66    2    3    3    0    0  0.28256283981E+02 -0.14597979405E+01 -0.44219802552E+03  0.44310680696E+03  0.20000007781E+01 0.  0.
         13    1    3    3    0    0 -0.28256283981E+02  0.14597979405E+01 -0.78561192908E+02  0.83501022686E+02  0.10566000000E+00 0. -1.
         13    1    4    4    0    0  0.19683537930E+01 -0.24742667842E+00 -0.37962702285E+02  0.38014649353E+02  0.10566000000E+00 0. -1.
        -13    1    4    4    0    0  0.46038994312E+01 -0.49546442581E-01 -0.75708077541E+02  0.75848022478E+02  0.10566000000E+00 0.  1.
        -14    1    4    4    0    0  0.21684030757E+02 -0.11628248195E+01 -0.32852724569E+03  0.32924413512E+03  0.00000000000E+00 0.  1.
<mgrwt>
<rscale>  0 0.78266485E+02</rscale>
<asrwt>0</asrwt>
<pdfrwt beam="1">  1        1 0.44989359E-03 0.78266485E+02</pdfrwt>
<pdfrwt beam="2">  1       -2 0.80566621E-01 0.78266485E+02</pdfrwt>
<totfact> 0.51432594E+04</totfact>
</mgrwt>
</event>
<event>
 8    1  0.1319619E-020  0.7998255E+02  0.7818608E-02  0.1329101E+00
         -2   -1    0    0    0  501 -0.00000000000E+00  0.00000000000E+00  0.30151191146E+01  0.30151201929E+01  0.25500000000E-02 0.  1.
          1   -1    0    0  501    0  0.00000000000E+00 -0.00000000000E+00 -0.53042739063E+03  0.53042739065E+03  0.50400000000E-02 0. -1.
        -24    2    1    2    0    0  0.00000000000E+00  0.00000000000E+00 -0.52741227151E+03  0.53344251085E+03  0.79982549557E+02 0.  0.
         66    2    3    3    0    0 -0.31242271894E+02  0.23721200154E+02 -0.31489200588E+03  0.31733223955E+03  0.20000003384E+01 0.  0.
         13    1    3    3    0    0  0.31242271894E+02 -0.23721200154E+02 -0.21252026564E+03  0.21611027130E+03  0.10566000000E+00 0. -1.
         13    1    4    4    0    0 -0.70363182184E+01  0.46931200168E+01 -0.65326028219E+02  0.65871361581E+02  0.10566000000E+00 0. -1.
        -13    1    4    4    0    0 -0.18647921158E+02  0.14937616372E+02 -0.18997239483E+03  0.19146905574E+03  0.10566000000E+00 0.  1.
        -14    1    4    4    0    0 -0.55580325178E+01  0.40904637655E+01 -0.59593582831E+02  0.59991822225E+02  0.00000000000E+00 0.  1.
<mgrwt>
<rscale>  0 0.79982550E+02</rscale>
<asrwt>0</asrwt>
<pdfrwt beam="1">  1        1 0.81604140E-01 0.79982550E+02</pdfrwt>
<pdfrwt beam="2">  1       -2 0.46386498E-03 0.79982550E+02</pdfrwt>
<totfact> 0.19747503E+05</totfact>
</mgrwt>
</event>
<event>
 8    1  0.1319619E-020  0.7928131E+02  0.7818608E-02  0.1331103E+00
         -2   -1    0    0    0  501 -0.00000000000E+00  0.00000000000E+00  0.71255101263E+01  0.71255105826E+01  0.25500000000E-02 0.  1.
          1   -1    0    0  501    0  0.00000000000E+00 -0.00000000000E+00 -0.22052895894E+03  0.22052895899E+03  0.50400000000E-02 0. -1.
        -24    2    1    2    0    0  0.00000000000E+00 -0.88817841970E-15 -0.21340344881E+03  0.22765446958E+03  0.79281306461E+02 0.  0.
         66    2    3    3    0    0  0.38117618076E+02  0.60455405274E+01 -0.81106225983E+02  0.89842758536E+02  0.20000000239E+01 0.  0.
         13    1    3    3    0    0 -0.38117618076E+02 -0.60455405274E+01 -0.13229722283E+03  0.13781171104E+03  0.10566000000E+00 0. -1.
         13    1    4    4    0    0  0.10334360237E+02  0.11004790458E+01 -0.21041142082E+02  0.23468082150E+02  0.10566000000E+00 0. -1.
        -13    1    4    4    0    0  0.21259541148E+02  0.34783201735E+01 -0.44869084386E+02  0.49772609925E+02  0.10566000000E+00 0.  1.
         14    1    4    4    0    0  0.65237166908E+01  0.14667413081E+01 -0.15195999514E+02  0.16602066460E+02  0.00000000000E+00 0. -1.
<mgrwt>
<rscale>  0 0.79281306E+02</rscale>
<asrwt>0</asrwt>
<pdfrwt beam="1">  1        1 0.33927527E-01 0.79281306E+02</pdfrwt>
<pdfrwt beam="2">  1       -2 0.10962325E-02 0.79281306E+02</pdfrwt>
<totfact> 0.17405314E+05</totfact>
</mgrwt>
</event>
<event>
 8    1  0.1319619E-020  0.7871766E+02  0.7818608E-02  0.1332730E+00
         -2   -1    0    0    0  501 -0.00000000000E+00  0.00000000000E+00  0.19872931747E+03  0.19872931748E+03  0.25500000000E-02 0.  1.
          1   -1    0    0  501    0  0.00000000000E+00 -0.00000000000E+00 -0.77951117822E+01  0.77951134115E+01  0.50400000000E-02 0. -1.
        -24    2    1    2    0    0  0.00000000000E+00  0.00000000000E+00  0.19093420568E+03  0.20652443089E+03  0.78717657841E+02 0.  0.
         66    2    3    3    0    0  0.83270746672E+01 -0.32449655705E+02  0.14960243483E+03  0.15332060797E+03  0.19999982821E+01 0.  0.
         13    1    3    3    0    0 -0.83270746672E+01  0.32449655705E+02  0.41331770857E+02  0.53203822928E+02  0.10566000000E+00 0. -1.
         13    1    4    4    0    0  0.20717896434E+01 -0.75658447732E+01  0.33168067430E+02  0.34083224327E+02  0.10566000000E+00 0. -1.
        -13    1    4    4    0    0  0.39560841096E+01 -0.14922337456E+02  0.66738158280E+02  0.68500508693E+02  0.10566000000E+00 0.  1.
        -14    1    4    4    0    0  0.22992009142E+01 -0.99614734760E+01  0.49696209117E+02  0.50736874945E+02  0.00000000000E+00 0.  1.
<mgrwt>
<rscale>  0 0.78717658E+02</rscale>
<asrwt>0</asrwt>
<pdfrwt beam="1">  1        1 0.11992482E-02 0.78717658E+02</pdfrwt>
<pdfrwt beam="2">  1       -2 0.30573739E-01 0.78717658E+02</pdfrwt>
<totfact> 0.88924348E+04</totfact>
</mgrwt>
</event>
<event>
 8    1  0.1319619E-020  0.7975173E+02  0.7818608E-02  0.1329757E+00
         -2   -1    0    0    0  501 -0.00000000000E+00  0.00000000000E+00  0.61168564609E+01  0.61168569924E+01  0.25500000000E-02 0.  1.
          1   -1    0    0  501    0  0.00000000000E+00 -0.00000000000E+00 -0.25995123458E+03  0.25995123463E+03  0.50400000000E-02 0. -1.
        -24    2    1    2    0    0  0.00000000000E+00 -0.71054273576E-14 -0.25383437812E+03  0.26606809162E+03  0.79751726401E+02 0.  0.
         66    2    3    3    0    0 -0.20160753329E+02 -0.34269919216E+02 -0.11804718815E+03  0.12457938020E+03  0.20000003327E+01 0.  0.
         13    1    3    3    0    0  0.20160753329E+02  0.34269919216E+02 -0.13578718996E+03  0.14148871142E+03  0.10566000000E+00 0. -1.
         13    1    4    4    0    0 -0.33428186557E+01 -0.59262401943E+01 -0.18262959084E+02  0.19489525339E+02  0.10566000000E+00 0. -1.
        -13    1    4    4    0    0 -0.37193904284E+01 -0.55986574000E+01 -0.20269048794E+02  0.21354726242E+02  0.10566000000E+00 0.  1.
         14    1    4    4    0    0 -0.13098544245E+02 -0.22745021621E+02 -0.79515180276E+02  0.83735128616E+02  0.00000000000E+00 0. -1.
<mgrwt>
<rscale>  0 0.79751726E+02</rscale>
<asrwt>0</asrwt>
<pdfrwt beam="1">  1        1 0.39992489E-01 0.79751726E+02</pdfrwt>
<pdfrwt beam="2">  1       -2 0.94105508E-03 0.79751726E+02</pdfrwt>
<totfact> 0.17693025E+05</totfact>
</mgrwt>
</event>
<event>
 8    1  0.1319619E-020  0.7846573E+02  0.7818608E-02  0.1333463E+00
         -2   -1    0    0    0  501 -0.00000000000E+00  0.00000000000E+00  0.52930871435E+02  0.52930871497E+02  0.25500000000E-02 0.  1.
          1   -1    0    0  501    0  0.00000000000E+00 -0.00000000000E+00 -0.29079769324E+02  0.29079769760E+02  0.50400000000E-02 0. -1.
        -24    2    1    2    0    0  0.00000000000E+00 -0.35527136788E-14  0.23851102112E+02  0.82010641257E+02  0.78465726323E+02 0.  0.
         66    2    3    3    0    0  0.29661893976E+02 -0.25637237618E+02  0.11576219027E+02  0.40928043655E+02  0.20000008858E+01 0.  0.
         13    1    3    3    0    0 -0.29661893976E+02  0.25637237618E+02  0.12274883085E+02  0.41082597602E+02  0.10566000000E+00 0. -1.
         13    1    4    4    0    0  0.11519296095E+01 -0.14731507297E+01  0.70347977129E+00  0.20007905242E+01  0.10566000000E+00 0. -1.
        -13    1    4    4    0    0  0.19360490247E+02 -0.16186333371E+02  0.75823882988E+01  0.26350137513E+02  0.10566000000E+00 0.  1.
         14    1    4    4    0    0  0.91494741204E+01 -0.79777535171E+01  0.32903509571E+01  0.12577115618E+02  0.00000000000E+00 0. -1.
<mgrwt>
<rscale>  0 0.78465726E+02</rscale>
<asrwt>0</asrwt>
<pdfrwt beam="1">  1        1 0.44738107E-02 0.78465726E+02</pdfrwt>
<pdfrwt beam="2">  1       -2 0.81432110E-02 0.78465726E+02</pdfrwt>
<totfact> 0.12716468E+05</totfact>
</mgrwt>
</event>
<event>
 8    1  0.1319619E-020  0.8092710E+02  0.7818608E-02  0.1326441E+00
         -2   -1    0    0    0  501 -0.00000000000E+00  0.00000000000E+00  0.16436988697E+02  0.16436988894E+02  0.25500000000E-02 0.  1.
          1   -1    0    0  501    0  0.00000000000E+00 -0.00000000000E+00 -0.99610644867E+02  0.99610644995E+02  0.50400000000E-02 0. -1.
        -24    2    1    2    0    0 -0.35527136788E-14  0.00000000000E+00 -0.83173656171E+02  0.11604763389E+03  0.80927104548E+02 0.  0.
         66    2    3    3    0    0  0.26760803113E+02 -0.16724324089E+02 -0.53506582974E+01  0.32069816810E+02  0.20000016342E+01 0.  0.
         13    1    3    3    0    0 -0.26760803113E+02  0.16724324089E+02 -0.77822997873E+02  0.83977817080E+02  0.10566000000E+00 0. -1.
         13    1    4    4    0    0  0.13309773799E+02 -0.84790344624E+01 -0.33328619423E+01  0.16129576460E+02  0.10566000000E+00 0. -1.
        -13    1    4    4    0    0  0.13014666660E+01 -0.11469737437E+01 -0.12705890525E+00  0.17426050191E+01  0.10566000000E+00 0.  1.
        -14    1    4    4    0    0  0.12149562647E+02 -0.70983158824E+01 -0.18907374499E+01  0.14197635331E+02  0.00000000000E+00 0.  1.
<mgrwt>
<rscale>  0 0.80927105E+02</rscale>
<asrwt>0</asrwt>
<pdfrwt beam="1">  1        1 0.15324714E-01 0.80927105E+02</pdfrwt>
<pdfrwt beam="2">  1       -2 0.25287676E-02 0.80927105E+02</pdfrwt>
<totfact> 0.14238707E+05</totfact>
</mgrwt>
</event>
<event>
 8    1  0.1319619E-020  0.8085368E+02  0.7818608E-02  0.1326646E+00
         -2   -1    0    0    0  501 -0.00000000000E+00  0.00000000000E+00  0.55894970225E+01  0.55894976042E+01  0.25500000000E-02 0.  1.
          1   -1    0    0  501    0  0.00000000000E+00 -0.00000000000E+00 -0.29239288725E+03  0.29239288730E+03  0.50400000000E-02 0. -1.
        -24    2    1    2    0    0  0.00000000000E+00  0.00000000000E+00 -0.28680339023E+03  0.29798238490E+03  0.80853676870E+02 0.  0.
         66    2    3    3    0    0 -0.93115068092E+01  0.37075195766E+02 -0.19168978275E+03  0.19547441549E+03  0.20000003385E+01 0.  0.
         13    1    3    3    0    0  0.93115068092E+01 -0.37075195766E+02 -0.95113607486E+02  0.10250796941E+03  0.10566000000E+00 0. -1.
         13    1    4    4    0    0 -0.40340794439E+01  0.13875870182E+02 -0.71281876452E+02  0.72731909399E+02  0.10566000000E+00 0. -1.
        -13    1    4    4    0    0 -0.20438389136E+01  0.73335566742E+01 -0.36207208429E+02  0.36999073465E+02  0.10566000000E+00 0.  1.
         14    1    4    4    0    0 -0.32335884516E+01  0.15865768910E+02 -0.84200697864E+02  0.85743432624E+02  0.00000000000E+00 0. -1.
<mgrwt>
<rscale>  0 0.80853677E+02</rscale>
<asrwt>0</asrwt>
<pdfrwt beam="1">  1        1 0.44983509E-01 0.80853677E+02</pdfrwt>
<pdfrwt beam="2">  1       -2 0.85992289E-03 0.80853677E+02</pdfrwt>
<totfact> 0.17457409E+05</totfact>
</mgrwt>
</event>
<event>
 8    1  0.1319619E-020  0.8094905E+02  0.7818608E-02  0.1326380E+00
         -2   -1    0    0    0  501 -0.00000000000E+00  0.00000000000E+00  0.61786596965E+03  0.61786596966E+03  0.25500000000E-02 0.  1.
          1   -1    0    0  501    0  0.00000000000E+00 -0.00000000000E+00 -0.26513608918E+01  0.26513656821E+01  0.50400000000E-02 0. -1.
        -24    2    1    2    0    0  0.00000000000E+00  0.00000000000E+00  0.61521460876E+03  0.62051733534E+03  0.80949049560E+02 0.  0.
         66    2    3    3    0    0  0.11053761837E+02  0.35158982981E+02  0.43556825077E+03  0.43712931818E+03  0.19999993427E+01 0.  0.
         13    1    3    3    0    0 -0.11053761837E+02 -0.35158982981E+02  0.17964635799E+03  0.18338801716E+03  0.10566000000E+00 0. -1.
         13    1    4    4    0    0  0.60018142998E+00  0.31649035463E+01  0.39712829575E+02  0.39843403834E+02  0.10566000000E+00 0. -1.
        -13    1    4    4    0    0  0.55852253718E+01  0.16818512498E+02  0.21593513844E+03  0.21666114623E+03  0.10566000000E+00 0.  1.
        -14    1    4    4    0    0  0.48683550353E+01  0.15175566936E+02  0.17992028275E+03  0.18062476812E+03  0.00000000000E+00 0.  1.
<mgrwt>
<rscale>  0 0.80949050E+02</rscale>
<asrwt>0</asrwt>
<pdfrwt beam="1">  1        1 0.40790210E-03 0.80949050E+02</pdfrwt>
<pdfrwt beam="2">  1       -2 0.95056290E-01 0.80949050E+02</pdfrwt>
<totfact> 0.41108543E+04</totfact>
</mgrwt>
</event>
<event>
 8    1  0.1319619E-020  0.8169403E+02  0.7818608E-02  0.1324312E+00
         -2   -1    0    0    0  501 -0.00000000000E+00  0.00000000000E+00  0.84436423238E+01  0.84436427088E+01  0.25500000000E-02 0.  1.
          1   -1    0    0  501    0  0.00000000000E+00 -0.00000000000E+00 -0.19760174797E+03  0.19760174804E+03  0.50400000000E-02 0. -1.
        -24    2    1    2    0    0  0.00000000000E+00  0.35527136788E-14 -0.18915810565E+03  0.20604539075E+03  0.81694027413E+02 0.  0.
         66    2    3    3    0    0 -0.22151041682E+02 -0.29860187518E+02 -0.52118362395E+02  0.64051722432E+02  0.20000003826E+01 0.  0.
         13    1    3    3    0    0  0.22151041682E+02  0.29860187518E+02 -0.13703974325E+03  0.14199366831E+03  0.10566000000E+00 0. -1.
         13    1    4    4    0    0 -0.94149699714E+01 -0.12685962859E+02 -0.20786432127E+02  0.26108662123E+02  0.10566000000E+00 0.  1.
        -13    1    4    4    0    0 -0.66719482625E+01 -0.91441182967E+01 -0.17363409681E+02  0.20727492681E+02  0.10566000000E+00 0.  1.
        -14    1    4    4    0    0 -0.60641234483E+01 -0.80301063619E+01 -0.13968520587E+02  0.17215567628E+02  0.00000000000E+00 0.  1.
<mgrwt>
<rscale>  0 0.81694027E+02</rscale>
<asrwt>0</asrwt>
<pdfrwt beam="1">  1        1 0.30400266E-01 0.81694027E+02</pdfrwt>
<pdfrwt beam="2">  1       -2 0.12990221E-02 0.81694027E+02</pdfrwt>
<totfact> 0.15733528E+05</totfact>
</mgrwt>
</event>
<event>
 8    1  0.1319619E-020  0.8150596E+02  0.7818608E-02  0.1324831E+00
         -2   -1    0    0    0  501 -0.00000000000E+00  0.00000000000E+00  0.84326468723E+01  0.84326472579E+01  0.25500000000E-02 0.  1.
          1   -1    0    0  501    0  0.00000000000E+00 -0.00000000000E+00 -0.19694944969E+03  0.19694944976E+03  0.50400000000E-02 0. -1.
        -24    2    1    2    0    0  0.00000000000E+00 -0.44408920985E-15 -0.18851680282E+03  0.20538209702E+03  0.81505955787E+02 0.  0.
         66    2    3    3    0    0  0.37157641314E+02  0.31998850890E+01 -0.53073368878E+02  0.64897704519E+02  0.19999988140E+01 0.  0.
         13    1    3    3    0    0 -0.37157641314E+02 -0.31998850890E+01 -0.13544343394E+03  0.14048439250E+03  0.10566000000E+00 0. -1.
         13    1    4    4    0    0  0.67635372635E+01  0.77735853482E+00 -0.95042429429E+01  0.11691514896E+02  0.10566000000E+00 0. -1.
        -13    1    4    4    0    0  0.30158196694E+02  0.24298908749E+01 -0.42895722647E+02  0.52492622176E+02  0.10566000000E+00 0.  1.
         14    1    4    4    0    0  0.23590735719E+00 -0.73643206563E-02 -0.67340328759E+00  0.71356744750E+00  0.00000000000E+00 0. -1.
<mgrwt>
<rscale>  0 0.81505956E+02</rscale>
<asrwt>0</asrwt>
<pdfrwt beam="1">  1        1 0.30299912E-01 0.81505956E+02</pdfrwt>
<pdfrwt beam="2">  1       -2 0.12973305E-02 0.81505956E+02</pdfrwt>
<totfact> 0.15820144E+05</totfact>
</mgrwt>
</event>
<event>
 8    1  0.1319619E-020  0.8040863E+02  0.7818608E-02  0.1327896E+00
         -2   -1    0    0    0  501 -0.00000000000E+00  0.00000000000E+00  0.91083326255E+01  0.91083329824E+01  0.25500000000E-02 0.  1.
          1   -1    0    0  501    0  0.00000000000E+00 -0.00000000000E+00 -0.17746243382E+03  0.17746243389E+03  0.50400000000E-02 0. -1.
        -24    2    1    2    0    0  0.00000000000E+00  0.00000000000E+00 -0.16835410120E+03  0.18657076687E+03  0.80408629282E+02 0.  0.
         66    2    3    3    0    0 -0.35585943306E+02 -0.18557420820E+02 -0.79799280472E+02  0.89345746094E+02  0.19999881944E+01 0.  0.
         13    1    3    3    0    0  0.35585943306E+02  0.18557420820E+02 -0.88554820723E+02  0.97225020781E+02  0.10566000000E+00 0. -1.
         13    1    4    4    0    0 -0.11209588983E+02 -0.49762973165E+01 -0.24061677761E+02  0.27007293846E+02  0.10566000000E+00 0. -1.
        -13    1    4    4    0    0 -0.11725584138E+02 -0.60468300797E+01 -0.26291640120E+02  0.29416236700E+02  0.10566000000E+00 0.  1.
         14    1    4    4    0    0 -0.12650770185E+02 -0.75342934233E+01 -0.29445962592E+02  0.32922215548E+02  0.00000000000E+00 0. -1.
<mgrwt>
<rscale>  0 0.80408629E+02</rscale>
<asrwt>0</asrwt>
<pdfrwt beam="1">  1        1 0.27301911E-01 0.80408629E+02</pdfrwt>
<pdfrwt beam="2">  1       -2 0.14012821E-02 0.80408629E+02</pdfrwt>
<totfact> 0.16074512E+05</totfact>
</mgrwt>
</event>
<event>
 8    1  0.1319619E-020  0.8011689E+02  0.7818608E-02  0.1328720E+00
          1   -1    0    0  501    0  0.00000000000E+00  0.00000000000E+00  0.27322994736E+02  0.27322995201E+02  0.50400000000E-02 0. -1.
         -2   -1    0    0    0  501 -0.00000000000E+00 -0.00000000000E+00 -0.58729983668E+02  0.58729983723E+02  0.25500000000E-02 0.  1.
        -24    2    1    2    0    0  0.17763568394E-14 -0.71054273576E-14 -0.31406988932E+02  0.86052978924E+02  0.80116891027E+02 0.  0.
         66    2    3    3    0    0  0.14819232823E+02  0.36788284975E+02 -0.98610220302E+01  0.40917323100E+02  0.20000003247E+01 0.  0.
         13    1    3    3    0    0 -0.14819232823E+02 -0.36788284975E+02 -0.21545966901E+02  0.45135655824E+02  0.10566000000E+00 0. -1.
         13    1    4    4    0    0  0.28431772435E+00  0.15110475228E+01 -0.26091604120E+00  0.15631194454E+01  0.10566000000E+00 0. -1.
        -13    1    4    4    0    0  0.63407642377E+01  0.14472661012E+02 -0.36904611825E+01  0.16226332785E+02  0.10566000000E+00 0.  1.
        -14    1    4    4    0    0  0.81941508614E+01  0.20804576441E+02 -0.59096448065E+01  0.23127870869E+02  0.00000000000E+00 0.  1.
<mgrwt>
<rscale>  0 0.80116891E+02</rscale>
<asrwt>0</asrwt>
<pdfrwt beam="1">  1        1 0.42035377E-02 0.80116891E+02</pdfrwt>
<pdfrwt beam="2">  1       -2 0.90353821E-02 0.80116891E+02</pdfrwt>
<totfact> 0.11842273E+05</totfact>
</mgrwt>
</event>
<event>
 8    1  0.1319619E-020  0.8586298E+02  0.7818608E-02  0.1313191E+00
         -2   -1    0    0    0  501 -0.00000000000E+00  0.00000000000E+00  0.72948990918E+02  0.72948990962E+02  0.25500000000E-02 0.  1.
          1   -1    0    0  501    0  0.00000000000E+00 -0.00000000000E+00 -0.25265772957E+02  0.25265773460E+02  0.50400000000E-02 0. -1.
        -24    2    1    2    0    0  0.00000000000E+00  0.00000000000E+00  0.47683217960E+02  0.98214764422E+02  0.85862976162E+02 0.  0.
         66    2    3    3    0    0 -0.23749216301E+02  0.32893901181E+01  0.64558094552E+02  0.68895521829E+02  0.19999983943E+01 0.  0.
         13    1    3    3    0    0  0.23749216301E+02 -0.32893901181E+01 -0.16874876592E+02  0.29319242594E+02  0.10566000000E+00 0. -1.
         13    1    4    4    0    0 -0.67304883793E+00  0.12901516529E+00  0.29131721517E+01  0.29945576756E+01  0.10566000000E+00 0. -1.
        -13    1    4    4    0    0 -0.34914630998E+01  0.37276598537E+00  0.97375054874E+01  0.10351784687E+02  0.10566000000E+00 0. -1.
        -14    1    4    4    0    0 -0.19584704363E+02  0.27876089674E+01  0.51907416913E+02  0.55549179466E+02  0.00000000000E+00 0.  1.
<mgrwt>
<rscale>  0 0.85862976E+02</rscale>
<asrwt>0</asrwt>
<pdfrwt beam="1">  1        1 0.38870421E-02 0.85862976E+02</pdfrwt>
<pdfrwt beam="2">  1       -2 0.11222922E-01 0.85862976E+02</pdfrwt>
<totfact> 0.95183125E+04</totfact>
</mgrwt>
</event>
<event>
 8    1  0.1319619E-020  0.7850583E+02  0.7818608E-02  0.1333346E+00
          1   -1    0    0  501    0  0.00000000000E+00  0.00000000000E+00  0.12880935604E+02  0.12880936590E+02  0.50400000000E-02 0. -1.
         -2   -1    0    0    0  501 -0.00000000000E+00 -0.00000000000E+00 -0.11961794872E+03  0.11961794874E+03  0.25500000000E-02 0.  1.
        -24    2    1    2    0    0 -0.35527136788E-14  0.00000000000E+00 -0.10673701311E+03  0.13249888533E+03  0.78505825558E+02 0.  0.
         66    2    3    3    0    0  0.18242525952E+02  0.81677081226E+01 -0.11037046455E+03  0.11218351326E+03  0.19999984510E+01 0.  0.
         13    1    3    3    0    0 -0.18242525952E+02 -0.81677081226E+01  0.36334514366E+01  0.20315372073E+02  0.10566000000E+00 0. -1.
         13    1    4    4    0    0  0.10191396793E+02  0.45031503471E+01 -0.63397209420E+02  0.64368938611E+02  0.10566000000E+00 0. -1.
        -13    1    4    4    0    0  0.78254406987E+01  0.36230206726E+01 -0.44310331173E+02  0.45141781241E+02  0.10566000000E+00 0.  1.
         14    1    4    4    0    0  0.22568845947E+00  0.41537102856E-01 -0.26629239552E+01  0.26727934082E+01  0.00000000000E+00 0. -1.
<mgrwt>
<rscale>  0 0.78505826E+02</rscale>
<asrwt>0</asrwt>
<pdfrwt beam="1">  1        1 0.19816826E-02 0.78505826E+02</pdfrwt>
<pdfrwt beam="2">  1       -2 0.18402761E-01 0.78505826E+02</pdfrwt>
<totfact> 0.10625279E+05</totfact>
</mgrwt>
</event>
<event>
 8    1  0.1319619E-020  0.7524698E+02  0.7818608E-02  0.1343108E+00
          1   -1    0    0  501    0  0.00000000000E+00  0.00000000000E+00  0.60353556444E+01  0.60353577488E+01  0.50400000000E-02 0. -1.
         -2   -1    0    0    0  501 -0.00000000000E+00 -0.00000000000E+00 -0.23453905157E+03  0.23453905158E+03  0.25500000000E-02 0.  1.
        -24    2    1    2    0    0 -0.35527136788E-14  0.35527136788E-14 -0.22850369593E+03  0.24057440933E+03  0.75246975847E+02 0.  0.
         66    2    3    3    0    0  0.24884747006E+02 -0.25709742799E+02 -0.15124229916E+03  0.15542996675E+03  0.20000001949E+01 0.  0.
         13    1    3    3    0    0 -0.24884747006E+02  0.25709742799E+02 -0.77261396770E+02  0.85144442586E+02  0.10566000000E+00 0. -1.
         13    1    4    4    0    0  0.10052923005E+01 -0.16122969365E+01 -0.83810017129E+01  0.85943276508E+01  0.10566000000E+00 0. -1.
        -13    1    4    4    0    0  0.38139374546E+01 -0.35426594826E+01 -0.22069747743E+02  0.22675570215E+02  0.10566000000E+00 0.  1.
        -14    1    4    4    0    0  0.20065517251E+02 -0.20554786380E+02 -0.12079154970E+03  0.12416006888E+03  0.00000000000E+00 0.  1.
<mgrwt>
<rscale>  0 0.75246976E+02</rscale>
<asrwt>0</asrwt>
<pdfrwt beam="1">  1        1 0.92851660E-03 0.75246976E+02</pdfrwt>
<pdfrwt beam="2">  1       -2 0.36082924E-01 0.75246976E+02</pdfrwt>
<totfact> 0.93022548E+04</totfact>
</mgrwt>
</event>
<event>
 8    1  0.1319619E-020  0.7951863E+02  0.7818608E-02  0.1330423E+00
          1   -1    0    0  501    0  0.00000000000E+00  0.00000000000E+00  0.89334458512E+01  0.89334472729E+01  0.50400000000E-02 0. -1.
         -2   -1    0    0    0  501 -0.00000000000E+00 -0.00000000000E+00 -0.17695332492E+03  0.17695332493E+03  0.25500000000E-02 0.  1.
        -24    2    1    2    0    0  0.00000000000E+00  0.00000000000E+00 -0.16801987906E+03  0.18588677221E+03  0.79518628765E+02 0.  0.
         66    2    3    3    0    0  0.68692971229E+01  0.30872095399E+02 -0.27836503376E+02  0.42179905633E+02  0.20000004221E+01 0.  0.
         13    1    3    3    0    0 -0.68692971229E+01 -0.30872095399E+02 -0.14018337569E+03  0.14370686657E+03  0.10566000000E+00 0. -1.
         13    1    4    4    0    0  0.14019673956E+01  0.76821735957E+01 -0.67138518857E+01  0.10298945330E+02  0.10566000000E+00 0. -1.
        -13    1    4    4    0    0  0.13502444612E+01  0.90776228873E+01 -0.82442627381E+01  0.12337156460E+02  0.10566000000E+00 0.  1.
         14    1    4    4    0    0  0.41170852661E+01  0.14112298916E+02 -0.12878388753E+02  0.19543803843E+02  0.00000000000E+00 0. -1.
<mgrwt>
<rscale>  0 0.79518629E+02</rscale>
<asrwt>0</asrwt>
<pdfrwt beam="1">  1        1 0.13743765E-02 0.79518629E+02</pdfrwt>
<pdfrwt beam="2">  1       -2 0.27223586E-01 0.79518629E+02</pdfrwt>
<totfact> 0.90614786E+04</totfact>
</mgrwt>
</event>
<event>
 8    1  0.1319619E-020  0.8019437E+02  0.7818608E-02  0.1328501E+00
          1   -1    0    0  501    0  0.00000000000E+00  0.00000000000E+00  0.80574801423E+02  0.80574801580E+02  0.50400000000E-02 0. -1.
         -2   -1    0    0    0  501 -0.00000000000E+00 -0.00000000000E+00 -0.19953935398E+02  0.19953935561E+02  0.25500000000E-02 0.  1.
        -24    2    1    2    0    0  0.00000000000E+00  0.00000000000E+00  0.60620866025E+02  0.10052873714E+03  0.80194373827E+02 0.  0.
         66    2    3    3    0    0 -0.15711797259E+02 -0.36859120583E+02  0.31042881738E+02  0.50725889213E+02  0.19999966323E+01 0.  0.
         13    1    3    3    0    0  0.15711797259E+02  0.36859120583E+02  0.29577984286E+02  0.49802847928E+02  0.10566000000E+00 0. -1.
         13    1    4    4    0    0 -0.70021909207E+01 -0.15004490070E+02  0.12759968845E+02  0.20904386356E+02  0.10566000000E+00 0. -1.
        -13    1    4    4    0    0 -0.82514561479E+01 -0.20951372886E+02  0.17777053381E+02  0.28689394300E+02  0.10566000000E+00 0.  1.
         14    1    4    4    0    0 -0.45815019001E+00 -0.90325762742E+00  0.50585951240E+00  0.11321085568E+01  0.00000000000E+00 0. -1.
<mgrwt>
<rscale>  0 0.80194374E+02</rscale>
<asrwt>0</asrwt>
<pdfrwt beam="1">  1        1 0.12396123E-01 0.80194374E+02</pdfrwt>
<pdfrwt beam="2">  1       -2 0.30698362E-02 0.80194374E+02</pdfrwt>
<totfact> 0.14092312E+05</totfact>
</mgrwt>
</event>
<event>
 8    1  0.1319619E-020  0.7852572E+02  0.7818608E-02  0.1333288E+00
         -2   -1    0    0    0  501 -0.00000000000E+00  0.00000000000E+00  0.65863031988E+01  0.65863036924E+01  0.25500000000E-02 0.  1.
          1   -1    0    0  501    0  0.00000000000E+00 -0.00000000000E+00 -0.23405729403E+03  0.23405729408E+03  0.50400000000E-02 0. -1.
        -24    2    1    2    0    0  0.00000000000E+00  0.26645352591E-14 -0.22747099083E+03  0.24064359777E+03  0.78525724964E+02 0.  0.
         66    2    3    3    0    0 -0.38530281014E+02 -0.73718852093E+01 -0.11626104329E+03  0.12271738846E+03  0.19999995185E+01 0.  0.
         13    1    3    3    0    0  0.38530281014E+02  0.73718852093E+01 -0.11120994754E+03  0.11792620931E+03  0.10566000000E+00 0. -1.
         13    1    4    4    0    0 -0.61814940730E+01 -0.10657668357E+01 -0.17781961764E+02  0.18856194106E+02  0.10566000000E+00 0. -1.
        -13    1    4    4    0    0 -0.21799775672E+02 -0.37029964158E+01 -0.64205431180E+02  0.67906486869E+02  0.10566000000E+00 0.  1.
         14    1    4    4    0    0 -0.10549011269E+02 -0.26031219578E+01 -0.34273650346E+02  0.35954707490E+02  0.00000000000E+00 0. -1.
<mgrwt>
<rscale>  0 0.78525725E+02</rscale>
<asrwt>0</asrwt>
<pdfrwt beam="1">  1        1 0.36008808E-01 0.78525725E+02</pdfrwt>
<pdfrwt beam="2">  1       -2 0.10132776E-02 0.78525725E+02</pdfrwt>
<totfact> 0.18059761E+05</totfact>
</mgrwt>
</event>
<event>
 8    1  0.1319619E-020  0.7311886E+02  0.7818608E-02  0.1349797E+00
         -2   -1    0    0    0  501 -0.00000000000E+00  0.00000000000E+00  0.92103687828E+01  0.92103691358E+01  0.25500000000E-02 0.  1.
          1   -1    0    0  501    0  0.00000000000E+00 -0.00000000000E+00 -0.14511816233E+03  0.14511816242E+03  0.50400000000E-02 0. -1.
        -24    2    1    2    0    0 -0.88817841970E-15  0.00000000000E+00 -0.13590779355E+03  0.15432853156E+03  0.73118857381E+02 0.  0.
         66    2    3    3    0    0 -0.61347381038E+01 -0.35919848938E+02 -0.73474580338E+02  0.82038920717E+02  0.19999992910E+01 0.  0.
         13    1    3    3    0    0  0.61347381038E+01  0.35919848938E+02 -0.62433213212E+02  0.72289610839E+02  0.10566000000E+00 0. -1.
         13    1    4    4    0    0 -0.93781317856E+00 -0.43709897661E+01 -0.80065292181E+01  0.91706444293E+01  0.10566000000E+00 0. -1.
        -13    1    4    4    0    0 -0.52433910138E+01 -0.30960829773E+02 -0.64406456714E+02  0.71653813297E+02  0.10566000000E+00 0.  1.
        -14    1    4    4    0    0  0.46466088496E-01 -0.58802939879E+00 -0.10615944062E+01  0.12144629901E+01  0.00000000000E+00 0.  1.
<mgrwt>
<rscale>  0 0.73118857E+02</rscale>
<asrwt>0</asrwt>
<pdfrwt beam="1">  1        1 0.22325869E-01 0.73118857E+02</pdfrwt>
<pdfrwt beam="2">  1       -2 0.14169800E-02 0.73118857E+02</pdfrwt>
<totfact> 0.19931181E+05</totfact>
</mgrwt>
</event>
<event>
 8    1  0.1319619E-020  0.7874344E+02  0.7818608E-02  0.1332656E+00
         -2   -1    0    0    0  501 -0.00000000000E+00  0.00000000000E+00  0.20428410071E+02  0.20428410230E+02  0.25500000000E-02 0.  1.
          1   -1    0    0  501    0  0.00000000000E+00 -0.00000000000E+00 -0.75881201994E+02  0.75881202162E+02  0.50400000000E-02 0. -1.
        -24    2    1    2    0    0  0.00000000000E+00  0.00000000000E+00 -0.55452791923E+02  0.96309612392E+02  0.78743439772E+02 0.  0.
         66    2    3    3    0    0  0.65307733601E+01 -0.38799460706E+02 -0.27402133791E+02  0.47988812136E+02  0.20000005464E+01 0.  0.
         13    1    3    3    0    0 -0.65307733601E+01  0.38799460706E+02 -0.28050658132E+02  0.48320800256E+02  0.10566000000E+00 0. -1.
         13    1    4    4    0    0  0.34102995158E+01 -0.23078432101E+02 -0.15496145263E+02  0.28006889386E+02  0.10566000000E+00 0. -1.
        -13    1    4    4    0    0  0.24630676901E+01 -0.12087166795E+02 -0.87492186485E+01  0.15123699765E+02  0.10566000000E+00 0.  1.
         14    1    4    4    0    0  0.65740615418E+00 -0.36338618096E+01 -0.31567698794E+01  0.48582229853E+01  0.00000000000E+00 0. -1.
<mgrwt>
<rscale>  0 0.78743440E+02</rscale>
<asrwt>0</asrwt>
<pdfrwt beam="1">  1        1 0.11674031E-01 0.78743440E+02</pdfrwt>
<pdfrwt beam="2">  1       -2 0.31428324E-02 0.78743440E+02</pdfrwt>
<totfact> 0.14669383E+05</totfact>
</mgrwt>
</event>
<event>
 8    1  0.1319619E-020  0.8047305E+02  0.7818608E-02  0.1327714E+00
         -2   -1    0    0    0  501 -0.00000000000E+00  0.00000000000E+00  0.23595945862E+02  0.23595946000E+02  0.25500000000E-02 0.  1.
          1   -1    0    0  501    0  0.00000000000E+00 -0.00000000000E+00 -0.68612538785E+02  0.68612538970E+02  0.50400000000E-02 0. -1.
        -24    2    1    2    0    0  0.00000000000E+00  0.00000000000E+00 -0.45016592923E+02  0.92208484970E+02  0.80473045563E+02 0.  0.
         66    2    3    3    0    0  0.21887392998E+02 -0.33679725729E+02 -0.20350849117E+02  0.45072596531E+02  0.20000002048E+01 0.  0.
         13    1    3    3    0    0 -0.21887392998E+02  0.33679725729E+02 -0.24665743806E+02  0.47135888439E+02  0.10566000000E+00 0. -1.
         13    1    4    4    0    0  0.16831294880E+01 -0.24497796979E+01 -0.16457652402E+01  0.33991252850E+01  0.10566000000E+00 0. -1.
        -13    1    4    4    0    0  0.14286508536E+02 -0.22514192708E+02 -0.12526988819E+02  0.29460648539E+02  0.10566000000E+00 0.  1.
        -14    1    4    4    0    0  0.59177549736E+01 -0.87157533235E+01 -0.61780950579E+01  0.12212822707E+02  0.00000000000E+00 0.  1.
<mgrwt>
<rscale>  0 0.80473046E+02</rscale>
<asrwt>0</asrwt>
<pdfrwt beam="1">  1        1 0.10555775E-01 0.80473046E+02</pdfrwt>
<pdfrwt beam="2">  1       -2 0.36301456E-02 0.80473046E+02</pdfrwt>
<totfact> 0.13605111E+05</totfact>
</mgrwt>
</event>
<event>
 8    1  0.1319619E-020  0.7548625E+02  0.7818608E-02  0.1342372E+00
         -2   -1    0    0    0  501 -0.00000000000E+00  0.00000000000E+00  0.61661286905E+01  0.61661292178E+01  0.25500000000E-02 0.  1.
          1   -1    0    0  501    0  0.00000000000E+00 -0.00000000000E+00 -0.23102717832E+03  0.23102717837E+03  0.50400000000E-02 0. -1.
        -24    2    1    2    0    0  0.00000000000E+00  0.00000000000E+00 -0.22486104963E+03  0.23719330759E+03  0.75486247266E+02 0.  0.
         66    2    3    3    0    0  0.29664114067E+02 -0.17951648322E+02 -0.65869205200E+02  0.74464579029E+02  0.19999988524E+01 0.  0.
         13    1    3    3    0    0 -0.29664114067E+02  0.17951648322E+02 -0.15899184443E+03  0.16272872856E+03  0.10566000000E+00 0. -1.
         13    1    4    4    0    0  0.16873851078E+02 -0.96418290861E+01 -0.38576788567E+02  0.43195734725E+02  0.10566000000E+00 0. -1.
        -13    1    4    4    0    0  0.99820146587E+01 -0.65778559893E+01 -0.21732431938E+02  0.24803599900E+02  0.10566000000E+00 0.  1.
         14    1    4    4    0    0  0.28082483307E+01 -0.17319632461E+01 -0.55599846960E+01  0.64652444031E+01  0.00000000000E+00 0. -1.
<mgrwt>
<rscale>  0 0.75486247E+02</rscale>
<asrwt>0</asrwt>
<pdfrwt beam="1">  1        1 0.35542636E-01 0.75486247E+02</pdfrwt>
<pdfrwt beam="2">  1       -2 0.94863540E-03 0.75486247E+02</pdfrwt>
<totfact> 0.19990226E+05</totfact>
</mgrwt>
</event>
<event>
 8    1  0.1319619E-020  0.8231124E+02  0.7818608E-02  0.1322618E+00
         -2   -1    0    0    0  501 -0.00000000000E+00  0.00000000000E+00  0.50958493588E+02  0.50958493652E+02  0.25500000000E-02 0.  1.
          1   -1    0    0  501    0  0.00000000000E+00 -0.00000000000E+00 -0.33238524442E+02  0.33238524824E+02  0.50400000000E-02 0. -1.
        -24    2    1    2    0    0  0.00000000000E+00  0.00000000000E+00  0.17719969146E+02  0.84197018476E+02  0.82311242329E+02 0.  0.
         66    2    3    3    0    0 -0.17954798444E+02  0.29058634930E+02  0.32303045187E+02  0.47055985615E+02  0.20000006745E+01 0.  0.
         13    1    3    3    0    0  0.17954798444E+02 -0.29058634930E+02 -0.14583076041E+02  0.37141032861E+02  0.10566000000E+00 0. -1.
         13    1    4    4    0    0 -0.10590493510E+01  0.19352134989E+01  0.22526177607E+01  0.31546929527E+01  0.10566000000E+00 0. -1.
        -13    1    4    4    0    0 -0.85230682120E+01  0.14538709642E+02  0.14800229502E+02  0.22429327390E+02  0.10566000000E+00 0.  1.
        -14    1    4    4    0    0 -0.83726808814E+01  0.12584711789E+02  0.15250197924E+02  0.21471965272E+02  0.00000000000E+00 0.  1.
<mgrwt>
<rscale>  0 0.82311242E+02</rscale>
<asrwt>0</asrwt>
<pdfrwt beam="1">  1        1 0.51136192E-02 0.82311242E+02</pdfrwt>
<pdfrwt beam="2">  1       -2 0.78397682E-02 0.82311242E+02</pdfrwt>
<totfact> 0.11348799E+05</totfact>
</mgrwt>
</event>
<event>
 8    1  0.1319619E-020  0.7963028E+02  0.7818608E-02  0.1330104E+00
          1   -1    0    0  501    0  0.00000000000E+00  0.00000000000E+00  0.12519183616E+03  0.12519183626E+03  0.50400000000E-02 0. -1.
         -2   -1    0    0    0  501 -0.00000000000E+00 -0.00000000000E+00 -0.12662529424E+02  0.12662529680E+02  0.25500000000E-02 0.  1.
        -24    2    1    2    0    0 -0.35527136788E-14  0.00000000000E+00  0.11252930673E+03  0.13785436594E+03  0.79630279005E+02 0.  0.
         66    2    3    3    0    0  0.26682001119E+02  0.24029363044E+02  0.26621492268E+02  0.44744198813E+02  0.20000012010E+01 0.  0.
         13    1    3    3    0    0 -0.26682001119E+02 -0.24029363044E+02  0.85907814464E+02  0.93110167124E+02  0.10566000000E+00 0. -1.
         13    1    4    4    0    0  0.37992397630E+00  0.43957637657E+00  0.22636935557E+00  0.63243714260E+00  0.10566000000E+00 0. -1.
        -13    1    4    4    0    0  0.23501925488E+02  0.21370114376E+02  0.23941539985E+02  0.39777264750E+02  0.10566000000E+00 0.  1.
        -14    1    4    4    0    0  0.28001516547E+01  0.22196722916E+01  0.24535829276E+01  0.43344969206E+01  0.00000000000E+00 0.  1.
<mgrwt>
<rscale>  0 0.79630279E+02</rscale>
<asrwt>0</asrwt>
<pdfrwt beam="1">  1        1 0.19260283E-01 0.79630279E+02</pdfrwt>
<pdfrwt beam="2">  1       -2 0.19480815E-02 0.79630279E+02</pdfrwt>
<totfact> 0.15471279E+05</totfact>
</mgrwt>
</event>
<event>
 8    1  0.1319619E-020  0.8156631E+02  0.7818608E-02  0.1324664E+00
         -2   -1    0    0    0  501 -0.00000000000E+00  0.00000000000E+00  0.70635491014E+02  0.70635491060E+02  0.25500000000E-02 0.  1.
          1   -1    0    0  501    0  0.00000000000E+00 -0.00000000000E+00 -0.23547164231E+02  0.23547164770E+02  0.50400000000E-02 0. -1.
        -24    2    1    2    0    0  0.00000000000E+00  0.35527136788E-14  0.47088326784E+02  0.94182655830E+02  0.81566305175E+02 0.  0.
         66    2    3    3    0    0 -0.19358940955E+02  0.29457397908E+02  0.47186958831E+02  0.58933148334E+02  0.20000005969E+01 0.  0.
         13    1    3    3    0    0  0.19358940955E+02 -0.29457397908E+02 -0.98632047005E-01  0.35249507497E+02  0.10566000000E+00 0. -1.
         13    1    4    4    0    0 -0.27405833101E+01  0.35965655628E+01  0.55373347308E+01  0.71497776668E+01  0.10566000000E+00 0. -1.
        -13    1    4    4    0    0 -0.15332337850E+02  0.23213465971E+02  0.37325730320E+02  0.46552839809E+02  0.10566000000E+00 0.  1.
         14    1    4    4    0    0 -0.12860197947E+01  0.26473663751E+01  0.43238937800E+01  0.52305308580E+01  0.00000000000E+00 0. -1.
<mgrwt>
<rscale>  0 0.81566305E+02</rscale>
<asrwt>0</asrwt>
<pdfrwt beam="1">  1        1 0.36226408E-02 0.81566305E+02</pdfrwt>
<pdfrwt beam="2">  1       -2 0.10866998E-01 0.81566305E+02</pdfrwt>
<totfact> 0.10918748E+05</totfact>
</mgrwt>
</event>
<event>
 8    1  0.1319619E-020  0.7849291E+02  0.7818608E-02  0.1333384E+00
          1   -1    0    0  501    0  0.00000000000E+00  0.00000000000E+00  0.24465576864E+02  0.24465577383E+02  0.50400000000E-02 0. -1.
         -2   -1    0    0    0  501 -0.00000000000E+00 -0.00000000000E+00 -0.62957192144E+02  0.62957192196E+02  0.25500000000E-02 0.  1.
        -24    2    1    2    0    0  0.00000000000E+00  0.00000000000E+00 -0.38491615280E+02  0.87422769578E+02  0.78492905373E+02 0.  0.
         66    2    3    3    0    0  0.37192082859E+02 -0.14891009240E+01 -0.33026271808E+02  0.49801637322E+02  0.20000003759E+01 0.  0.
         13    1    3    3    0    0 -0.37192082859E+02  0.14891009240E+01 -0.54653434729E+01  0.37621132256E+02  0.10566000000E+00 0. -1.
         13    1    4    4    0    0  0.55082848305E+01 -0.30223187672E+00 -0.41301549316E+01  0.68921614662E+01  0.10566000000E+00 0. -1.
        -13    1    4    4    0    0  0.23158275004E+02 -0.53680541090E+00 -0.20725497676E+02  0.31082974104E+02  0.10566000000E+00 0.  1.
        -14    1    4    4    0    0  0.85255230245E+01 -0.65006363643E+00 -0.81706191997E+01  0.11826501752E+02  0.00000000000E+00 0.  1.
<mgrwt>
<rscale>  0 0.78492905E+02</rscale>
<asrwt>0</asrwt>
<pdfrwt beam="1">  1        1 0.37639350E-02 0.78492905E+02</pdfrwt>
<pdfrwt beam="2">  1       -2 0.96857218E-02 0.78492905E+02</pdfrwt>
<totfact> 0.12310877E+05</totfact>
</mgrwt>
</event>
<event>
 8    1  0.1319619E-020  0.8028976E+02  0.7818608E-02  0.1328231E+00
         -2   -1    0    0    0  501 -0.00000000000E+00  0.00000000000E+00  0.22458409442E+02  0.22458409587E+02  0.25500000000E-02 0.  1.
          1   -1    0    0  501    0  0.00000000000E+00 -0.00000000000E+00 -0.71759821529E+02  0.71759821706E+02  0.50400000000E-02 0. -1.
        -24    2    1    2    0    0  0.00000000000E+00  0.00000000000E+00 -0.49301412088E+02  0.94218231293E+02  0.80289761951E+02 0.  0.
         66    2    3    3    0    0  0.38655625160E+02  0.42465450040E+01 -0.13089735255E+02  0.41080794358E+02  0.19999987574E+01 0.  0.
         13    1    3    3    0    0 -0.38655625160E+02 -0.42465450040E+01 -0.36211676833E+02  0.53137436935E+02  0.10566000000E+00 0. -1.
         13    1    4    4    0    0  0.21382660908E+02  0.22279103954E+01 -0.73691125104E+01  0.22726564973E+02  0.10566000000E+00 0.  1.
        -13    1    4    4    0    0  0.12863969673E+01  0.38802321306E+00 -0.19824610283E+00  0.13622939200E+01  0.10566000000E+00 0.  1.
        -14    1    4    4    0    0  0.15986567285E+02  0.16306113956E+01 -0.55223766418E+01  0.16991935465E+02  0.00000000000E+00 0.  1.
<mgrwt>
<rscale>  0 0.80289762E+02</rscale>
<asrwt>0</asrwt>
<pdfrwt beam="1">  1        1 0.11039973E-01 0.80289762E+02</pdfrwt>
<pdfrwt beam="2">  1       -2 0.34551399E-02 0.80289762E+02</pdfrwt>
<totfact> 0.13788246E+05</totfact>
</mgrwt>
</event>
<event>
 8    1  0.1319619E-020  0.8005826E+02  0.7818608E-02  0.1328886E+00
          1   -1    0    0  501    0  0.00000000000E+00  0.00000000000E+00  0.51720623471E+02  0.51720623717E+02  0.50400000000E-02 0. -1.
         -2   -1    0    0    0  501 -0.00000000000E+00 -0.00000000000E+00 -0.30980509513E+02  0.30980509618E+02  0.25500000000E-02 0.  1.
        -24    2    1    2    0    0  0.00000000000E+00  0.00000000000E+00  0.20740113958E+02  0.82701133335E+02  0.80058260835E+02 0.  0.
         66    2    3    3    0    0 -0.36619324720E+02 -0.15660574459E+02  0.64978591273E+01  0.40403597685E+02  0.19999993372E+01 0.  0.
         13    1    3    3    0    0  0.36619324720E+02  0.15660574459E+02  0.14242254831E+02  0.42297535650E+02  0.10566000000E+00 0. -1.
         13    1    4    4    0    0 -0.59328352369E+01 -0.22754082874E+01  0.42157552894E+00  0.63690585477E+01  0.10566000000E+00 0. -1.
        -13    1    4    4    0    0 -0.23046296429E+02 -0.10219168005E+02  0.48736838360E+01  0.25677366142E+02  0.10566000000E+00 0.  1.
        -14    1    4    4    0    0 -0.76401930538E+01 -0.31659981672E+01  0.12025997624E+01  0.83571729959E+01  0.00000000000E+00 0.  1.
<mgrwt>
<rscale>  0 0.80058261E+02</rscale>
<asrwt>0</asrwt>
<pdfrwt beam="1">  1        1 0.79570190E-02 0.80058261E+02</pdfrwt>
<pdfrwt beam="2">  1       -2 0.47662323E-02 0.80058261E+02</pdfrwt>
<totfact> 0.13200513E+05</totfact>
</mgrwt>
</event>
<event>
 8    1  0.1319619E-020  0.8066134E+02  0.7818608E-02  0.1327185E+00
          1   -1    0    0  501    0  0.00000000000E+00  0.00000000000E+00  0.11443679189E+03  0.11443679200E+03  0.50400000000E-02 0. -1.
         -2   -1    0    0    0  501 -0.00000000000E+00 -0.00000000000E+00 -0.14213635488E+02  0.14213635716E+02  0.25500000000E-02 0.  1.
        -24    2    1    2    0    0  0.35527136788E-14 -0.71054273576E-14  0.10022315641E+03  0.12865042772E+03  0.80661338154E+02 0.  0.
         66    2    3    3    0    0  0.31063471404E+02 -0.25563067400E+02  0.46187535191E+02  0.61283750538E+02  0.20000005947E+01 0.  0.
         13    1    3    3    0    0 -0.31063471404E+02  0.25563067400E+02  0.54035621215E+02  0.67366677183E+02  0.10566000000E+00 0. -1.
         13    1    4    4    0    0  0.10071608367E+02 -0.92854720591E+01  0.14999356659E+02  0.20313767516E+02  0.10566000000E+00 0. -1.
        -13    1    4    4    0    0  0.19978320820E+02 -0.15368734470E+02  0.29627780287E+02  0.38899200901E+02  0.10566000000E+00 0.  1.
         14    1    4    4    0    0  0.10135422178E+01 -0.90886087151E+00  0.15603982454E+01  0.20707821216E+01  0.00000000000E+00 0. -1.
<mgrwt>
<rscale>  0 0.80661338E+02</rscale>
<asrwt>0</asrwt>
<pdfrwt beam="1">  1        1 0.17605660E-01 0.80661338E+02</pdfrwt>
<pdfrwt beam="2">  1       -2 0.21867132E-02 0.80661338E+02</pdfrwt>
<totfact> 0.14711639E+05</totfact>
</mgrwt>
</event>
<event>
 8    1  0.1319619E-020  0.7962487E+02  0.7818608E-02  0.1330119E+00
          1   -1    0    0  501    0  0.00000000000E+00  0.00000000000E+00  0.30290180860E+02  0.30290181279E+02  0.50400000000E-02 0. -1.
         -2   -1    0    0    0  501 -0.00000000000E+00 -0.00000000000E+00 -0.52328183442E+02  0.52328183504E+02  0.25500000000E-02 0.  1.
        -24    2    1    2    0    0 -0.17763568394E-14  0.00000000000E+00 -0.22038002582E+02  0.82618364784E+02  0.79624874516E+02 0.  0.
         66    2    3    3    0    0 -0.14519303808E+02 -0.26014038808E+02 -0.38389434609E+02  0.48634237731E+02  0.19999979880E+01 0.  0.
         13    1    3    3    0    0  0.14519303808E+02  0.26014038808E+02  0.16351432027E+02  0.33984127053E+02  0.10566000000E+00 0. -1.
         13    1    4    4    0    0 -0.16457775228E+01 -0.28241043683E+01 -0.42007298416E+01  0.53236683194E+01  0.10566000000E+00 0.  1.
        -13    1    4    4    0    0 -0.11531968985E+02 -0.21576457651E+02 -0.30954966394E+02  0.39455683265E+02  0.10566000000E+00 0.  1.
        -14    1    4    4    0    0 -0.13415573001E+01 -0.16134767884E+01 -0.32337383731E+01  0.38548861464E+01  0.00000000000E+00 0.  1.
<mgrwt>
<rscale>  0 0.79624875E+02</rscale>
<asrwt>0</asrwt>
<pdfrwt beam="1">  1        1 0.46600279E-02 0.79624875E+02</pdfrwt>
<pdfrwt beam="2">  1       -2 0.80504898E-02 0.79624875E+02</pdfrwt>
<totfact> 0.12279974E+05</totfact>
</mgrwt>
</event>
<event>
 8    1  0.1319619E-020  0.8124567E+02  0.7818608E-02  0.1325553E+00
          1   -1    0    0  501    0  0.00000000000E+00  0.00000000000E+00  0.21289854273E+01  0.21289913930E+01  0.50400000000E-02 0. -1.
         -2   -1    0    0    0  501 -0.00000000000E+00 -0.00000000000E+00 -0.77511678629E+03  0.77511678630E+03  0.25500000000E-02 0.  1.
        -24    2    1    2    0    0  0.88817841970E-15  0.00000000000E+00 -0.77298780087E+03  0.77724577769E+03  0.81245668500E+02 0.  0.
         66    2    3    3    0    0 -0.63037423891E+01 -0.16835250713E+02 -0.73496354014E+03  0.73518607723E+03  0.19999973974E+01 0.  0.
         13    1    3    3    0    0  0.63037423891E+01  0.16835250713E+02 -0.38024260726E+02  0.42059700456E+02  0.10566000000E+00 0. -1.
         13    1    4    4    0    0 -0.17340155083E+01 -0.48029923032E+01 -0.17969553852E+03  0.17976810973E+03  0.10566000000E+00 0. -1.
        -13    1    4    4    0    0 -0.63961003615E+00 -0.27126761858E+01 -0.11551602455E+03  0.11554968977E+03  0.10566000000E+00 0.  1.
         14    1    4    4    0    0 -0.39301168447E+01 -0.93195822236E+01 -0.43975197706E+03  0.43986827774E+03  0.00000000000E+00 0. -1.
<mgrwt>
<rscale>  0 0.81245669E+02</rscale>
<asrwt>0</asrwt>
<pdfrwt beam="1">  1        1 0.32753730E-03 0.81245669E+02</pdfrwt>
<pdfrwt beam="2">  1       -2 0.11924851E+00 0.81245669E+02</pdfrwt>
<totfact> 0.32962473E+04</totfact>
</mgrwt>
</event>
<event>
 8    1  0.1319619E-020  0.8160328E+02  0.7818608E-02  0.1324562E+00
          1   -1    0    0  501    0  0.00000000000E+00  0.00000000000E+00  0.70935110984E+02  0.70935111163E+02  0.50400000000E-02 0. -1.
         -2   -1    0    0    0  501 -0.00000000000E+00 -0.00000000000E+00 -0.23468965798E+02  0.23468965937E+02  0.25500000000E-02 0.  1.
        -24    2    1    2    0    0  0.35527136788E-14 -0.17763568394E-14  0.47466145186E+02  0.94404077100E+02  0.81603277105E+02 0.  0.
         66    2    3    3    0    0  0.26358337093E+02 -0.14280423880E+02 -0.82307265623E+01  0.31151842933E+02  0.20000044642E+01 0.  0.
         13    1    3    3    0    0 -0.26358337093E+02  0.14280423880E+02  0.55696871748E+02  0.63252234167E+02  0.10566000000E+00 0. -1.
         13    1    4    4    0    0  0.15226236705E+01 -0.53231930628E+00 -0.15839908843E+00  0.16241924125E+01  0.10566000000E+00 0. -1.
        -13    1    4    4    0    0  0.16424498232E+02 -0.86561217818E+01 -0.50362416866E+01  0.19237138063E+02  0.10566000000E+00 0.  1.
         14    1    4    4    0    0  0.84112151902E+01 -0.50919827924E+01 -0.30360857872E+01  0.10290512458E+02  0.00000000000E+00 0. -1.
<mgrwt>
<rscale>  0 0.81603277E+02</rscale>
<asrwt>0</asrwt>
<pdfrwt beam="1">  1        1 0.10913094E-01 0.81603277E+02</pdfrwt>
<pdfrwt beam="2">  1       -2 0.36106102E-02 0.81603277E+02</pdfrwt>
<totfact> 0.13164097E+05</totfact>
</mgrwt>
</event>
<event>
 8    1  0.1319619E-020  0.7930748E+02  0.7818608E-02  0.1331028E+00
         -2   -1    0    0    0  501 -0.00000000000E+00  0.00000000000E+00  0.10485159568E+03  0.10485159572E+03  0.25500000000E-02 0.  1.
          1   -1    0    0  501    0  0.00000000000E+00 -0.00000000000E+00 -0.14996614331E+02  0.14996615178E+02  0.50400000000E-02 0. -1.
        -24    2    1    2    0    0  0.71054273576E-14  0.00000000000E+00  0.89854981353E+02  0.11984821089E+03  0.79307477454E+02 0.  0.
         66    2    3    3    0    0 -0.32342768502E+02 -0.11376985377E+02  0.74987270430E+02  0.82477761835E+02  0.20000000188E+01 0.  0.
         13    1    3    3    0    0  0.32342768502E+02  0.11376985377E+02  0.14867710924E+02  0.37370449058E+02  0.10566000000E+00 0. -1.
         13    1    4    4    0    0 -0.83623800970E+01 -0.35485821562E+01  0.18861880933E+02  0.20935700431E+02  0.10566000000E+00 0.  1.
        -13    1    4    4    0    0 -0.17825729827E+02 -0.54915532315E+01  0.42233784740E+02  0.46169443772E+02  0.10566000000E+00 0. -1.
        -14    1    4    4    0    0 -0.61546585789E+01 -0.23368499891E+01  0.13891604757E+02  0.15372617631E+02  0.00000000000E+00 0.  1.
<mgrwt>
<rscale>  0 0.79307477E+02</rscale>
<asrwt>0</asrwt>
<pdfrwt beam="1">  1        1 0.23071714E-02 0.79307477E+02</pdfrwt>
<pdfrwt beam="2">  1       -2 0.16131015E-01 0.79307477E+02</pdfrwt>
<totfact> 0.10722890E+05</totfact>
</mgrwt>
</event>
<event>
 8    1  0.1319619E-020  0.8038170E+02  0.7818608E-02  0.1327972E+00
          1   -1    0    0  501    0  0.00000000000E+00  0.00000000000E+00  0.64274788484E+02  0.64274788682E+02  0.50400000000E-02 0. -1.
         -2   -1    0    0    0  501 -0.00000000000E+00 -0.00000000000E+00 -0.25131225605E+02  0.25131225734E+02  0.25500000000E-02 0.  1.
        -24    2    1    2    0    0 -0.17763568394E-14  0.00000000000E+00  0.39143562880E+02  0.89406014416E+02  0.80381695049E+02 0.  0.
         66    2    3    3    0    0  0.13511991604E+02  0.22093636394E+02 -0.14564704436E+02  0.29779746478E+02  0.19999996821E+01 0.  0.
         13    1    3    3    0    0 -0.13511991604E+02 -0.22093636394E+02  0.53708267315E+02  0.59626267939E+02  0.10566000000E+00 0. -1.
         13    1    4    4    0    0  0.15261123664E+01  0.35610492872E+01 -0.23075916982E+01  0.45106800443E+01  0.10566000000E+00 0. -1.
        -13    1    4    4    0    0  0.45711695815E+01  0.73608333168E+01 -0.42460065837E+01  0.96497250948E+01  0.10566000000E+00 0.  1.
         14    1    4    4    0    0  0.74147096566E+01  0.11171753790E+02 -0.80111061537E+01  0.15619341339E+02  0.00000000000E+00 0. -1.
<mgrwt>
<rscale>  0 0.80381695E+02</rscale>
<asrwt>0</asrwt>
<pdfrwt beam="1">  1        1 0.98884289E-02 0.80381695E+02</pdfrwt>
<pdfrwt beam="2">  1       -2 0.38663425E-02 0.80381695E+02</pdfrwt>
<totfact> 0.13507428E+05</totfact>
</mgrwt>
</event>
<event>
 8    1  0.1319619E-020  0.8067029E+02  0.7818608E-02  0.1327160E+00
          1   -1    0    0  501    0  0.00000000000E+00  0.00000000000E+00  0.58291323744E+02  0.58291323962E+02  0.50400000000E-02 0. -1.
         -2   -1    0    0    0  501 -0.00000000000E+00 -0.00000000000E+00 -0.27910223628E+02  0.27910223745E+02  0.25500000000E-02 0.  1.
        -24    2    1    2    0    0 -0.22204460493E-15 -0.71054273576E-14  0.30381100116E+02  0.86201547707E+02  0.80670289344E+02 0.  0.
         66    2    3    3    0    0  0.17962466186E+01  0.30450507053E+02 -0.12959628101E+02  0.33202587641E+02  0.19999959644E+01 0.  0.
         13    1    3    3    0    0 -0.17962466186E+01 -0.30450507053E+02  0.43340728217E+02  0.52998960066E+02  0.10566000000E+00 0. -1.
         13    1    4    4    0    0  0.10964380942E+01  0.13394641086E+02 -0.53432465530E+01  0.14463057563E+02  0.10566000000E+00 0.  1.
        -13    1    4    4    0    0  0.10741790405E+01  0.13850598852E+02 -0.60602136645E+01  0.15156856629E+02  0.10566000000E+00 0. -1.
         14    1    4    4    0    0 -0.37437051607E+00  0.32052671147E+01 -0.15561678834E+01  0.35826734489E+01  0.00000000000E+00 0. -1.
<mgrwt>
<rscale>  0 0.80670289E+02</rscale>
<asrwt>0</asrwt>
<pdfrwt beam="1">  1        1 0.89678959E-02 0.80670289E+02</pdfrwt>
<pdfrwt beam="2">  1       -2 0.42938806E-02 0.80670289E+02</pdfrwt>
<totfact> 0.13170319E+05</totfact>
</mgrwt>
</event>
<event>
 8    1  0.1319619E-020  0.7930465E+02  0.7818608E-02  0.1331036E+00
          1   -1    0    0  501    0  0.00000000000E+00  0.00000000000E+00  0.12561630255E+02  0.12561631266E+02  0.50400000000E-02 0. -1.
         -2   -1    0    0    0  501 -0.00000000000E+00 -0.00000000000E+00 -0.12516741731E+03  0.12516741734E+03  0.25500000000E-02 0.  1.
        -24    2    1    2    0    0  0.17763568394E-14 -0.35527136788E-14 -0.11260578706E+03  0.13772904861E+03  0.79304650248E+02 0.  0.
         66    2    3    3    0    0 -0.14476211031E+02 -0.27559131544E+02 -0.98922872867E+02  0.10372464122E+03  0.20000004472E+01 0.  0.
         13    1    3    3    0    0  0.14476211031E+02  0.27559131544E+02 -0.13682914193E+02  0.34004407392E+02  0.10566000000E+00 0. -1.
         13    1    4    4    0    0 -0.87711766733E+01 -0.16838764823E+02 -0.58558608806E+02  0.61559721980E+02  0.10566000000E+00 0. -1.
        -13    1    4    4    0    0 -0.49432335334E+01 -0.84078663631E+01 -0.32011031409E+02  0.33464086278E+02  0.10566000000E+00 0.  1.
        -14    1    4    4    0    0 -0.76180082387E+00 -0.23125003574E+01 -0.83532326518E+01  0.87008329563E+01  0.00000000000E+00 0.  1.
<mgrwt>
<rscale>  0 0.79304650E+02</rscale>
<asrwt>0</asrwt>
<pdfrwt beam="1">  1        1 0.19325587E-02 0.79304650E+02</pdfrwt>
<pdfrwt beam="2">  1       -2 0.19256525E-01 0.79304650E+02</pdfrwt>
<totfact> 0.10220301E+05</totfact>
</mgrwt>
</event>
<event>
 8    1  0.1319619E-020  0.8063662E+02  0.7818608E-02  0.1327254E+00
         -2   -1    0    0    0  501 -0.00000000000E+00  0.00000000000E+00  0.40181120945E+03  0.40181120945E+03  0.25500000000E-02 0.  1.
          1   -1    0    0  501    0  0.00000000000E+00 -0.00000000000E+00 -0.40455956242E+01  0.40455987636E+01  0.50400000000E-02 0. -1.
        -24    2    1    2    0    0  0.00000000000E+00  0.00000000000E+00  0.39776561382E+03  0.40585680822E+03  0.80636624666E+02 0.  0.
         66    2    3    3    0    0  0.12032222254E+02 -0.34349457922E+02  0.28602192970E+03  0.28833522834E+03  0.20000001076E+01 0.  0.
         13    1    3    3    0    0 -0.12032222254E+02  0.34349457922E+02  0.11174368412E+03  0.11752157988E+03  0.10566000000E+00 0. -1.
         13    1    4    4    0    0  0.38395272463E+01 -0.12979075690E+02  0.10951499255E+03  0.11034828106E+03  0.10566000000E+00 0. -1.
        -13    1    4    4    0    0  0.79615515241E+01 -0.20553530251E+02  0.17105942317E+03  0.17247368301E+03  0.10566000000E+00 0.  1.
         14    1    4    4    0    0  0.23114348335E+00 -0.81685198042E+00  0.54475139710E+01  0.55132642719E+01  0.00000000000E+00 0. -1.
<mgrwt>
<rscale>  0 0.80636625E+02</rscale>
<asrwt>0</asrwt>
<pdfrwt beam="1">  1        1 0.62239927E-03 0.80636625E+02</pdfrwt>
<pdfrwt beam="2">  1       -2 0.61817139E-01 0.80636625E+02</pdfrwt>
<totfact> 0.57721708E+04</totfact>
</mgrwt>
</event>
<event>
 8    1  0.1319619E-020  0.8052821E+02  0.7818608E-02  0.1327559E+00
          1   -1    0    0  501    0  0.00000000000E+00  0.00000000000E+00  0.88787697666E+01  0.88787711970E+01  0.50400000000E-02 0. -1.
         -2   -1    0    0    0  501 -0.00000000000E+00 -0.00000000000E+00 -0.18259265556E+03  0.18259265558E+03  0.25500000000E-02 0.  1.
        -24    2    1    2    0    0  0.00000000000E+00 -0.88817841970E-15 -0.17371388580E+03  0.19147142678E+03  0.80528213403E+02 0.  0.
         66    2    3    3    0    0  0.26199775676E+02  0.67200356714E+01 -0.15774833339E+03  0.16006287456E+03  0.19999999607E+01 0.  0.
         13    1    3    3    0    0 -0.26199775676E+02 -0.67200356714E+01 -0.15965552409E+02  0.31408552222E+02  0.10566000000E+00 0. -1.
         13    1    4    4    0    0  0.81953596577E+01  0.25458208872E+01 -0.49600239258E+02  0.50337262763E+02  0.10566000000E+00 0. -1.
        -13    1    4    4    0    0  0.82255741650E+01  0.21758681778E+01 -0.45816975443E+02  0.46600438576E+02  0.10566000000E+00 0.  1.
         14    1    4    4    0    0  0.97788418532E+01  0.19983466064E+01 -0.62331118686E+02  0.63125173218E+02  0.00000000000E+00 0. -1.
<mgrwt>
<rscale>  0 0.80528213E+02</rscale>
<asrwt>0</asrwt>
<pdfrwt beam="1">  1        1 0.13659648E-02 0.80528213E+02</pdfrwt>
<pdfrwt beam="2">  1       -2 0.28091175E-01 0.80528213E+02</pdfrwt>
<totfact> 0.86688514E+04</totfact>
</mgrwt>
</event>
<event>
 8    1  0.1319619E-020  0.7706888E+02  0.7818608E-02  0.1337581E+00
         -2   -1    0    0    0  501 -0.00000000000E+00  0.00000000000E+00  0.86442571370E+01  0.86442575131E+01  0.25500000000E-02 0.  1.
          1   -1    0    0  501    0  0.00000000000E+00 -0.00000000000E+00 -0.17177915201E+03  0.17177915208E+03  0.50400000000E-02 0. -1.
        -24    2    1    2    0    0  0.00000000000E+00  0.00000000000E+00 -0.16313489487E+03  0.18042340960E+03  0.77068883509E+02 0.  0.
         66    2    3    3    0    0 -0.33662079128E+02 -0.68541382088E+01 -0.40886080199E+02  0.53439557730E+02  0.19999986265E+01 0.  0.
         13    1    3    3    0    0  0.33662079128E+02  0.68541382088E+01 -0.12224881467E+03  0.12698385187E+03  0.10566000000E+00 0. -1.
         13    1    4    4    0    0 -0.20545205436E+01 -0.59501145324E+00 -0.32353991785E+01  0.38799568520E+01  0.10566000000E+00 0. -1.
        -13    1    4    4    0    0 -0.59148353602E+01 -0.10232824622E+01 -0.67719041995E+01  0.90499853513E+01  0.10566000000E+00 0.  1.
         14    1    4    4    0    0 -0.25692723224E+02 -0.52358442933E+01 -0.30878776821E+02  0.40509615526E+02  0.00000000000E+00 0. -1.
<mgrwt>
<rscale>  0 0.77068884E+02</rscale>
<asrwt>0</asrwt>
<pdfrwt beam="1">  1        1 0.26427559E-01 0.77068884E+02</pdfrwt>
<pdfrwt beam="2">  1       -2 0.13298859E-02 0.77068884E+02</pdfrwt>
<totfact> 0.17882673E+05</totfact>
</mgrwt>
</event>
<event>
 8    1  0.1319619E-020  0.8458644E+02  0.7818608E-02  0.1316518E+00
         -2   -1    0    0    0  501 -0.00000000000E+00  0.00000000000E+00  0.15657360186E+02  0.15657360394E+02  0.25500000000E-02 0.  1.
          1   -1    0    0  501    0  0.00000000000E+00 -0.00000000000E+00 -0.11424126177E+03  0.11424126188E+03  0.50400000000E-02 0. -1.
        -24    2    1    2    0    0  0.00000000000E+00 -0.71054273576E-14 -0.98583901579E+02  0.12989862227E+03  0.84586443459E+02 0.  0.
         66    2    3    3    0    0  0.13658946674E+02  0.37953484691E+02 -0.29913879636E+02  0.50258074167E+02  0.19999999060E+01 0.  0.
         13    1    3    3    0    0 -0.13658946674E+02 -0.37953484691E+02 -0.68670021943E+02  0.79640548103E+02  0.10566000000E+00 0. -1.
         13    1    4    4    0    0  0.23851631459E+01  0.81242132927E+01 -0.66257339490E+01  0.10751900263E+02  0.10566000000E+00 0. -1.
        -13    1    4    4    0    0  0.72348448323E+01  0.20482793855E+02 -0.16248563752E+02  0.27127749849E+02  0.10566000000E+00 0.  1.
         14    1    4    4    0    0  0.40389386959E+01  0.93464775439E+01 -0.70395819352E+01  0.12378424055E+02  0.00000000000E+00 0. -1.
<mgrwt>
<rscale>  0 0.84586443E+02</rscale>
<asrwt>0</asrwt>
<pdfrwt beam="1">  1        1 0.17575578E-01 0.84586443E+02</pdfrwt>
<pdfrwt beam="2">  1       -2 0.24088247E-02 0.84586443E+02</pdfrwt>
<totfact> 0.12934790E+05</totfact>
</mgrwt>
</event>
<event>
 8    1  0.1319619E-020  0.8014015E+02  0.7818608E-02  0.1328654E+00
          1   -1    0    0  501    0  0.00000000000E+00  0.00000000000E+00  0.43097539770E+03  0.43097539773E+03  0.50400000000E-02 0. -1.
         -2   -1    0    0    0  501 -0.00000000000E+00 -0.00000000000E+00 -0.37255274176E+01  0.37255282903E+01  0.25500000000E-02 0.  1.
        -24    2    1    2    0    0  0.00000000000E+00  0.00000000000E+00  0.42724987028E+03  0.43470092602E+03  0.80140148653E+02 0.  0.
         66    2    3    3    0    0 -0.12576948560E+02  0.36880658762E+02  0.26383832112E+03  0.26670774702E+03  0.20000012003E+01 0.  0.
         13    1    3    3    0    0  0.12576948560E+02 -0.36880658762E+02  0.16341154916E+03  0.16799317900E+03  0.10566000000E+00 0. -1.
         13    1    4    4    0    0 -0.44397813720E+01  0.11473987708E+02  0.79239396188E+02  0.80188884048E+02  0.10566000000E+00 0. -1.
        -13    1    4    4    0    0 -0.64878559919E+01  0.21302330515E+02  0.15335808982E+03  0.15496643649E+03  0.10566000000E+00 0.  1.
        -14    1    4    4    0    0 -0.16493111965E+01  0.41043405385E+01  0.31240835116E+02  0.31552426490E+02  0.00000000000E+00 0.  1.
<mgrwt>
<rscale>  0 0.80140149E+02</rscale>
<asrwt>0</asrwt>
<pdfrwt beam="1">  1        1 0.66303878E-01 0.80140149E+02</pdfrwt>
<pdfrwt beam="2">  1       -2 0.57315839E-03 0.80140149E+02</pdfrwt>
<totfact> 0.19129807E+05</totfact>
</mgrwt>
</event>
<event>
 8    1  0.1319619E-020  0.8038900E+02  0.7818608E-02  0.1327951E+00
         -2   -1    0    0    0  501 -0.00000000000E+00  0.00000000000E+00  0.55564741255E+02  0.55564741314E+02  0.25500000000E-02 0.  1.
          1   -1    0    0  501    0  0.00000000000E+00 -0.00000000000E+00 -0.29075954465E+02  0.29075954902E+02  0.50400000000E-02 0. -1.
        -24    2    1    2    0    0  0.00000000000E+00  0.00000000000E+00  0.26488786790E+02  0.84640696216E+02  0.80389001924E+02 0.  0.
         66    2    3    3    0    0  0.21595915197E+02 -0.33171828315E+02  0.20458453031E+02  0.44601592377E+02  0.19999987883E+01 0.  0.
         13    1    3    3    0    0 -0.21595915197E+02  0.33171828315E+02  0.60303337585E+01  0.40039103839E+02  0.10566000000E+00 0. -1.
         13    1    4    4    0    0  0.46216589612E+01 -0.76906251695E+01  0.51739131991E+01  0.10357895002E+02  0.10566000000E+00 0. -1.
        -13    1    4    4    0    0  0.85094443131E+01 -0.11709407447E+02  0.69874372603E+01  0.16073465985E+02  0.10566000000E+00 0.  1.
        -14    1    4    4    0    0  0.84648119227E+01 -0.13771795698E+02  0.82971025721E+01  0.18170231389E+02  0.00000000000E+00 0.  1.
<mgrwt>
<rscale>  0 0.80389002E+02</rscale>
<asrwt>0</asrwt>
<pdfrwt beam="1">  1        1 0.44732239E-02 0.80389002E+02</pdfrwt>
<pdfrwt beam="2">  1       -2 0.85484216E-02 0.80389002E+02</pdfrwt>
<totfact> 0.11860568E+05</totfact>
</mgrwt>
</event>
<event>
 8    1  0.1319619E-020  0.7991486E+02  0.7818608E-02  0.1329293E+00
          1   -1    0    0  501    0  0.00000000000E+00  0.00000000000E+00  0.15965009243E+03  0.15965009251E+03  0.50400000000E-02 0. -1.
         -2   -1    0    0    0  501 -0.00000000000E+00 -0.00000000000E+00 -0.10000596832E+02  0.10000597157E+02  0.25500000000E-02 0.  1.
        -24    2    1    2    0    0  0.00000000000E+00 -0.17763568394E-14  0.14964949560E+03  0.16965068967E+03  0.79914860770E+02 0.  0.
         66    2    3    3    0    0 -0.37344863954E+02 -0.12095797487E+02  0.59322961435E+02  0.71162918252E+02  0.20000000235E+01 0.  0.
         13    1    3    3    0    0  0.37344863954E+02  0.12095797487E+02  0.90326534165E+02  0.98487771418E+02  0.10566000000E+00 0. -1.
         13    1    4    4    0    0 -0.12018073784E+02 -0.46499755218E+01  0.19273941058E+02  0.23185174957E+02  0.10566000000E+00 0. -1.
        -13    1    4    4    0    0 -0.99693617055E+01 -0.31255293904E+01  0.15021628387E+02  0.18298021483E+02  0.10566000000E+00 0.  1.
        -14    1    4    4    0    0 -0.15357428464E+02 -0.43202925749E+01  0.25027391991E+02  0.29679721812E+02  0.00000000000E+00 0.  1.
<mgrwt>
<rscale>  0 0.79914861E+02</rscale>
<asrwt>0</asrwt>
<pdfrwt beam="1">  1        1 0.24561550E-01 0.79914861E+02</pdfrwt>
<pdfrwt beam="2">  1       -2 0.15385535E-02 0.79914861E+02</pdfrwt>
<totfact> 0.16017706E+05</totfact>
</mgrwt>
</event>
<event>
 8    1  0.1319619E-020  0.7684003E+02  0.7818608E-02  0.1338266E+00
          1   -1    0    0  501    0  0.00000000000E+00  0.00000000000E+00  0.51722001515E+02  0.51722001761E+02  0.50400000000E-02 0. -1.
         -2   -1    0    0    0  501 -0.00000000000E+00 -0.00000000000E+00 -0.28539066235E+02  0.28539066349E+02  0.25500000000E-02 0.  1.
        -24    2    1    2    0    0  0.00000000000E+00  0.00000000000E+00  0.23182935280E+02  0.80261068110E+02  0.76840032314E+02 0.  0.
         66    2    3    3    0    0 -0.21142226937E+02  0.31412283880E+02  0.49628962558E+01  0.38240759634E+02  0.20000049379E+01 0.  0.
         13    1    3    3    0    0  0.21142226937E+02 -0.31412283880E+02  0.18220039024E+02  0.42020308476E+02  0.10566000000E+00 0. -1.
         13    1    4    4    0    0 -0.63554070214E+01  0.98707425540E+01  0.84909840515E+00  0.11770934080E+02  0.10566000000E+00 0. -1.
        -13    1    4    4    0    0 -0.34794528115E+01  0.45749688030E+01  0.59924610849E+00  0.57798954446E+01  0.10566000000E+00 0.  1.
         14    1    4    4    0    0 -0.11307367104E+02  0.16966572523E+02  0.35145517421E+01  0.20689930109E+02  0.00000000000E+00 0. -1.
<mgrwt>
<rscale>  0 0.76840032E+02</rscale>
<asrwt>0</asrwt>
<pdfrwt beam="1">  1        1 0.79572309E-02 0.76840032E+02</pdfrwt>
<pdfrwt beam="2">  1       -2 0.43906257E-02 0.76840032E+02</pdfrwt>
<totfact> 0.14787912E+05</totfact>
</mgrwt>
</event>
<event>
 8    1  0.1319619E-020  0.7990662E+02  0.7818608E-02  0.1329317E+00
          1   -1    0    0  501    0  0.00000000000E+00  0.00000000000E+00  0.10644630739E+02  0.10644631932E+02  0.50400000000E-02 0. -1.
         -2   -1    0    0    0  501 -0.00000000000E+00 -0.00000000000E+00 -0.14995981953E+03  0.14995981956E+03  0.25500000000E-02 0.  1.
        -24    2    1    2    0    0 -0.22204460493E-15  0.00000000000E+00 -0.13931518880E+03  0.16060445149E+03  0.79906620556E+02 0.  0.
         66    2    3    3    0    0 -0.18572368149E+01 -0.20489057456E+02 -0.13848002952E+03  0.14001417565E+03  0.20000006124E+01 0.  0.
         13    1    3    3    0    0  0.18572368149E+01  0.20489057456E+02 -0.83515927283E+00  0.20590275838E+02  0.10566000000E+00 0. -1.
         13    1    4    4    0    0  0.40861426408E+00 -0.26901252732E+01 -0.18030008879E+02  0.18234476242E+02  0.10566000000E+00 0. -1.
        -13    1    4    4    0    0 -0.19297674249E+01 -0.15779597492E+02 -0.10609437697E+03  0.10727883150E+03  0.10566000000E+00 0.  1.
         14    1    4    4    0    0 -0.33608365407E+00 -0.20193346908E+01 -0.14355643670E+02  0.14500867905E+02  0.00000000000E+00 0. -1.
<mgrwt>
<rscale>  0 0.79906621E+02</rscale>
<asrwt>0</asrwt>
<pdfrwt beam="1">  1        1 0.16376357E-02 0.79906621E+02</pdfrwt>
<pdfrwt beam="2">  1       -2 0.23070740E-01 0.79906621E+02</pdfrwt>
<totfact> 0.94803097E+04</totfact>
</mgrwt>
</event>
<event>
 8    1  0.1319619E-020  0.7944099E+02  0.7818608E-02  0.1330645E+00
         -2   -1    0    0    0  501 -0.00000000000E+00  0.00000000000E+00  0.94241152386E+01  0.94241155836E+01  0.25500000000E-02 0.  1.
          1   -1    0    0  501    0  0.00000000000E+00 -0.00000000000E+00 -0.16741280257E+03  0.16741280264E+03  0.50400000000E-02 0. -1.
        -24    2    1    2    0    0  0.35527136788E-14  0.35527136788E-14 -0.15798868733E+03  0.17683691823E+03  0.79440986424E+02 0.  0.
         66    2    3    3    0    0 -0.25395052461E+02 -0.28874664493E+02 -0.10097450836E+03  0.10806713775E+03  0.19999960763E+01 0.  0.
         13    1    3    3    0    0  0.25395052461E+02  0.28874664493E+02 -0.57014178971E+02  0.68769780477E+02  0.10566000000E+00 0. -1.
         13    1    4    4    0    0 -0.89393363918E+01 -0.94946755854E+01 -0.33540458943E+02  0.35986582913E+02  0.10566000000E+00 0. -1.
        -13    1    4    4    0    0 -0.43686204788E+01 -0.47637570186E+01 -0.15662066228E+02  0.16943721799E+02  0.10566000000E+00 0.  1.
        -14    1    4    4    0    0 -0.12087095590E+02 -0.14616231889E+02 -0.51771983185E+02  0.55136833037E+02  0.00000000000E+00 0.  1.
<mgrwt>
<rscale>  0 0.79440986E+02</rscale>
<asrwt>0</asrwt>
<pdfrwt beam="1">  1        1 0.25755814E-01 0.79440986E+02</pdfrwt>
<pdfrwt beam="2">  1       -2 0.14498640E-02 0.79440986E+02</pdfrwt>
<totfact> 0.16419041E+05</totfact>
</mgrwt>
</event>
<event>
 8    1  0.1319619E-020  0.8396487E+02  0.7818608E-02  0.1318162E+00
          1   -1    0    0  501    0  0.00000000000E+00  0.00000000000E+00  0.94926225429E+02  0.94926225563E+02  0.50400000000E-02 0. -1.
         -2   -1    0    0    0  501 -0.00000000000E+00 -0.00000000000E+00 -0.18567312843E+02  0.18567313018E+02  0.25500000000E-02 0.  1.
        -24    2    1    2    0    0  0.00000000000E+00  0.00000000000E+00  0.76358912586E+02  0.11349353858E+03  0.83964872228E+02 0.  0.
         66    2    3    3    0    0 -0.33094886814E+02  0.25716732751E+02  0.35532372996E+02  0.54983373861E+02  0.19999984449E+01 0.  0.
         13    1    3    3    0    0  0.33094886814E+02 -0.25716732751E+02  0.40826539590E+02  0.58510164720E+02  0.10566000000E+00 0. -1.
         13    1    4    4    0    0 -0.79030731879E+01  0.60503993126E+01  0.87312120725E+01  0.13240510789E+02  0.10566000000E+00 0.  1.
        -13    1    4    4    0    0 -0.15724026249E+02  0.12007425335E+02  0.15567241106E+02  0.25174856988E+02  0.10566000000E+00 0.  1.
        -14    1    4    4    0    0 -0.94677873766E+01  0.76589081031E+01  0.11233919817E+02  0.16568006084E+02  0.00000000000E+00 0.  1.
<mgrwt>
<rscale>  0 0.83964872E+02</rscale>
<asrwt>0</asrwt>
<pdfrwt beam="1">  1        1 0.14604034E-01 0.83964872E+02</pdfrwt>
<pdfrwt beam="2">  1       -2 0.28565098E-02 0.83964872E+02</pdfrwt>
<totfact> 0.12777653E+05</totfact>
</mgrwt>
</event>
<event>
 8    1  0.1319619E-020  0.8135259E+02  0.7818608E-02  0.1325256E+00
          1   -1    0    0  501    0  0.00000000000E+00  0.00000000000E+00  0.17412348202E+03  0.17412348209E+03  0.50400000000E-02 0. -1.
         -2   -1    0    0    0  501 -0.00000000000E+00 -0.00000000000E+00 -0.95022281899E+01  0.95022285321E+01  0.25500000000E-02 0.  1.
        -24    2    1    2    0    0  0.00000000000E+00  0.00000000000E+00  0.16462125383E+03  0.18362571062E+03  0.81352593012E+02 0.  0.
         66    2    3    3    0    0  0.33228112865E+02  0.20114256081E+02  0.55287000000E+02  0.67596916755E+02  0.20000008916E+01 0.  0.
         13    1    3    3    0    0 -0.33228112865E+02 -0.20114256081E+02  0.10933425383E+03  0.11602879387E+03  0.10566000000E+00 0. -1.
         13    1    4    4    0    0  0.97696208378E+01  0.67388577761E+01  0.16420793680E+02  0.20261079058E+02  0.10566000000E+00 0. -1.
        -13    1    4    4    0    0  0.12016240653E+02  0.73788239246E+01  0.20121394725E+02  0.24570689279E+02  0.10566000000E+00 0.  1.
         14    1    4    4    0    0  0.11442251373E+02  0.59965743802E+01  0.18744811595E+02  0.22765148418E+02  0.00000000000E+00 0. -1.
<mgrwt>
<rscale>  0 0.81352593E+02</rscale>
<asrwt>0</asrwt>
<pdfrwt beam="1">  1        1 0.26788224E-01 0.81352593E+02</pdfrwt>
<pdfrwt beam="2">  1       -2 0.14618815E-02 0.81352593E+02</pdfrwt>
<totfact> 0.15525725E+05</totfact>
</mgrwt>
</event>
<event>
 8    1  0.1582394E-020  0.7925573E+02  0.7818608E-02  0.1331177E+00
          1   -1    0    0  501    0  0.00000000000E+00  0.00000000000E+00  0.35153504621E+02  0.35153504982E+02  0.50400000000E-02 0. -1.
         -2   -1    0    0    0  501 -0.00000000000E+00 -0.00000000000E+00 -0.44671728658E+02  0.44671728731E+02  0.25500000000E-02 0.  1.
        -24    2    1    2    0    0 -0.88817841970E-15 -0.71054273576E-14 -0.95182240370E+01  0.79825233713E+02  0.79255733852E+02 0.  0.
         66    2    3    3    0    0 -0.73591728598E+01 -0.23018995964E+02 -0.36361629896E+02  0.43705831689E+02  0.19999986287E+01 0.  0.
         13    1    3    3    0    0  0.73591728598E+01  0.23018995964E+02  0.26843405859E+02  0.36119402024E+02  0.10566000000E+00 0. -1.
         13    1    4    4    0    0 -0.27026106373E+00 -0.22796616979E+01 -0.34234940248E+01  0.41232722288E+01  0.10566000000E+00 0. -1.
        -13    1    4    4    0    0 -0.14639669874E+01 -0.43206410938E+01 -0.60093161327E+01  0.75454743535E+01  0.10566000000E+00 0.  1.
        -14    1    4    4    0    0 -0.56249448086E+01 -0.16418693172E+02 -0.26928819739E+02  0.32037085107E+02  0.00000000000E+00 0.  1.
<mgrwt>
<rscale>  0 0.79255734E+02</rscale>
<asrwt>0</asrwt>
<pdfrwt beam="1">  1        1 0.54082315E-02 0.79255734E+02</pdfrwt>
<pdfrwt beam="2">  1       -2 0.68725737E-02 0.79255734E+02</pdfrwt>
<totfact> 0.12763873E+05</totfact>
</mgrwt>
</event>
<event>
 8    1  0.1319619E-020  0.8075230E+02  0.7818608E-02  0.1326930E+00
          1   -1    0    0  501    0  0.00000000000E+00  0.00000000000E+00  0.28799902761E+02  0.28799903202E+02  0.50400000000E-02 0. -1.
         -2   -1    0    0    0  501 -0.00000000000E+00 -0.00000000000E+00 -0.56605519176E+02  0.56605519234E+02  0.25500000000E-02 0.  1.
        -24    2    1    2    0    0 -0.35527136788E-14  0.00000000000E+00 -0.27805616415E+02  0.85405422436E+02  0.80752299517E+02 0.  0.
         66    2    3    3    0    0  0.24129031024E+02  0.32217521009E+02 -0.16911997026E+02  0.43705771292E+02  0.20000006826E+01 0.  0.
         13    1    3    3    0    0 -0.24129031024E+02 -0.32217521009E+02 -0.10893619389E+02  0.41699651144E+02  0.10566000000E+00 0. -1.
         13    1    4    4    0    0  0.87258540382E+00  0.13462873252E+01 -0.99532159001E+00  0.18909584745E+01  0.10566000000E+00 0. -1.
        -13    1    4    4    0    0  0.18970816545E+02  0.25451835761E+02 -0.13492702919E+02  0.34492782145E+02  0.10566000000E+00 0.  1.
        -14    1    4    4    0    0  0.42856290750E+01  0.54193979225E+01 -0.24239725168E+01  0.73220306728E+01  0.00000000000E+00 0.  1.
<mgrwt>
<rscale>  0 0.80752300E+02</rscale>
<asrwt>0</asrwt>
<pdfrwt beam="1">  1        1 0.44307543E-02 0.80752300E+02</pdfrwt>
<pdfrwt beam="2">  1       -2 0.87085414E-02 0.80752300E+02</pdfrwt>
<totfact> 0.11686963E+05</totfact>
</mgrwt>
</event>
<event>
 8    1  0.1319619E-020  0.7929381E+02  0.7818608E-02  0.1331068E+00
         -2   -1    0    0    0  501 -0.00000000000E+00  0.00000000000E+00  0.16445349567E+02  0.16445349765E+02  0.25500000000E-02 0.  1.
          1   -1    0    0  501    0  0.00000000000E+00 -0.00000000000E+00 -0.95581851436E+02  0.95581851569E+02  0.50400000000E-02 0. -1.
        -24    2    1    2    0    0  0.35527136788E-14  0.00000000000E+00 -0.79136501870E+02  0.11202720133E+03  0.79293807517E+02 0.  0.
         66    2    3    3    0    0  0.18106150728E+02  0.30774952119E+02 -0.15329918967E+02  0.38909340604E+02  0.19999996399E+01 0.  0.
         13    1    3    3    0    0 -0.18106150728E+02 -0.30774952119E+02 -0.63806582902E+02  0.73117860730E+02  0.10566000000E+00 0. -1.
         13    1    4    4    0    0  0.41617573199E+00  0.70562704499E+00 -0.88270555054E-01  0.83070301131E+00  0.10566000000E+00 0. -1.
        -13    1    4    4    0    0  0.16759791071E+01  0.30838666853E+01 -0.13534462742E+01  0.37632592991E+01  0.10566000000E+00 0.  1.
         14    1    4    4    0    0  0.16013995889E+02  0.26985458389E+02 -0.13888202138E+02  0.34315378293E+02  0.00000000000E+00 0. -1.
<mgrwt>
<rscale>  0 0.79293808E+02</rscale>
<asrwt>0</asrwt>
<pdfrwt beam="1">  1        1 0.14704900E-01 0.79293808E+02</pdfrwt>
<pdfrwt beam="2">  1       -2 0.25300539E-02 0.79293808E+02</pdfrwt>
<totfact> 0.14942471E+05</totfact>
</mgrwt>
</event>
<event>
 8    1  0.1319619E-020  0.7781428E+02  0.7818608E-02  0.1335371E+00
          1   -1    0    0  501    0  0.00000000000E+00  0.00000000000E+00  0.60694341459E+02  0.60694341668E+02  0.50400000000E-02 0. -1.
         -2   -1    0    0    0  501 -0.00000000000E+00 -0.00000000000E+00 -0.24940803218E+02  0.24940803348E+02  0.25500000000E-02 0.  1.
        -24    2    1    2    0    0  0.00000000000E+00  0.00000000000E+00  0.35753538242E+02  0.85635145016E+02  0.77814282527E+02 0.  0.
         66    2    3    3    0    0 -0.10044939166E+02  0.99409405375E+01 -0.21974076504E+02  0.26202731555E+02  0.20000002701E+01 0.  0.
         13    1    3    3    0    0  0.10044939166E+02 -0.99409405375E+01  0.57727614746E+02  0.59432413462E+02  0.10566000000E+00 0. -1.
         13    1    4    4    0    0 -0.83770992983E+00  0.77583685592E+00 -0.13455375061E+01  0.17678563204E+01  0.10566000000E+00 0. -1.
        -13    1    4    4    0    0 -0.39693406313E+01  0.41680899765E+01 -0.76517077338E+01  0.95754077918E+01  0.10566000000E+00 0.  1.
         14    1    4    4    0    0 -0.52378886051E+01  0.49970137051E+01 -0.12976831264E+02  0.14859467442E+02  0.00000000000E+00 0. -1.
<mgrwt>
<rscale>  0 0.77814283E+02</rscale>
<asrwt>0</asrwt>
<pdfrwt beam="1">  1        1 0.93375911E-02 0.77814283E+02</pdfrwt>
<pdfrwt beam="2">  1       -2 0.38370466E-02 0.77814283E+02</pdfrwt>
<totfact> 0.14636036E+05</totfact>
</mgrwt>
</event>
<event>
 8    1  0.1319619E-020  0.7248451E+02  0.7818608E-02  0.1351843E+00
          1   -1    0    0  501    0  0.00000000000E+00  0.00000000000E+00  0.89285486663E+02  0.89285486805E+02  0.50400000000E-02 0. -1.
         -2   -1    0    0    0  501 -0.00000000000E+00 -0.00000000000E+00 -0.14711248669E+02  0.14711248890E+02  0.25500000000E-02 0.  1.
        -24    2    1    2    0    0  0.00000000000E+00 -0.35527136788E-14  0.74574237994E+02  0.10399673569E+03  0.72484509123E+02 0.  0.
         66    2    3    3    0    0  0.18823593288E+02  0.30279720662E+02  0.46424307188E+02  0.58569663193E+02  0.20000002657E+01 0.  0.
         13    1    3    3    0    0 -0.18823593288E+02 -0.30279720662E+02  0.28149930806E+02  0.45427072502E+02  0.10566000000E+00 0. -1.
         13    1    4    4    0    0  0.16178975439E+01  0.33250720698E+01  0.46934068192E+01  0.59760294794E+01  0.10566000000E+00 0. -1.
        -13    1    4    4    0    0  0.70844574467E+01  0.12393956814E+02  0.18780006322E+02  0.23590241718E+02  0.10566000000E+00 0.  1.
         14    1    4    4    0    0  0.10121238297E+02  0.14560691778E+02  0.22950894046E+02  0.29003391996E+02  0.00000000000E+00 0. -1.
<mgrwt>
<rscale>  0 0.72484509E+02</rscale>
<asrwt>0</asrwt>
<pdfrwt beam="1">  1        1 0.13736229E-01 0.72484509E+02</pdfrwt>
<pdfrwt beam="2">  1       -2 0.22632690E-02 0.72484509E+02</pdfrwt>
<totfact> 0.18813419E+05</totfact>
</mgrwt>
</event>
<event>
 8    1  0.1319619E-020  0.7906228E+02  0.7818608E-02  0.1331734E+00
         -2   -1    0    0    0  501 -0.00000000000E+00  0.00000000000E+00  0.46023946542E+01  0.46023953606E+01  0.25500000000E-02 0.  1.
          1   -1    0    0  501    0  0.00000000000E+00 -0.00000000000E+00 -0.33954299798E+03  0.33954299801E+03  0.50400000000E-02 0. -1.
        -24    2    1    2    0    0  0.00000000000E+00  0.00000000000E+00 -0.33494060332E+03  0.34414539337E+03  0.79062279419E+02 0.  0.
         66    2    3    3    0    0 -0.32428166740E+02  0.18868566751E+02 -0.11371841234E+03  0.11976429400E+03  0.20000007027E+01 0.  0.
         13    1    3    3    0    0  0.32428166740E+02 -0.18868566751E+02 -0.22122219099E+03  0.22438109938E+03  0.10566000000E+00 0. -1.
         13    1    4    4    0    0 -0.44602175053E+00  0.29994523150E+00 -0.19837942821E+01  0.20580345802E+01  0.10566000000E+00 0.  1.
        -13    1    4    4    0    0 -0.30192195346E+02  0.17888815018E+02 -0.10643141734E+03  0.11206799777E+03  0.10566000000E+00 0.  1.
         14    1    4    4    0    0 -0.17899496432E+01  0.67980650209E+00 -0.53032007119E+01  0.56382616467E+01  0.00000000000E+00 0. -1.
<mgrwt>
<rscale>  0 0.79062279E+02</rscale>
<asrwt>0</asrwt>
<pdfrwt beam="1">  1        1 0.52237365E-01 0.79062279E+02</pdfrwt>
<pdfrwt beam="2">  1       -2 0.70806104E-03 0.79062279E+02</pdfrwt>
<totfact> 0.19043875E+05</totfact>
</mgrwt>
</event>
<event>
 8    1  0.1319619E-020  0.7594861E+02  0.7818608E-02  0.1340958E+00
          1   -1    0    0  501    0  0.00000000000E+00  0.00000000000E+00  0.46611327264E+02  0.46611327536E+02  0.50400000000E-02 0. -1.
         -2   -1    0    0    0  501 -0.00000000000E+00 -0.00000000000E+00 -0.30937710223E+02  0.30937710328E+02  0.25500000000E-02 0.  1.
        -24    2    1    2    0    0  0.00000000000E+00  0.00000000000E+00  0.15673617041E+02  0.77549037864E+02  0.75948607641E+02 0.  0.
         66    2    3    3    0    0  0.17486850160E+02 -0.29526461846E+02 -0.86991781422E+01  0.35458110258E+02  0.20000012638E+01 0.  0.
         13    1    3    3    0    0 -0.17486850160E+02  0.29526461846E+02  0.24372795183E+02  0.42090927606E+02  0.10566000000E+00 0. -1.
         13    1    4    4    0    0  0.38913834715E+01 -0.64631282246E+01 -0.20418673206E+01  0.78163468424E+01  0.10566000000E+00 0.  1.
        -13    1    4    4    0    0  0.13500238835E+02 -0.23072708672E+02 -0.66377584546E+01  0.27544098014E+02  0.10566000000E+00 0.  1.
        -14    1    4    4    0    0  0.95227853503E-01  0.93750504097E-02 -0.19552366983E-01  0.97665401794E-01  0.00000000000E+00 0.  1.
<mgrwt>
<rscale>  0 0.75948608E+02</rscale>
<asrwt>0</asrwt>
<pdfrwt beam="1">  1        1 0.71709734E-02 0.75948608E+02</pdfrwt>
<pdfrwt beam="2">  1       -2 0.47596478E-02 0.75948608E+02</pdfrwt>
<totfact> 0.15034421E+05</totfact>
</mgrwt>
</event>
<event>
 8    1  0.1319619E-020  0.7925419E+02  0.7818608E-02  0.1331181E+00
         -2   -1    0    0    0  501 -0.00000000000E+00  0.00000000000E+00  0.13428911566E+02  0.13428911808E+02  0.25500000000E-02 0.  1.
          1   -1    0    0  501    0  0.00000000000E+00 -0.00000000000E+00 -0.11693477735E+03  0.11693477746E+03  0.50400000000E-02 0. -1.
        -24    2    1    2    0    0 -0.35527136788E-14  0.00000000000E+00 -0.10350586579E+03  0.13036368927E+03  0.79254193754E+02 0.  0.
         66    2    3    3    0    0 -0.23345922244E+02 -0.91644832772E+01 -0.13739760452E+01  0.25197373819E+02  0.19999995093E+01 0.  0.
         13    1    3    3    0    0  0.23345922244E+02  0.91644832772E+01 -0.10213188974E+03  0.10516631545E+03  0.10566000000E+00 0. -1.
         13    1    4    4    0    0 -0.42278959124E+01 -0.15571057161E+01  0.11725627522E+00  0.45082807285E+01  0.10566000000E+00 0.  1.
        -13    1    4    4    0    0 -0.45157458342E+01 -0.15865895257E+01  0.27740539520E+00  0.47955546657E+01  0.10566000000E+00 0. -1.
         14    1    4    4    0    0 -0.14602280497E+02 -0.60207880354E+01 -0.17686377156E+01  0.15893538424E+02  0.00000000000E+00 0. -1.
<mgrwt>
<rscale>  0 0.79254194E+02</rscale>
<asrwt>0</asrwt>
<pdfrwt beam="1">  1        1 0.17989965E-01 0.79254194E+02</pdfrwt>
<pdfrwt beam="2">  1       -2 0.20659865E-02 0.79254194E+02</pdfrwt>
<totfact> 0.15482982E+05</totfact>
</mgrwt>
</event>
<event>
 8    1  0.1319619E-020  0.7913912E+02  0.7818608E-02  0.1331512E+00
         -2   -1    0    0    0  501 -0.00000000000E+00  0.00000000000E+00  0.87458396409E+01  0.87458400126E+01  0.25500000000E-02 0.  1.
          1   -1    0    0  501    0  0.00000000000E+00 -0.00000000000E+00 -0.17902799617E+03  0.17902799625E+03  0.50400000000E-02 0. -1.
        -24    2    1    2    0    0  0.00000000000E+00 -0.35527136788E-14 -0.17028215653E+03  0.18777383626E+03  0.79139122748E+02 0.  0.
         66    2    3    3    0    0 -0.30926194693E+02 -0.23324752151E+02 -0.66321973146E+02  0.76831488730E+02  0.19999893425E+01 0.  0.
         13    1    3    3    0    0  0.30926194693E+02  0.23324752151E+02 -0.10396018339E+03  0.11094234753E+03  0.10566000000E+00 0. -1.
         13    1    4    4    0    0 -0.11386164302E+02 -0.96543180254E+01 -0.24873000045E+02  0.29009100112E+02  0.10566000000E+00 0. -1.
        -13    1    4    4    0    0 -0.14814328890E+02 -0.10590527644E+02 -0.31428189222E+02  0.36323076109E+02  0.10566000000E+00 0.  1.
         14    1    4    4    0    0 -0.47257014998E+01 -0.30799064817E+01 -0.10020783880E+02  0.11499312509E+02  0.00000000000E+00 0. -1.
<mgrwt>
<rscale>  0 0.79139123E+02</rscale>
<asrwt>0</asrwt>
<pdfrwt beam="1">  1        1 0.27542766E-01 0.79139123E+02</pdfrwt>
<pdfrwt beam="2">  1       -2 0.13455140E-02 0.79139123E+02</pdfrwt>
<totfact> 0.16797907E+05</totfact>
</mgrwt>
</event>
<event>
 8    1  0.1319619E-020  0.8174596E+02  0.7818608E-02  0.1324168E+00
          1   -1    0    0  501    0  0.00000000000E+00  0.00000000000E+00  0.10779319411E+03  0.10779319423E+03  0.50400000000E-02 0. -1.
         -2   -1    0    0    0  501 -0.00000000000E+00 -0.00000000000E+00 -0.15498198112E+02  0.15498198322E+02  0.25500000000E-02 0.  1.
        -24    2    1    2    0    0  0.00000000000E+00  0.00000000000E+00  0.92294996000E+02  0.12329139255E+03  0.81745955196E+02 0.  0.
         66    2    3    3    0    0  0.52652779040E+01 -0.21818341783E+02 -0.53001689812E+01  0.23148541678E+02  0.20000002545E+01 0.  0.
         13    1    3    3    0    0 -0.52652779040E+01  0.21818341783E+02  0.97595164981E+02  0.10014285087E+03  0.10566000000E+00 0. -1.
         13    1    4    4    0    0  0.12345788678E+01 -0.53912924477E+01 -0.10083408922E+01  0.56230005005E+01  0.10566000000E+00 0. -1.
        -13    1    4    4    0    0  0.68857514158E+00 -0.36171610740E+01 -0.15992030332E+01  0.40157943596E+01  0.10566000000E+00 0.  1.
        -14    1    4    4    0    0  0.33421238946E+01 -0.12809888261E+02 -0.26926250557E+01  0.13509746818E+02  0.00000000000E+00 0.  1.
<mgrwt>
<rscale>  0 0.81745955E+02</rscale>
<asrwt>0</asrwt>
<pdfrwt beam="1">  1        1 0.16583568E-01 0.81745955E+02</pdfrwt>
<pdfrwt beam="2">  1       -2 0.23843383E-02 0.81745955E+02</pdfrwt>
<totfact> 0.14044327E+05</totfact>
</mgrwt>
</event>
<event>
 8    1  0.1319619E-020  0.7943384E+02  0.7818608E-02  0.1330666E+00
         -2   -1    0    0    0  501 -0.00000000000E+00  0.00000000000E+00  0.79756542328E+01  0.79756546404E+01  0.25500000000E-02 0.  1.
          1   -1    0    0  501    0  0.00000000000E+00 -0.00000000000E+00 -0.19778108625E+03  0.19778108631E+03  0.50400000000E-02 0. -1.
        -24    2    1    2    0    0  0.00000000000E+00  0.00000000000E+00 -0.18980543201E+03  0.20575674095E+03  0.79433836776E+02 0.  0.
         66    2    3    3    0    0  0.28373947492E+02 -0.15991476046E+02 -0.36201321620E+02  0.48737499785E+02  0.19999989702E+01 0.  0.
         13    1    3    3    0    0 -0.28373947492E+02  0.15991476046E+02 -0.15360411039E+03  0.15701924117E+03  0.10566000000E+00 0. -1.
         13    1    4    4    0    0  0.18602441351E+01 -0.80528169217E+00 -0.28181809553E+01  0.34730814529E+01  0.10566000000E+00 0. -1.
        -13    1    4    4    0    0  0.97164007486E+01 -0.60447033119E+01 -0.12311799066E+02  0.16808879853E+02  0.10566000000E+00 0.  1.
        -14    1    4    4    0    0  0.16797302608E+02 -0.91414910416E+01 -0.21071341598E+02  0.28455538479E+02  0.00000000000E+00 0.  1.
<mgrwt>
<rscale>  0 0.79433837E+02</rscale>
<asrwt>0</asrwt>
<pdfrwt beam="1">  1        1 0.30427856E-01 0.79433837E+02</pdfrwt>
<pdfrwt beam="2">  1       -2 0.12270239E-02 0.79433837E+02</pdfrwt>
<totfact> 0.16954532E+05</totfact>
</mgrwt>
</event>
<event>
 8    1  0.1319619E-020  0.8368094E+02  0.7818608E-02  0.1318918E+00
         -2   -1    0    0    0  501 -0.00000000000E+00  0.00000000000E+00  0.10245401714E+03  0.10245401717E+03  0.25500000000E-02 0.  1.
          1   -1    0    0  501    0  0.00000000000E+00 -0.00000000000E+00 -0.17086933243E+02  0.17086933986E+02  0.50400000000E-02 0. -1.
        -24    2    1    2    0    0  0.00000000000E+00  0.00000000000E+00  0.85367083893E+02  0.11954095115E+03  0.83680941619E+02 0.  0.
         66    2    3    3    0    0  0.82107156312E+01 -0.14165758955E+02  0.97674540776E+02  0.99057561862E+02  0.20000170668E+01 0.  0.
         13    1    3    3    0    0 -0.82107156312E+01  0.14165758955E+02 -0.12307456882E+02  0.20483389292E+02  0.10566000000E+00 0. -1.
         13    1    4    4    0    0  0.44538594041E+01 -0.77530237981E+01  0.58139831979E+02  0.58823443185E+02  0.10566000000E+00 0.  1.
        -13    1    4    4    0    0  0.17351358801E+01 -0.33546348312E+01  0.18416274339E+02  0.18799856275E+02  0.10566000000E+00 0. -1.
         14    1    4    4    0    0  0.20217203471E+01 -0.30581003254E+01  0.21118434457E+02  0.21434262401E+02  0.00000000000E+00 0. -1.
<mgrwt>
<rscale>  0 0.83680942E+02</rscale>
<asrwt>0</asrwt>
<pdfrwt beam="1">  1        1 0.26287590E-02 0.83680942E+02</pdfrwt>
<pdfrwt beam="2">  1       -2 0.15762157E-01 0.83680942E+02</pdfrwt>
<totfact> 0.93999663E+04</totfact>
</mgrwt>
</event>
<event>
 8    1  0.1319619E-020  0.7746002E+02  0.7818608E-02  0.1336418E+00
          1   -1    0    0  501    0  0.00000000000E+00  0.00000000000E+00  0.37329832592E+03  0.37329832595E+03  0.50400000000E-02 0. -1.
         -2   -1    0    0    0  501 -0.00000000000E+00 -0.00000000000E+00 -0.40182700769E+01  0.40182708861E+01  0.25500000000E-02 0.  1.
        -24    2    1    2    0    0 -0.71054273576E-14  0.00000000000E+00  0.36928005584E+03  0.37731659684E+03  0.77460019413E+02 0.  0.
         66    2    3    3    0    0  0.33971342855E+02 -0.11867774539E+02  0.25418470293E+03  0.25672701340E+03  0.19999994812E+01 0.  0.
         13    1    3    3    0    0 -0.33971342855E+02  0.11867774539E+02  0.11509535290E+03  0.12058958343E+03  0.10566000000E+00 0. -1.
         13    1    4    4    0    0  0.14830391594E+02 -0.56826527882E+01  0.10959726488E+03  0.11074206378E+03  0.10566000000E+00 0. -1.
        -13    1    4    4    0    0  0.11132151516E+02 -0.36935388807E+01  0.88478122455E+02  0.89252206382E+02  0.10566000000E+00 0.  1.
        -14    1    4    4    0    0  0.80087997455E+01 -0.24915828703E+01  0.56109315599E+02  0.56732743240E+02  0.00000000000E+00 0.  1.
<mgrwt>
<rscale>  0 0.77460019E+02</rscale>
<asrwt>0</asrwt>
<pdfrwt beam="1">  1        1 0.57430494E-01 0.77460019E+02</pdfrwt>
<pdfrwt beam="2">  1       -2 0.61819566E-03 0.77460019E+02</pdfrwt>
<totfact> 0.20432551E+05</totfact>
</mgrwt>
</event>
<event>
 8    1  0.1319619E-020  0.7856625E+02  0.7818608E-02  0.1333170E+00
         -2   -1    0    0    0  501 -0.00000000000E+00  0.00000000000E+00  0.63641030120E+02  0.63641030171E+02  0.25500000000E-02 0.  1.
          1   -1    0    0  501    0  0.00000000000E+00 -0.00000000000E+00 -0.24247941956E+02  0.24247942480E+02  0.50400000000E-02 0. -1.
        -24    2    1    2    0    0  0.00000000000E+00  0.00000000000E+00  0.39393088164E+02  0.87888972651E+02  0.78566253052E+02 0.  0.
         66    2    3    3    0    0  0.38396775965E+02 -0.24349904708E+01  0.28440381366E+02  0.47886291075E+02  0.19999993826E+01 0.  0.
         13    1    3    3    0    0 -0.38396775965E+02  0.24349904708E+01  0.10952706798E+02  0.40002681577E+02  0.10566000000E+00 0. -1.
         13    1    4    4    0    0  0.50078577956E+01  0.17836422786E+00  0.38582566456E+01  0.63251689209E+01  0.10566000000E+00 0. -1.
        -13    1    4    4    0    0  0.21213937161E+02 -0.10930130758E+01  0.15580603874E+02  0.26343731485E+02  0.10566000000E+00 0.  1.
        -14    1    4    4    0    0  0.12174981008E+02 -0.15203416229E+01  0.90015208472E+01  0.15217390669E+02  0.00000000000E+00 0.  1.
<mgrwt>
<rscale>  0 0.78566253E+02</rscale>
<asrwt>0</asrwt>
<pdfrwt beam="1">  1        1 0.37304526E-02 0.78566253E+02</pdfrwt>
<pdfrwt beam="2">  1       -2 0.97909278E-02 0.78566253E+02</pdfrwt>
<totfact> 0.12256631E+05</totfact>
</mgrwt>
</event>
<event>
 8    1  0.1319619E-020  0.7603230E+02  0.7818608E-02  0.1340704E+00
          1   -1    0    0  501    0  0.00000000000E+00  0.00000000000E+00  0.70106301501E+02  0.70106301682E+02  0.50400000000E-02 0. -1.
         -2   -1    0    0    0  501 -0.00000000000E+00 -0.00000000000E+00 -0.20614805239E+02  0.20614805397E+02  0.25500000000E-02 0.  1.
        -24    2    1    2    0    0  0.35527136788E-14  0.00000000000E+00  0.49491496262E+02  0.90721107079E+02  0.76032302789E+02 0.  0.
         66    2    3    3    0    0 -0.17792022820E+02  0.32887797836E+02  0.16753357565E+02  0.41022412812E+02  0.20000101578E+01 0.  0.
         13    1    3    3    0    0  0.17792022820E+02 -0.32887797836E+02  0.32738138697E+02  0.49698694268E+02  0.10566000000E+00 0. -1.
         13    1    4    4    0    0 -0.45787753565E+01  0.71561389528E+01  0.38555161296E+01  0.93301488272E+01  0.10566000000E+00 0. -1.
        -13    1    4    4    0    0 -0.17219493302E+01  0.26004002421E+01  0.13877470628E+01  0.34152886936E+01  0.10566000000E+00 0.  1.
        -14    1    4    4    0    0 -0.11491298133E+02  0.23131258642E+02  0.11510094373E+02  0.28276975291E+02  0.00000000000E+00 0.  1.
<mgrwt>
<rscale>  0 0.76032303E+02</rscale>
<asrwt>0</asrwt>
<pdfrwt beam="1">  1        1 0.10785585E-01 0.76032303E+02</pdfrwt>
<pdfrwt beam="2">  1       -2 0.31715085E-02 0.76032303E+02</pdfrwt>
<totfact> 0.15938918E+05</totfact>
</mgrwt>
</event>
<event>
 8    1  0.1319619E-020  0.7901135E+02  0.7818608E-02  0.1331881E+00
          1   -1    0    0  501    0  0.00000000000E+00  0.00000000000E+00  0.14405480178E+02  0.14405481059E+02  0.50400000000E-02 0. -1.
         -2   -1    0    0    0  501 -0.00000000000E+00 -0.00000000000E+00 -0.10834058227E+03  0.10834058230E+03  0.25500000000E-02 0.  1.
        -24    2    1    2    0    0  0.00000000000E+00  0.00000000000E+00 -0.93935102091E+02  0.12274606336E+03  0.79011345167E+02 0.  0.
         66    2    3    3    0    0 -0.38566511078E+02  0.75775023753E+01 -0.41205829930E+02  0.56979950308E+02  0.19999994873E+01 0.  0.
         13    1    3    3    0    0  0.38566511078E+02 -0.75775023753E+01 -0.52729272161E+02  0.65766113050E+02  0.10566000000E+00 0. -1.
         13    1    4    4    0    0 -0.32877469942E+01  0.86384906557E+00 -0.33244225441E+01  0.47558873823E+01  0.10566000000E+00 0.  1.
        -13    1    4    4    0    0 -0.21476747528E+02  0.32771422218E+01 -0.22996362243E+02  0.31635963491E+02  0.10566000000E+00 0.  1.
        -14    1    4    4    0    0 -0.13802016556E+02  0.34365110879E+01 -0.14885045142E+02  0.20588099435E+02  0.00000000000E+00 0.  1.
<mgrwt>
<rscale>  0 0.79011345E+02</rscale>
<asrwt>0</asrwt>
<pdfrwt beam="1">  1        1 0.22162279E-02 0.79011345E+02</pdfrwt>
<pdfrwt beam="2">  1       -2 0.16667781E-01 0.79011345E+02</pdfrwt>
<totfact> 0.10734955E+05</totfact>
</mgrwt>
</event>
<event>
 8    1  0.1319619E-020  0.8069591E+02  0.7818608E-02  0.1327088E+00
         -2   -1    0    0    0  501 -0.00000000000E+00  0.00000000000E+00  0.14359254679E+02  0.14359254905E+02  0.25500000000E-02 0.  1.
          1   -1    0    0  501    0  0.00000000000E+00 -0.00000000000E+00 -0.11337338531E+03  0.11337338542E+03  0.50400000000E-02 0. -1.
        -24    2    1    2    0    0 -0.35527136788E-14  0.00000000000E+00 -0.99014130629E+02  0.12773264033E+03  0.80695906589E+02 0.  0.
         66    2    3    3    0    0 -0.22526997287E+02  0.24677015843E+02 -0.13807148400E+02  0.36208535837E+02  0.20000007177E+01 0.  0.
         13    1    3    3    0    0  0.22526997287E+02 -0.24677015843E+02 -0.85206982230E+02  0.91524104488E+02  0.10566000000E+00 0. -1.
         13    1    4    4    0    0 -0.15687637423E+01  0.22359980183E+01 -0.77135017152E+00  0.28402204034E+01  0.10566000000E+00 0. -1.
        -13    1    4    4    0    0 -0.89835397331E+01  0.98358293931E+01 -0.60551560851E+01  0.14632962969E+02  0.10566000000E+00 0.  1.
         14    1    4    4    0    0 -0.11974693811E+02  0.12605188431E+02 -0.69806421430E+01  0.18735352465E+02  0.00000000000E+00 0. -1.
<mgrwt>
<rscale>  0 0.80695907E+02</rscale>
<asrwt>0</asrwt>
<pdfrwt beam="1">  1        1 0.17442059E-01 0.80695907E+02</pdfrwt>
<pdfrwt beam="2">  1       -2 0.22091162E-02 0.80695907E+02</pdfrwt>
<totfact> 0.14670836E+05</totfact>
</mgrwt>
</event>
<event>
 8    1  0.1319619E-020  0.7847008E+02  0.7818608E-02  0.1333450E+00
          1   -1    0    0  501    0  0.00000000000E+00  0.00000000000E+00  0.29486996469E+03  0.29486996474E+03  0.50400000000E-02 0. -1.
         -2   -1    0    0    0  501 -0.00000000000E+00 -0.00000000000E+00 -0.52205668545E+01  0.52205674773E+01  0.25500000000E-02 0.  1.
        -24    2    1    2    0    0  0.00000000000E+00  0.00000000000E+00  0.28964939784E+03  0.30009053221E+03  0.78470082554E+02 0.  0.
         66    2    3    3    0    0 -0.11462028639E+02 -0.37493829004E+02  0.14670496448E+03  0.15186675711E+03  0.19999994936E+01 0.  0.
         13    1    3    3    0    0  0.11462028639E+02  0.37493829004E+02  0.14294443336E+03  0.14822377511E+03  0.10566000000E+00 0. -1.
         13    1    4    4    0    0 -0.91160012499E+00 -0.33209908774E+01  0.13930992715E+02  0.14350739258E+02  0.10566000000E+00 0. -1.
        -13    1    4    4    0    0 -0.41876422911E+01 -0.15816589548E+02  0.58961530927E+02  0.61189657183E+02  0.10566000000E+00 0.  1.
        -14    1    4    4    0    0 -0.63627862230E+01 -0.18356248579E+02  0.73812440834E+02  0.76326360665E+02  0.00000000000E+00 0.  1.
<mgrwt>
<rscale>  0 0.78470083E+02</rscale>
<asrwt>0</asrwt>
<pdfrwt beam="1">  1        1 0.45364607E-01 0.78470083E+02</pdfrwt>
<pdfrwt beam="2">  1       -2 0.80316424E-03 0.78470083E+02</pdfrwt>
<totfact> 0.18920701E+05</totfact>
</mgrwt>
</event>
<event>
 8    1  0.1319619E-020  0.7882540E+02  0.7818608E-02  0.1332418E+00
          1   -1    0    0  501    0  0.00000000000E+00  0.00000000000E+00  0.67455115228E+01  0.67455134057E+01  0.50400000000E-02 0. -1.
         -2   -1    0    0    0  501 -0.00000000000E+00 -0.00000000000E+00 -0.23028061630E+03  0.23028061632E+03  0.25500000000E-02 0.  1.
        -24    2    1    2    0    0  0.17763568394E-14 -0.88817841970E-15 -0.22353510478E+03  0.23702612972E+03  0.78825396303E+02 0.  0.
         66    2    3    3    0    0 -0.14342581267E+02  0.63641204792E+01 -0.22047168646E+03  0.22103840435E+03  0.19999996293E+01 0.  0.
         13    1    3    3    0    0  0.14342581267E+02 -0.63641204792E+01 -0.30634183202E+01  0.15987725377E+02  0.10566000000E+00 0. -1.
         13    1    4    4    0    0 -0.84735937267E+01  0.32848276406E+01 -0.12688771291E+03  0.12721279313E+03  0.10566000000E+00 0. -1.
        -13    1    4    4    0    0 -0.51617054337E+01  0.22611473647E+01 -0.80443829122E+02  0.80641036689E+02  0.10566000000E+00 0.  1.
         14    1    4    4    0    0 -0.70728210675E+00  0.81814547391E+00 -0.13140144426E+02  0.13184574530E+02  0.00000000000E+00 0. -1.
<mgrwt>
<rscale>  0 0.78825396E+02</rscale>
<asrwt>0</asrwt>
<pdfrwt beam="1">  1        1 0.10377713E-02 0.78825396E+02</pdfrwt>
<pdfrwt beam="2">  1       -2 0.35427781E-01 0.78825396E+02</pdfrwt>
<totfact> 0.83220923E+04</totfact>
</mgrwt>
</event>
<event>
 8    1  0.1319619E-020  0.8047247E+02  0.7818608E-02  0.1327716E+00
          1   -1    0    0  501    0  0.00000000000E+00  0.00000000000E+00  0.24421012594E+01  0.24421064602E+01  0.50400000000E-02 0. -1.
         -2   -1    0    0    0  501 -0.00000000000E+00 -0.00000000000E+00 -0.66293436521E+03  0.66293436521E+03  0.25500000000E-02 0.  1.
        -24    2    1    2    0    0  0.17763568394E-14  0.00000000000E+00 -0.66049226395E+03  0.66537647167E+03  0.80472469331E+02 0.  0.
         66    2    3    3    0    0  0.10155600698E+02  0.12404987622E+02 -0.63536423154E+03  0.63556960803E+03  0.19999971319E+01 0.  0.
         13    1    3    3    0    0 -0.10155600698E+02 -0.12404987622E+02 -0.25128032408E+02  0.29806863642E+02  0.10566000000E+00 0. -1.
         13    1    4    4    0    0  0.14220991062E+01  0.26357134753E+01 -0.11589118015E+03  0.11592991914E+03  0.10566000000E+00 0.  1.
        -13    1    4    4    0    0  0.66681569139E+01  0.66727920759E+01 -0.36771918666E+03  0.36784018523E+03  0.10566000000E+00 0. -1.
         14    1    4    4    0    0  0.20653446775E+01  0.30964820704E+01 -0.15175386473E+03  0.15179950366E+03  0.00000000000E+00 0. -1.
<mgrwt>
<rscale>  0 0.80472469E+02</rscale>
<asrwt>0</asrwt>
<pdfrwt beam="1">  1        1 0.37570882E-03 0.80472469E+02</pdfrwt>
<pdfrwt beam="2">  1       -2 0.10198976E+00 0.80472469E+02</pdfrwt>
<totfact> 0.39201265E+04</totfact>
</mgrwt>
</event>
<event>
 8    1  0.1319619E-020  0.7761178E+02  0.7818608E-02  0.1335969E+00
          1   -1    0    0  501    0  0.00000000000E+00  0.00000000000E+00  0.32257548872E+02  0.32257549266E+02  0.50400000000E-02 0. -1.
         -2   -1    0    0    0  501 -0.00000000000E+00 -0.00000000000E+00 -0.46683559603E+02  0.46683559673E+02  0.25500000000E-02 0.  1.
        -24    2    1    2    0    0  0.00000000000E+00  0.00000000000E+00 -0.14426010731E+02  0.78941108938E+02  0.77611783221E+02 0.  0.
         66    2    3    3    0    0 -0.18688916119E+02  0.32119937537E+02 -0.18494897068E+02  0.41557516640E+02  0.19999996502E+01 0.  0.
         13    1    3    3    0    0  0.18688916119E+02 -0.32119937537E+02  0.40688863367E+01  0.37383592299E+02  0.10566000000E+00 0. -1.
         13    1    4    4    0    0 -0.23166744580E+01  0.50261524532E+01 -0.24637947615E+01  0.60589304080E+01  0.10566000000E+00 0. -1.
        -13    1    4    4    0    0 -0.10469973793E+02  0.18078266489E+02 -0.10265852487E+02  0.23277520525E+02  0.10566000000E+00 0.  1.
        -14    1    4    4    0    0 -0.59022678685E+01  0.90155185954E+01 -0.57652498194E+01  0.12221065707E+02  0.00000000000E+00 0.  1.
<mgrwt>
<rscale>  0 0.77611783E+02</rscale>
<asrwt>0</asrwt>
<pdfrwt beam="1">  1        1 0.49626999E-02 0.77611783E+02</pdfrwt>
<pdfrwt beam="2">  1       -2 0.71820861E-02 0.77611783E+02</pdfrwt>
<totfact> 0.13354074E+05</totfact>
</mgrwt>
</event>
<event>
 8    1  0.1319619E-020  0.7071736E+02  0.7818608E-02  0.1357670E+00
         -2   -1    0    0    0  501 -0.00000000000E+00  0.00000000000E+00  0.13781360629E+03  0.13781360631E+03  0.25500000000E-02 0.  1.
          1   -1    0    0  501    0  0.00000000000E+00 -0.00000000000E+00 -0.90719358774E+01  0.90719372774E+01  0.50400000000E-02 0. -1.
        -24    2    1    2    0    0  0.00000000000E+00  0.17763568394E-14  0.12874167041E+03  0.14688554359E+03  0.70717361485E+02 0.  0.
         66    2    3    3    0    0 -0.31469451685E+02  0.12669775813E+02  0.84919265743E+02  0.91466558364E+02  0.19999990227E+01 0.  0.
         13    1    3    3    0    0  0.31469451685E+02 -0.12669775813E+02  0.43822404668E+02  0.55418985226E+02  0.10566000000E+00 0. -1.
         13    1    4    4    0    0 -0.97075581333E+01  0.32602352993E+01  0.26633154491E+02  0.28534223334E+02  0.10566000000E+00 0. -1.
        -13    1    4    4    0    0 -0.11087021948E+02  0.52547962004E+01  0.30927506846E+02  0.33272462826E+02  0.10566000000E+00 0.  1.
        -14    1    4    4    0    0 -0.10674871604E+02  0.41547443128E+01  0.27358604406E+02  0.29659872203E+02  0.00000000000E+00 0.  1.
<mgrwt>
<rscale>  0 0.70717361E+02</rscale>
<asrwt>0</asrwt>
<pdfrwt beam="1">  1        1 0.13956827E-02 0.70717361E+02</pdfrwt>
<pdfrwt beam="2">  1       -2 0.21202091E-01 0.70717361E+02</pdfrwt>
<totfact> 0.13314484E+05</totfact>
</mgrwt>
</event>
<event>
 8    1  0.1319619E-020  0.8069434E+02  0.7818608E-02  0.1327092E+00
         -2   -1    0    0    0  501 -0.00000000000E+00  0.00000000000E+00  0.27665539098E+02  0.27665539215E+02  0.25500000000E-02 0.  1.
          1   -1    0    0  501    0  0.00000000000E+00 -0.00000000000E+00 -0.58841941228E+02  0.58841941444E+02  0.50400000000E-02 0. -1.
        -24    2    1    2    0    0  0.00000000000E+00  0.00000000000E+00 -0.31176402130E+02  0.86507480659E+02  0.80694337845E+02 0.  0.
         66    2    3    3    0    0  0.25483523325E+02 -0.18548982145E+02 -0.42557227347E+02  0.52996153525E+02  0.19999973170E+01 0.  0.
         13    1    3    3    0    0 -0.25483523325E+02  0.18548982145E+02  0.11380825217E+02  0.33511327134E+02  0.10566000000E+00 0. -1.
         13    1    4    4    0    0  0.23954366432E+01 -0.14701562007E+01 -0.39732521100E+01  0.48679946930E+01  0.10566000000E+00 0. -1.
        -13    1    4    4    0    0  0.86413514695E+01 -0.61514653284E+01 -0.12949514474E+02  0.16739610809E+02  0.10566000000E+00 0.  1.
        -14    1    4    4    0    0  0.14446735212E+02 -0.10927360616E+02 -0.25634460763E+02  0.31388548022E+02  0.00000000000E+00 0.  1.
<mgrwt>
<rscale>  0 0.80694338E+02</rscale>
<asrwt>0</asrwt>
<pdfrwt beam="1">  1        1 0.90526064E-02 0.80694338E+02</pdfrwt>
<pdfrwt beam="2">  1       -2 0.42562368E-02 0.80694338E+02</pdfrwt>
<totfact> 0.13179008E+05</totfact>
</mgrwt>
</event>
<event>
 8    1  0.1319619E-020  0.7649450E+02  0.7818608E-02  0.1339305E+00
          1   -1    0    0  501    0  0.00000000000E+00  0.00000000000E+00  0.46598701926E+02  0.46598702198E+02  0.50400000000E-02 0. -1.
         -2   -1    0    0    0  501 -0.00000000000E+00 -0.00000000000E+00 -0.31392554883E+02  0.31392554986E+02  0.25500000000E-02 0.  1.
        -24    2    1    2    0    0  0.00000000000E+00  0.71054273576E-14  0.15206147043E+02  0.77991257185E+02  0.76494504962E+02 0.  0.
         66    2    3    3    0    0  0.98346023549E+00  0.37727516198E+02  0.13769236016E+02  0.40223432918E+02  0.20000056642E+01 0.  0.
         13    1    3    3    0    0 -0.98346023549E+00 -0.37727516198E+02  0.14369110269E+01  0.37767824267E+02  0.10566000000E+00 0. -1.
         13    1    4    4    0    0 -0.15046845917E+00  0.16251555261E+01  0.52595395718E+00  0.17180113044E+01  0.10566000000E+00 0. -1.
        -13    1    4    4    0    0  0.74132004627E+00  0.22628149143E+02  0.91274189960E+01  0.24411137429E+02  0.10566000000E+00 0.  1.
        -14    1    4    4    0    0  0.39260864839E+00  0.13474211530E+02  0.41158630632E+01  0.14094284184E+02  0.00000000000E+00 0.  1.
<mgrwt>
<rscale>  0 0.76494505E+02</rscale>
<asrwt>0</asrwt>
<pdfrwt beam="1">  1        1 0.71690312E-02 0.76494505E+02</pdfrwt>
<pdfrwt beam="2">  1       -2 0.48296238E-02 0.76494505E+02</pdfrwt>
<totfact> 0.14738625E+05</totfact>
</mgrwt>
</event>
<event>
 8    1  0.1319619E-020  0.7577660E+02  0.7818608E-02  0.1341483E+00
          1   -1    0    0  501    0  0.00000000000E+00  0.00000000000E+00  0.19637573288E+03  0.19637573295E+03  0.50400000000E-02 0. -1.
         -2   -1    0    0    0  501 -0.00000000000E+00 -0.00000000000E+00 -0.73100852439E+01  0.73100856886E+01  0.25500000000E-02 0.  1.
        -24    2    1    2    0    0  0.00000000000E+00  0.00000000000E+00  0.18906564764E+03  0.20368581863E+03  0.75776603225E+02 0.  0.
         66    2    3    3    0    0 -0.17598401879E+02  0.33459434886E+02  0.10016005851E+03  0.10707602371E+03  0.20000007876E+01 0.  0.
         13    1    3    3    0    0  0.17598401879E+02 -0.33459434886E+02  0.88905589132E+02  0.96609794920E+02  0.10566000000E+00 0. -1.
         13    1    4    4    0    0 -0.70378811688E+01  0.12840331381E+02  0.40479495353E+02  0.43046563038E+02  0.10566000000E+00 0. -1.
        -13    1    4    4    0    0 -0.59644797465E+01  0.11974013637E+02  0.35955068196E+02  0.38363134834E+02  0.10566000000E+00 0.  1.
         14    1    4    4    0    0 -0.45960409637E+01  0.86450898685E+01  0.23725494956E+02  0.25666325843E+02  0.00000000000E+00 0. -1.
<mgrwt>
<rscale>  0 0.75776603E+02</rscale>
<asrwt>0</asrwt>
<pdfrwt beam="1">  1        1 0.30211645E-01 0.75776603E+02</pdfrwt>
<pdfrwt beam="2">  1       -2 0.11246288E-02 0.75776603E+02</pdfrwt>
<totfact> 0.19180968E+05</totfact>
</mgrwt>
</event>
<event>
 8    1  0.1319619E-020  0.8002271E+02  0.7818608E-02  0.1328987E+00
          1   -1    0    0  501    0  0.00000000000E+00  0.00000000000E+00  0.19240466293E+03  0.19240466300E+03  0.50400000000E-02 0. -1.
         -2   -1    0    0    0  501 -0.00000000000E+00 -0.00000000000E+00 -0.83205290469E+01  0.83205294377E+01  0.25500000000E-02 0.  1.
        -24    2    1    2    0    0  0.00000000000E+00  0.00000000000E+00  0.18408413389E+03  0.20072519244E+03  0.80022712589E+02 0.  0.
         66    2    3    3    0    0  0.24789731988E+02 -0.16952564965E+02  0.25877774961E+02  0.39693569955E+02  0.19999969665E+01 0.  0.
         13    1    3    3    0    0 -0.24789731988E+02  0.16952564965E+02  0.15820635892E+03  0.16103162248E+03  0.10566000000E+00 0. -1.
         13    1    4    4    0    0  0.33541028678E+01 -0.23329440021E+01  0.27628033985E+01  0.49332423840E+01  0.10566000000E+00 0. -1.
        -13    1    4    4    0    0  0.18312916398E+02 -0.12803199174E+02  0.19695726053E+02  0.29786198227E+02  0.10566000000E+00 0.  1.
         14    1    4    4    0    0  0.31227127228E+01 -0.18164217888E+01  0.34192455103E+01  0.49741293433E+01  0.00000000000E+00 0. -1.
<mgrwt>
<rscale>  0 0.80022713E+02</rscale>
<asrwt>0</asrwt>
<pdfrwt beam="1">  1        1 0.29600717E-01 0.80022713E+02</pdfrwt>
<pdfrwt beam="2">  1       -2 0.12800815E-02 0.80022713E+02</pdfrwt>
<totfact> 0.16536870E+05</totfact>
</mgrwt>
</event>
<event>
 8    1  0.1319619E-020  0.7848067E+02  0.7818608E-02  0.1333419E+00
         -2   -1    0    0    0  501 -0.00000000000E+00  0.00000000000E+00  0.18224689072E+02  0.18224689251E+02  0.25500000000E-02 0.  1.
          1   -1    0    0  501    0  0.00000000000E+00 -0.00000000000E+00 -0.84489997680E+02  0.84489997830E+02  0.50400000000E-02 0. -1.
        -24    2    1    2    0    0  0.35527136788E-14  0.00000000000E+00 -0.66265308608E+02  0.10271468708E+03  0.78480671616E+02 0.  0.
         66    2    3    3    0    0  0.29432294577E+02 -0.22234183368E+02 -0.15732940190E+02  0.40151516637E+02  0.20000017574E+01 0.  0.
         13    1    3    3    0    0 -0.29432294577E+02  0.22234183368E+02 -0.50532368417E+02  0.62563170444E+02  0.10566000000E+00 0. -1.
         13    1    4    4    0    0  0.29552327071E+01 -0.22306314285E+01 -0.15373525091E+01  0.40104530536E+01  0.10566000000E+00 0.  1.
        -13    1    4    4    0    0  0.12278885849E+02 -0.85991880451E+01 -0.55937155936E+01  0.16000559081E+02  0.10566000000E+00 0.  1.
        -14    1    4    4    0    0  0.14198176022E+02 -0.11404363895E+02 -0.86018720875E+01  0.20140504502E+02  0.00000000000E+00 0.  1.
<mgrwt>
<rscale>  0 0.78480672E+02</rscale>
<asrwt>0</asrwt>
<pdfrwt beam="1">  1        1 0.12998461E-01 0.78480672E+02</pdfrwt>
<pdfrwt beam="2">  1       -2 0.28037984E-02 0.78480672E+02</pdfrwt>
<totfact> 0.15058920E+05</totfact>
</mgrwt>
</event>
<event>
 8    1  0.1319619E-020  0.8142030E+02  0.7818608E-02  0.1325068E+00
          1   -1    0    0  501    0  0.00000000000E+00  0.00000000000E+00  0.19585598122E+03  0.19585598128E+03  0.50400000000E-02 0. -1.
         -2   -1    0    0    0  501 -0.00000000000E+00 -0.00000000000E+00 -0.84619123928E+01  0.84619127770E+01  0.25500000000E-02 0.  1.
        -24    2    1    2    0    0  0.00000000000E+00 -0.35527136788E-14  0.18739406882E+03  0.20431789406E+03  0.81420297237E+02 0.  0.
         66    2    3    3    0    0 -0.24618423515E+02  0.28679662042E+02  0.13153846202E+03  0.13687569831E+03  0.20000018762E+01 0.  0.
         13    1    3    3    0    0  0.24618423515E+02 -0.28679662042E+02  0.55855606806E+02  0.67442195745E+02  0.10566000000E+00 0. -1.
         13    1    4    4    0    0 -0.81747853216E+01  0.89969760117E+01  0.40650351623E+02  0.42429175617E+02  0.10566000000E+00 0.  1.
        -13    1    4    4    0    0 -0.11570013221E+02  0.13109425500E+02  0.60522260403E+02  0.62997439719E+02  0.10566000000E+00 0. -1.
         14    1    4    4    0    0 -0.48736249724E+01  0.65732605307E+01  0.30365849993E+02  0.31449082978E+02  0.00000000000E+00 0. -1.
<mgrwt>
<rscale>  0 0.81420297E+02</rscale>
<asrwt>0</asrwt>
<pdfrwt beam="1">  1        1 0.30131691E-01 0.81420297E+02</pdfrwt>
<pdfrwt beam="2">  1       -2 0.13018326E-02 0.81420297E+02</pdfrwt>
<totfact> 0.15847290E+05</totfact>
</mgrwt>
</event>
<event>
 8    1  0.1319619E-020  0.7954099E+02  0.7818608E-02  0.1330359E+00
         -2   -1    0    0    0  501 -0.00000000000E+00  0.00000000000E+00  0.28297363252E+03  0.28297363253E+03  0.25500000000E-02 0.  1.
          1   -1    0    0  501    0  0.00000000000E+00 -0.00000000000E+00 -0.55895381539E+01  0.55895404261E+01  0.50400000000E-02 0. -1.
        -24    2    1    2    0    0  0.00000000000E+00  0.00000000000E+00  0.27738409436E+03  0.28856317296E+03  0.79540989307E+02 0.  0.
         66    2    3    3    0    0 -0.17465507186E+02 -0.17125067494E+02  0.25242898158E+03  0.25361920787E+03  0.19999950613E+01 0.  0.
         13    1    3    3    0    0  0.17465507186E+02  0.17125067494E+02  0.24955112785E+02  0.34943965088E+02  0.10566000000E+00 0. -1.
         13    1    4    4    0    0 -0.16303372489E+01 -0.19927291585E+01  0.23982825594E+02  0.24120863512E+02  0.10566000000E+00 0. -1.
        -13    1    4    4    0    0 -0.94358110849E+01 -0.95493551937E+01  0.13369454302E+03  0.13436691078E+03  0.10566000000E+00 0.  1.
         14    1    4    4    0    0 -0.63993588525E+01 -0.55829831416E+01  0.94751612964E+02  0.95131433573E+02  0.00000000000E+00 0. -1.
<mgrwt>
<rscale>  0 0.79540989E+02</rscale>
<asrwt>0</asrwt>
<pdfrwt beam="1">  1        1 0.85992902E-03 0.79540989E+02</pdfrwt>
<pdfrwt beam="2">  1       -2 0.43534410E-01 0.79540989E+02</pdfrwt>
<totfact> 0.73576714E+04</totfact>
</mgrwt>
</event>
<event>
 8    1  0.1319619E-020  0.8089124E+02  0.7818608E-02  0.1326541E+00
          1   -1    0    0  501    0  0.00000000000E+00  0.00000000000E+00  0.94324145836E+02  0.94324145970E+02  0.50400000000E-02 0. -1.
         -2   -1    0    0    0  501 -0.00000000000E+00 -0.00000000000E+00 -0.17342835334E+02  0.17342835522E+02  0.25500000000E-02 0.  1.
        -24    2    1    2    0    0 -0.88817841970E-15  0.00000000000E+00  0.76981310502E+02  0.11166698149E+03  0.80891239260E+02 0.  0.
         66    2    3    3    0    0  0.72435415631E+01 -0.39660297751E+02  0.42523407613E+02  0.58631461813E+02  0.20000018016E+01 0.  0.
         13    1    3    3    0    0 -0.72435415631E+01  0.39660297751E+02  0.34457902889E+02  0.53035519679E+02  0.10566000000E+00 0. -1.
         13    1    4    4    0    0  0.36126696047E+01 -0.16770778883E+02  0.17324876535E+02  0.24381815293E+02  0.10566000000E+00 0. -1.
        -13    1    4    4    0    0  0.34166212683E+01 -0.19945749884E+02  0.22289729778E+02  0.30105638291E+02  0.10566000000E+00 0.  1.
         14    1    4    4    0    0  0.21425069014E+00 -0.29437689843E+01  0.29088013003E+01  0.41440082282E+01  0.00000000000E+00 0. -1.
<mgrwt>
<rscale>  0 0.80891239E+02</rscale>
<asrwt>0</asrwt>
<pdfrwt beam="1">  1        1 0.14511407E-01 0.80891239E+02</pdfrwt>
<pdfrwt beam="2">  1       -2 0.26681285E-02 0.80891239E+02</pdfrwt>
<totfact> 0.14125746E+05</totfact>
</mgrwt>
</event>
<event>
 8    1  0.1319619E-020  0.8115149E+02  0.7818608E-02  0.1325815E+00
         -2   -1    0    0    0  501 -0.00000000000E+00  0.00000000000E+00  0.33811303340E+01  0.33811312956E+01  0.25500000000E-02 0.  1.
          1   -1    0    0  501    0  0.00000000000E+00 -0.00000000000E+00 -0.48693499938E+03  0.48693499941E+03  0.50400000000E-02 0. -1.
        -24    2    1    2    0    0  0.00000000000E+00  0.17763568394E-14 -0.48355386905E+03  0.49031613070E+03  0.81151486474E+02 0.  0.
         66    2    3    3    0    0 -0.39495184668E+02  0.78190728300E+01 -0.27113714779E+03  0.27411742085E+03  0.19999963616E+01 0.  0.
         13    1    3    3    0    0  0.39495184668E+02 -0.78190728300E+01 -0.21241672125E+03  0.21619870986E+03  0.10566000000E+00 0. -1.
         13    1    4    4    0    0 -0.25504388451E+02  0.41690766609E+01 -0.17566270340E+03  0.17755351745E+03  0.10566000000E+00 0. -1.
        -13    1    4    4    0    0 -0.79612223263E+01  0.18950831080E+01 -0.53741252409E+02  0.54360884609E+02  0.10566000000E+00 0.  1.
         14    1    4    4    0    0 -0.60295738903E+01  0.17549130612E+01 -0.41733191988E+02  0.42203018786E+02  0.00000000000E+00 0. -1.
<mgrwt>
<rscale>  0 0.81151486E+02</rscale>
<asrwt>0</asrwt>
<pdfrwt beam="1">  1        1 0.74913022E-01 0.81151486E+02</pdfrwt>
<pdfrwt beam="2">  1       -2 0.52017436E-03 0.81151486E+02</pdfrwt>
<totfact> 0.18826499E+05</totfact>
</mgrwt>
</event>
<event>
 8    1  0.1319619E-020  0.7431998E+02  0.7818608E-02  0.1345990E+00
          1   -1    0    0  501    0  0.00000000000E+00  0.00000000000E+00  0.80436408505E+01  0.80436424295E+01  0.50400000000E-02 0. -1.
         -2   -1    0    0    0  501 -0.00000000000E+00 -0.00000000000E+00 -0.17167158100E+03  0.17167158102E+03  0.25500000000E-02 0.  1.
        -24    2    1    2    0    0  0.00000000000E+00  0.17763568394E-14 -0.16362794015E+03  0.17971522345E+03  0.74319975388E+02 0.  0.
         66    2    3    3    0    0  0.49692834085E+01 -0.12324730388E+02 -0.16571855821E+03  0.16626254325E+03  0.19999987340E+01 0.  0.
         13    1    3    3    0    0 -0.49692834085E+01  0.12324730388E+02  0.20906180594E+01  0.13452680203E+02  0.10566000000E+00 0. -1.
         13    1    4    4    0    0  0.10747163365E+01 -0.28868421968E+01 -0.40407261229E+02  0.40524644318E+02  0.10566000000E+00 0. -1.
        -13    1    4    4    0    0  0.36463887106E+01 -0.71014543790E+01 -0.99612466269E+02  0.99931883826E+02  0.10566000000E+00 0.  1.
        -14    1    4    4    0    0  0.24817836132E+00 -0.23364338124E+01 -0.25698830716E+02  0.25806015105E+02  0.00000000000E+00 0.  1.
<mgrwt>
<rscale>  0 0.74319975E+02</rscale>
<asrwt>0</asrwt>
<pdfrwt beam="1">  1        1 0.12374835E-02 0.74319975E+02</pdfrwt>
<pdfrwt beam="2">  1       -2 0.26411010E-01 0.74319975E+02</pdfrwt>
<totfact> 0.10900853E+05</totfact>
</mgrwt>
</event>
<event>
 8    1  0.1319619E-020  0.7906124E+02  0.7818608E-02  0.1331737E+00
         -2   -1    0    0    0  501 -0.00000000000E+00  0.00000000000E+00  0.41035614361E+03  0.41035614361E+03  0.25500000000E-02 0.  1.
          1   -1    0    0  501    0  0.00000000000E+00 -0.00000000000E+00 -0.38080801845E+01  0.38080835198E+01  0.50400000000E-02 0. -1.
        -24    2    1    2    0    0  0.00000000000E+00  0.00000000000E+00  0.40654806342E+03  0.41416422713E+03  0.79061236807E+02 0.  0.
         66    2    3    3    0    0 -0.14372422505E+02  0.34175436483E+02  0.27487417035E+03  0.27737039588E+03  0.19999998864E+01 0.  0.
         13    1    3    3    0    0  0.14372422505E+02 -0.34175436483E+02  0.13167389307E+03  0.13679383125E+03  0.10566000000E+00 0. -1.
         13    1    4    4    0    0 -0.89433470166E+00  0.19779476950E+01  0.15296954136E+02  0.15450568971E+02  0.10566000000E+00 0.  1.
        -13    1    4    4    0    0 -0.80399993158E+01  0.21422008827E+02  0.17089216983E+03  0.17241719440E+03  0.10566000000E+00 0.  1.
        -14    1    4    4    0    0 -0.54380884874E+01  0.10775479961E+02  0.88685046383E+02  0.89502632513E+02  0.00000000000E+00 0.  1.
<mgrwt>
<rscale>  0 0.79061237E+02</rscale>
<asrwt>0</asrwt>
<pdfrwt beam="1">  1        1 0.58585857E-03 0.79061237E+02</pdfrwt>
<pdfrwt beam="2">  1       -2 0.63131734E-01 0.79061237E+02</pdfrwt>
<totfact> 0.59890665E+04</totfact>
</mgrwt>
</event>
<event>
 8    1  0.1319619E-020  0.7913572E+02  0.7818608E-02  0.1331522E+00
          1   -1    0    0  501    0  0.00000000000E+00  0.00000000000E+00  0.65498679063E+02  0.65498679257E+02  0.50400000000E-02 0. -1.
         -2   -1    0    0    0  501 -0.00000000000E+00 -0.00000000000E+00 -0.23903006562E+02  0.23903006698E+02  0.25500000000E-02 0.  1.
        -24    2    1    2    0    0  0.00000000000E+00  0.00000000000E+00  0.41595672501E+02  0.89401685955E+02  0.79135715582E+02 0.  0.
         66    2    3    3    0    0  0.50408477387E+01 -0.39211902064E+02  0.21705648056E+02  0.45145526544E+02  0.19999999997E+01 0.  0.
         13    1    3    3    0    0 -0.50408477387E+01  0.39211902064E+02  0.19890024445E+02  0.44256159411E+02  0.10566000000E+00 0. -1.
         13    1    4    4    0    0  0.14765709593E+01 -0.65452759510E+01  0.35201933079E+01  0.75778508849E+01  0.10566000000E+00 0. -1.
        -13    1    4    4    0    0  0.32701640745E+01 -0.30853620540E+02  0.16957285169E+02  0.35358175261E+02  0.10566000000E+00 0.  1.
        -14    1    4    4    0    0  0.29411270495E+00 -0.18130055728E+01  0.12281695792E+01  0.22095003972E+01  0.00000000000E+00 0.  1.
<mgrwt>
<rscale>  0 0.79135716E+02</rscale>
<asrwt>0</asrwt>
<pdfrwt beam="1">  1        1 0.10076720E-01 0.79135716E+02</pdfrwt>
<pdfrwt beam="2">  1       -2 0.36773856E-02 0.79135716E+02</pdfrwt>
<totfact> 0.14141152E+05</totfact>
</mgrwt>
</event>
<event>
 8    1  0.1319619E-020  0.7900066E+02  0.7818608E-02  0.1331912E+00
         -2   -1    0    0    0  501 -0.00000000000E+00  0.00000000000E+00  0.79979651141E+03  0.79979651141E+03  0.25500000000E-02 0.  1.
          1   -1    0    0  501    0  0.00000000000E+00 -0.00000000000E+00 -0.19508382125E+01  0.19508447229E+01  0.50400000000E-02 0. -1.
        -24    2    1    2    0    0  0.00000000000E+00 -0.35527136788E-14  0.79784567320E+03  0.80174735614E+03  0.79000663495E+02 0.  0.
         66    2    3    3    0    0  0.75736643845E+01  0.29257612420E+02  0.65690128249E+03  0.65759916602E+03  0.19999855902E+01 0.  0.
         13    1    3    3    0    0 -0.75736643845E+01 -0.29257612420E+02  0.14094439071E+03  0.14414819011E+03  0.10566000000E+00 0. -1.
         13    1    4    4    0    0  0.26868117218E+01  0.10315380940E+02  0.21965074352E+03  0.21990926841E+03  0.10566000000E+00 0. -1.
        -13    1    4    4    0    0  0.17998659699E+01  0.92736535056E+01  0.21768694686E+03  0.21789184969E+03  0.10566000000E+00 0.  1.
        -14    1    4    4    0    0  0.30869866928E+01  0.96685779745E+01  0.21956359211E+03  0.21979804792E+03  0.00000000000E+00 0.  1.
<mgrwt>
<rscale>  0 0.79000663E+02</rscale>
<asrwt>0</asrwt>
<pdfrwt beam="1">  1        1 0.30012961E-03 0.79000663E+02</pdfrwt>
<pdfrwt beam="2">  1       -2 0.12304555E+00 0.79000663E+02</pdfrwt>
<totfact> 0.34330971E+04</totfact>
</mgrwt>
</event>
<event>
 8    1  0.1319619E-020  0.8027362E+02  0.7818608E-02  0.1328277E+00
         -2   -1    0    0    0  501 -0.00000000000E+00  0.00000000000E+00  0.62434692325E+01  0.62434697533E+01  0.25500000000E-02 0.  1.
          1   -1    0    0  501    0  0.00000000000E+00 -0.00000000000E+00 -0.25802375876E+03  0.25802375881E+03  0.50400000000E-02 0. -1.
        -24    2    1    2    0    0  0.00000000000E+00 -0.17763568394E-14 -0.25178028953E+03  0.26426722856E+03  0.80273618939E+02 0.  0.
         66    2    3    3    0    0 -0.36017532743E+02 -0.11309258025E+02 -0.17059932966E+03  0.17473778429E+03  0.19999994133E+01 0.  0.
         13    1    3    3    0    0  0.36017532743E+02  0.11309258025E+02 -0.81180959872E+02  0.89529444273E+02  0.10566000000E+00 0. -1.
         13    1    4    4    0    0 -0.15828834531E+02 -0.55160886062E+01 -0.77558275939E+02  0.79349080441E+02  0.10566000000E+00 0. -1.
        -13    1    4    4    0    0 -0.18535201861E+02 -0.53853069963E+01 -0.86730464268E+02  0.88852348510E+02  0.10566000000E+00 0.  1.
         14    1    4    4    0    0 -0.16534963514E+01 -0.40786242238E+00 -0.63105894486E+01  0.65363553398E+01  0.00000000000E+00 0. -1.
<mgrwt>
<rscale>  0 0.80273619E+02</rscale>
<asrwt>0</asrwt>
<pdfrwt beam="1">  1        1 0.39695955E-01 0.80273619E+02</pdfrwt>
<pdfrwt beam="2">  1       -2 0.96053397E-03 0.80273619E+02</pdfrwt>
<totfact> 0.17365354E+05</totfact>
</mgrwt>
</event>
<event>
 8    1  0.1319619E-020  0.7996539E+02  0.7818608E-02  0.1329150E+00
         -2   -1    0    0    0  501 -0.00000000000E+00  0.00000000000E+00  0.76696922351E+02  0.76696922393E+02  0.25500000000E-02 0.  1.
          1   -1    0    0  501    0  0.00000000000E+00 -0.00000000000E+00 -0.20843284638E+02  0.20843285248E+02  0.50400000000E-02 0. -1.
        -24    2    1    2    0    0  0.00000000000E+00 -0.17763568394E-14  0.55853637712E+02  0.97540207641E+02  0.79965387894E+02 0.  0.
         66    2    3    3    0    0  0.27466082786E+02  0.12329438188E+02  0.59990125541E+02  0.67150695549E+02  0.20000001483E+01 0.  0.
         13    1    3    3    0    0 -0.27466082786E+02 -0.12329438188E+02 -0.41364878286E+01  0.30389512093E+02  0.10566000000E+00 0. -1.
         13    1    4    4    0    0  0.16326763399E+02  0.66587299857E+01  0.35171050317E+02  0.39343561514E+02  0.10566000000E+00 0.  1.
        -13    1    4    4    0    0  0.98684146774E+01  0.50099509521E+01  0.22622253491E+02  0.25184573330E+02  0.10566000000E+00 0. -1.
        -14    1    4    4    0    0  0.12709047095E+01  0.66075724995E+00  0.21968217328E+01  0.26225607046E+01  0.00000000000E+00 0.  1.
<mgrwt>
<rscale>  0 0.79965388E+02</rscale>
<asrwt>0</asrwt>
<pdfrwt beam="1">  1        1 0.32066593E-02 0.79965388E+02</pdfrwt>
<pdfrwt beam="2">  1       -2 0.11799526E-01 0.79965388E+02</pdfrwt>
<totfact> 0.11289491E+05</totfact>
</mgrwt>
</event>
<event>
 8    1  0.1319619E-020  0.8008175E+02  0.7818608E-02  0.1328820E+00
         -2   -1    0    0    0  501 -0.00000000000E+00  0.00000000000E+00  0.14553669154E+02  0.14553669377E+02  0.25500000000E-02 0.  1.
          1   -1    0    0  501    0  0.00000000000E+00 -0.00000000000E+00 -0.11016270802E+03  0.11016270814E+03  0.50400000000E-02 0. -1.
        -24    2    1    2    0    0  0.00000000000E+00  0.00000000000E+00 -0.95609038867E+02  0.12471637751E+03  0.80081748900E+02 0.  0.
         66    2    3    3    0    0 -0.15723673883E+02 -0.36729269834E+02 -0.44354155279E+02  0.59729090767E+02  0.20000026124E+01 0.  0.
         13    1    3    3    0    0  0.15723673883E+02  0.36729269834E+02 -0.51254883588E+02  0.64987286746E+02  0.10566000000E+00 0. -1.
         13    1    4    4    0    0 -0.35036655004E+01 -0.64275041041E+01 -0.76606385192E+01  0.10596462971E+02  0.10566000000E+00 0.  1.
        -13    1    4    4    0    0 -0.37791308337E+01 -0.92918307777E+01 -0.11136462092E+02  0.14988392210E+02  0.10566000000E+00 0. -1.
        -14    1    4    4    0    0 -0.84408775486E+01 -0.21009934953E+02 -0.25557054667E+02  0.34144235586E+02  0.00000000000E+00 0.  1.
<mgrwt>
<rscale>  0 0.80081749E+02</rscale>
<asrwt>0</asrwt>
<pdfrwt beam="1">  1        1 0.16948108E-01 0.80081749E+02</pdfrwt>
<pdfrwt beam="2">  1       -2 0.22390261E-02 0.80081749E+02</pdfrwt>
<totfact> 0.14901895E+05</totfact>
</mgrwt>
</event>
<event>
 8    1  0.1319619E-020  0.7936286E+02  0.7818608E-02  0.1330869E+00
         -2   -1    0    0    0  501 -0.00000000000E+00  0.00000000000E+00  0.69586146593E+02  0.69586146640E+02  0.25500000000E-02 0.  1.
          1   -1    0    0  501    0  0.00000000000E+00 -0.00000000000E+00 -0.22628295224E+02  0.22628295785E+02  0.50400000000E-02 0. -1.
        -24    2    1    2    0    0  0.44408920985E-15  0.35527136788E-14  0.46957851369E+02  0.92214442424E+02  0.79362860246E+02 0.  0.
         66    2    3    3    0    0 -0.32106703601E+01 -0.25460253043E+02  0.58623400562E+02  0.64025276223E+02  0.20000032029E+01 0.  0.
         13    1    3    3    0    0  0.32106703601E+01  0.25460253043E+02 -0.11665549192E+02  0.28189166202E+02  0.10566000000E+00 0. -1.
         13    1    4    4    0    0 -0.84957305136E+00 -0.74896095883E+01  0.17634716770E+02  0.19178384336E+02  0.10566000000E+00 0. -1.
        -13    1    4    4    0    0 -0.16280433708E+01 -0.72367614642E+01  0.17791526386E+02  0.19276172257E+02  0.10566000000E+00 0.  1.
         14    1    4    4    0    0 -0.73305393793E+00 -0.10733881990E+02  0.23197157406E+02  0.25570719629E+02  0.00000000000E+00 0. -1.
<mgrwt>
<rscale>  0 0.79362860E+02</rscale>
<asrwt>0</asrwt>
<pdfrwt beam="1">  1        1 0.34812764E-02 0.79362860E+02</pdfrwt>
<pdfrwt beam="2">  1       -2 0.10705561E-01 0.79362860E+02</pdfrwt>
<totfact> 0.11740809E+05</totfact>
</mgrwt>
</event>
<event>
 8    1  0.1319619E-020  0.7907878E+02  0.7818608E-02  0.1331686E+00
          1   -1    0    0  501    0  0.00000000000E+00  0.00000000000E+00  0.14476818229E+03  0.14476818237E+03  0.50400000000E-02 0. -1.
         -2   -1    0    0    0  501 -0.00000000000E+00 -0.00000000000E+00 -0.10799080189E+02  0.10799080490E+02  0.25500000000E-02 0.  1.
        -24    2    1    2    0    0  0.00000000000E+00  0.35527136788E-14  0.13396910210E+03  0.15556726287E+03  0.79078776916E+02 0.  0.
         66    2    3    3    0    0 -0.34915377392E+02 -0.16644653015E+02  0.82915770282E+02  0.91515862366E+02  0.20000126732E+01 0.  0.
         13    1    3    3    0    0  0.34915377392E+02  0.16644653015E+02  0.51053331815E+02  0.64051400499E+02  0.10566000000E+00 0. -1.
         13    1    4    4    0    0 -0.83253735342E+01 -0.37631230587E+01  0.20928673615E+02  0.22836231803E+02  0.10566000000E+00 0.  1.
        -13    1    4    4    0    0 -0.70048977275E+01 -0.28508091907E+01  0.15372341803E+02  0.17132301706E+02  0.10566000000E+00 0. -1.
        -14    1    4    4    0    0 -0.19585106130E+02 -0.10030720765E+02  0.46614754864E+02  0.51547328856E+02  0.00000000000E+00 0.  1.
<mgrwt>
<rscale>  0 0.79078777E+02</rscale>
<asrwt>0</asrwt>
<pdfrwt beam="1">  1        1 0.22272028E-01 0.79078777E+02</pdfrwt>
<pdfrwt beam="2">  1       -2 0.16613970E-02 0.79078777E+02</pdfrwt>
<totfact> 0.16178851E+05</totfact>
</mgrwt>
</event>
<event>
 8    1  0.1319619E-020  0.7942587E+02  0.7818608E-02  0.1330689E+00
          1   -1    0    0  501    0  0.00000000000E+00  0.00000000000E+00  0.30891594996E+02  0.30891595407E+02  0.50400000000E-02 0. -1.
         -2   -1    0    0    0  501 -0.00000000000E+00 -0.00000000000E+00 -0.51053272370E+02  0.51053272434E+02  0.25500000000E-02 0.  1.
        -24    2    1    2    0    0  0.17763568394E-14 -0.88817841970E-15 -0.20161677374E+02  0.81944867841E+02  0.79425865629E+02 0.  0.
         66    2    3    3    0    0  0.99472610223E+01 -0.73456166399E+01 -0.48995405483E+02  0.50571294147E+02  0.19999868938E+01 0.  0.
         13    1    3    3    0    0 -0.99472610223E+01  0.73456166399E+01  0.28833728109E+02  0.31373573694E+02  0.10566000000E+00 0. -1.
         13    1    4    4    0    0  0.77040153068E+00 -0.74276936427E+00 -0.39061111157E+01  0.40514309732E+01  0.10566000000E+00 0. -1.
        -13    1    4    4    0    0  0.17872815682E+01 -0.67081544913E+00 -0.95098957670E+01  0.97001881583E+01  0.10566000000E+00 0.  1.
        -14    1    4    4    0    0  0.73895779234E+01 -0.59320318265E+01 -0.35579398600E+02  0.36819675015E+02  0.00000000000E+00 0.  1.
<mgrwt>
<rscale>  0 0.79425866E+02</rscale>
<asrwt>0</asrwt>
<pdfrwt beam="1">  1        1 0.47525531E-02 0.79425866E+02</pdfrwt>
<pdfrwt beam="2">  1       -2 0.78543496E-02 0.79425866E+02</pdfrwt>
<totfact> 0.12410882E+05</totfact>
</mgrwt>
</event>
<event>
 8    1  0.1319619E-020  0.8010367E+02  0.7818608E-02  0.1328757E+00
         -2   -1    0    0    0  501 -0.00000000000E+00  0.00000000000E+00  0.78532479248E+02  0.78532479290E+02  0.25500000000E-02 0.  1.
          1   -1    0    0  501    0  0.00000000000E+00 -0.00000000000E+00 -0.20426572845E+02  0.20426573467E+02  0.50400000000E-02 0. -1.
        -24    2    1    2    0    0  0.00000000000E+00  0.00000000000E+00  0.58105906403E+02  0.98959052756E+02  0.80103668852E+02 0.  0.
         66    2    3    3    0    0 -0.90665172034E+01 -0.25204782681E+02  0.65815461833E+02  0.71085566911E+02  0.20000006441E+01 0.  0.
         13    1    3    3    0    0  0.90665172034E+01  0.25204782681E+02 -0.77095554299E+01  0.27873485845E+02  0.10566000000E+00 0. -1.
         13    1    4    4    0    0 -0.19793395291E+01 -0.62945628709E+01  0.17946964208E+02  0.19121819867E+02  0.10566000000E+00 0. -1.
        -13    1    4    4    0    0 -0.14825073824E+01 -0.48419748942E+01  0.12760906230E+02  0.13729327764E+02  0.10566000000E+00 0.  1.
        -14    1    4    4    0    0 -0.56046702920E+01 -0.14068244916E+02  0.35107591395E+02  0.38234419280E+02  0.00000000000E+00 0.  1.
<mgrwt>
<rscale>  0 0.80103669E+02</rscale>
<asrwt>0</asrwt>
<pdfrwt beam="1">  1        1 0.31425497E-02 0.80103669E+02</pdfrwt>
<pdfrwt beam="2">  1       -2 0.12081920E-01 0.80103669E+02</pdfrwt>
<totfact> 0.11183613E+05</totfact>
</mgrwt>
</event>
<event>
 8    1  0.1319619E-020  0.7423882E+02  0.7818608E-02  0.1346244E+00
         -2   -1    0    0    0  501 -0.00000000000E+00  0.00000000000E+00  0.89120853899E+02  0.89120853935E+02  0.25500000000E-02 0.  1.
          1   -1    0    0  501    0  0.00000000000E+00 -0.00000000000E+00 -0.15460471162E+02  0.15460471983E+02  0.50400000000E-02 0. -1.
        -24    2    1    2    0    0 -0.35527136788E-14 -0.35527136788E-14  0.73660382737E+02  0.10458132592E+03  0.74238815629E+02 0.  0.
         66    2    3    3    0    0 -0.17406352918E+02 -0.30996089542E+02  0.51772396441E+02  0.62834064968E+02  0.19999995675E+01 0.  0.
         13    1    3    3    0    0  0.17406352918E+02  0.30996089542E+02  0.21887986295E+02  0.41747260951E+02  0.10566000000E+00 0. -1.
         13    1    4    4    0    0 -0.33243433042E+01 -0.72708790410E+01  0.11998892998E+02  0.14418791130E+02  0.10566000000E+00 0. -1.
        -13    1    4    4    0    0 -0.10632062941E+01 -0.21410936673E+01  0.37636334226E+01  0.44599092246E+01  0.10566000000E+00 0.  1.
        -14    1    4    4    0    0 -0.13018803319E+02 -0.21584116834E+02  0.36009870020E+02  0.43955364613E+02  0.00000000000E+00 0.  1.
<mgrwt>
<rscale>  0 0.74238816E+02</rscale>
<asrwt>0</asrwt>
<pdfrwt beam="1">  1        1 0.23785341E-02 0.74238816E+02</pdfrwt>
<pdfrwt beam="2">  1       -2 0.13710901E-01 0.74238816E+02</pdfrwt>
<totfact> 0.13199373E+05</totfact>
</mgrwt>
</event>
<event>
 8    1  0.1319619E-020  0.7884529E+02  0.7818608E-02  0.1332361E+00
          1   -1    0    0  501    0  0.00000000000E+00  0.00000000000E+00  0.26421197682E+02  0.26421198163E+02  0.50400000000E-02 0. -1.
         -2   -1    0    0    0  501 -0.00000000000E+00 -0.00000000000E+00 -0.58821888298E+02  0.58821888354E+02  0.25500000000E-02 0.  1.
        -24    2    1    2    0    0  0.00000000000E+00  0.44408920985E-15 -0.32400690616E+02  0.85243086516E+02  0.78845285505E+02 0.  0.
         66    2    3    3    0    0 -0.17633675069E+02 -0.37383833245E+01 -0.54085009369E+02  0.57044809084E+02  0.19999996609E+01 0.  0.
         13    1    3    3    0    0  0.17633675069E+02  0.37383833245E+01  0.21684318753E+02  0.28198277432E+02  0.10566000000E+00 0. -1.
         13    1    4    4    0    0 -0.64441988370E+01 -0.90299378361E+00 -0.21415258227E+02  0.22382304291E+02  0.10566000000E+00 0. -1.
        -13    1    4    4    0    0 -0.12631343136E+01 -0.33430152139E+00 -0.46571239639E+01  0.48381022573E+01  0.10566000000E+00 0.  1.
        -14    1    4    4    0    0 -0.99263419187E+01 -0.25010880195E+01 -0.28012627179E+02  0.29824402536E+02  0.00000000000E+00 0.  1.
<mgrwt>
<rscale>  0 0.78845286E+02</rscale>
<asrwt>0</asrwt>
<pdfrwt beam="1">  1        1 0.40647997E-02 0.78845286E+02</pdfrwt>
<pdfrwt beam="2">  1       -2 0.90495213E-02 0.78845286E+02</pdfrwt>
<totfact> 0.12327384E+05</totfact>
</mgrwt>
</event>
<event>
 8    1  0.1319619E-020  0.7990063E+02  0.7818608E-02  0.1329334E+00
         -2   -1    0    0    0  501 -0.00000000000E+00  0.00000000000E+00  0.62391388977E+01  0.62391394188E+01  0.25500000000E-02 0.  1.
          1   -1    0    0  501    0  0.00000000000E+00 -0.00000000000E+00 -0.25580893415E+03  0.25580893420E+03  0.50400000000E-02 0. -1.
        -24    2    1    2    0    0  0.00000000000E+00  0.00000000000E+00 -0.24956979525E+03  0.26204807362E+03  0.79900626937E+02 0.  0.
         66    2    3    3    0    0  0.34745661930E+02  0.21425795198E+01 -0.18897785737E+03  0.19216784916E+03  0.20000012020E+01 0.  0.
         13    1    3    3    0    0 -0.34745661930E+02 -0.21425795198E+01 -0.60591937883E+02  0.69880224459E+02  0.10566000000E+00 0. -1.
         13    1    4    4    0    0  0.84375253436E+01  0.37831592111E+00 -0.46750947685E+02  0.47507864931E+02  0.10566000000E+00 0.  1.
        -13    1    4    4    0    0  0.18826894798E+02  0.19950826083E+01 -0.10100769344E+03  0.10276671455E+03  0.10566000000E+00 0.  1.
        -14    1    4    4    0    0  0.74812417890E+01 -0.23081900960E+00 -0.41219216246E+02  0.41893269675E+02  0.00000000000E+00 0.  1.
<mgrwt>
<rscale>  0 0.79900627E+02</rscale>
<asrwt>0</asrwt>
<pdfrwt beam="1">  1        1 0.39355213E-01 0.79900627E+02</pdfrwt>
<pdfrwt beam="2">  1       -2 0.95986776E-03 0.79900627E+02</pdfrwt>
<totfact> 0.17550828E+05</totfact>
</mgrwt>
</event>
<event>
 8    1  0.1319619E-020  0.8086056E+02  0.7818608E-02  0.1326627E+00
          1   -1    0    0  501    0  0.00000000000E+00  0.00000000000E+00  0.79289101516E+01  0.79289117534E+01  0.50400000000E-02 0. -1.
         -2   -1    0    0    0  501 -0.00000000000E+00 -0.00000000000E+00 -0.20615786413E+03  0.20615786415E+03  0.25500000000E-02 0.  1.
        -24    2    1    2    0    0 -0.44408920985E-15  0.00000000000E+00 -0.19822895398E+03  0.21408677590E+03  0.80860555400E+02 0.  0.
         66    2    3    3    0    0  0.38398306738E+01  0.28293490087E+02 -0.17486756821E+03  0.17719461698E+03  0.19999981309E+01 0.  0.
         13    1    3    3    0    0 -0.38398306738E+01 -0.28293490087E+02 -0.23361385766E+02  0.36892158921E+02  0.10566000000E+00 0. -1.
         13    1    4    4    0    0  0.18642273281E+00  0.79049205216E+00 -0.65763438297E+01  0.66271482043E+01  0.10566000000E+00 0. -1.
        -13    1    4    4    0    0  0.35681929903E+01  0.25649714004E+02 -0.15528999666E+03  0.15743453895E+03  0.10566000000E+00 0.  1.
        -14    1    4    4    0    0  0.85214950683E-01  0.18532840309E+01 -0.13001227727E+02  0.13132929821E+02  0.00000000000E+00 0.  1.
<mgrwt>
<rscale>  0 0.80860555E+02</rscale>
<asrwt>0</asrwt>
<pdfrwt beam="1">  1        1 0.12198326E-02 0.80860555E+02</pdfrwt>
<pdfrwt beam="2">  1       -2 0.31716590E-01 0.80860555E+02</pdfrwt>
<totfact> 0.81736010E+04</totfact>
</mgrwt>
</event>
<event>
 8    1  0.1319619E-020  0.7926812E+02  0.7818608E-02  0.1331141E+00
         -2   -1    0    0    0  501 -0.00000000000E+00  0.00000000000E+00  0.13344044932E+02  0.13344045175E+02  0.25500000000E-02 0.  1.
          1   -1    0    0  501    0  0.00000000000E+00 -0.00000000000E+00 -0.11771981434E+03  0.11771981445E+03  0.50400000000E-02 0. -1.
        -24    2    1    2    0    0  0.00000000000E+00  0.00000000000E+00 -0.10437576941E+03  0.13106385963E+03  0.79268115027E+02 0.  0.
         66    2    3    3    0    0  0.29684825440E+02  0.26204870403E+02 -0.53849006558E+02  0.66870020181E+02  0.19999993758E+01 0.  0.
         13    1    3    3    0    0 -0.29684825440E+02 -0.26204870403E+02 -0.50526762854E+02  0.64193839446E+02  0.10566000000E+00 0. -1.
         13    1    4    4    0    0  0.13300226800E+02  0.11691579126E+02 -0.22569272056E+02  0.28687493103E+02  0.10566000000E+00 0. -1.
        -13    1    4    4    0    0  0.66877598483E+01  0.57459760850E+01 -0.12140112147E+02  0.15004527981E+02  0.10566000000E+00 0.  1.
         14    1    4    4    0    0  0.96968387917E+01  0.87673151928E+01 -0.19139622355E+02  0.23177999097E+02  0.00000000000E+00 0. -1.
<mgrwt>
<rscale>  0 0.79268115E+02</rscale>
<asrwt>0</asrwt>
<pdfrwt beam="1">  1        1 0.18110740E-01 0.79268115E+02</pdfrwt>
<pdfrwt beam="2">  1       -2 0.20529301E-02 0.79268115E+02</pdfrwt>
<totfact> 0.15493666E+05</totfact>
</mgrwt>
</event>
<event>
 8    1  0.1319619E-020  0.7912688E+02  0.7818608E-02  0.1331548E+00
         -2   -1    0    0    0  501 -0.00000000000E+00  0.00000000000E+00  0.59327181406E+02  0.59327181461E+02  0.25500000000E-02 0.  1.
          1   -1    0    0  501    0  0.00000000000E+00 -0.00000000000E+00 -0.26383618632E+02  0.26383619113E+02  0.50400000000E-02 0. -1.
        -24    2    1    2    0    0  0.00000000000E+00 -0.35527136788E-14  0.32943562774E+02  0.85710800574E+02  0.79126879167E+02 0.  0.
         66    2    3    3    0    0 -0.19281976616E+02  0.18290648385E+02  0.48191179956E+02  0.55070248452E+02  0.19999996108E+01 0.  0.
         13    1    3    3    0    0  0.19281976616E+02 -0.18290648385E+02 -0.15247617181E+02  0.30640552122E+02  0.10566000000E+00 0. -1.
         13    1    4    4    0    0 -0.93133190990E+01  0.96404547031E+01  0.24504834261E+02  0.27931601202E+02  0.10566000000E+00 0. -1.
        -13    1    4    4    0    0 -0.97624929291E+01  0.86425320364E+01  0.23271564416E+02  0.26675391330E+02  0.10566000000E+00 0.  1.
         14    1    4    4    0    0 -0.20616458815E+00  0.76616457826E-02  0.41478127812E+00  0.46325591945E+00  0.00000000000E+00 0. -1.
<mgrwt>
<rscale>  0 0.79126879E+02</rscale>
<asrwt>0</asrwt>
<pdfrwt beam="1">  1        1 0.40590183E-02 0.79126879E+02</pdfrwt>
<pdfrwt beam="2">  1       -2 0.91272587E-02 0.79126879E+02</pdfrwt>
<totfact> 0.12197562E+05</totfact>
</mgrwt>
</event>
<event>
 8    1  0.1319619E-020  0.8036555E+02  0.7818608E-02  0.1328017E+00
         -2   -1    0    0    0  501 -0.00000000000E+00  0.00000000000E+00  0.65546389543E+02  0.65546389592E+02  0.25500000000E-02 0.  1.
          1   -1    0    0  501    0  0.00000000000E+00 -0.00000000000E+00 -0.24633780126E+02  0.24633780641E+02  0.50400000000E-02 0. -1.
        -24    2    1    2    0    0  0.17763568394E-14  0.00000000000E+00  0.40912609417E+02  0.90180170233E+02  0.80365549174E+02 0.  0.
         66    2    3    3    0    0 -0.10246892449E+02 -0.65087790818E+01  0.63422832493E+02  0.64605098055E+02  0.20000008102E+01 0.  0.
         13    1    3    3    0    0  0.10246892449E+02  0.65087790818E+01 -0.22510223076E+02  0.25575072179E+02  0.10566000000E+00 0. -1.
         13    1    4    4    0    0 -0.43475534089E+01 -0.33781649484E+01  0.25211376334E+02  0.25805772218E+02  0.10566000000E+00 0. -1.
        -13    1    4    4    0    0 -0.28249457919E+01 -0.17204126704E+01  0.16873059286E+02  0.17194517504E+02  0.10566000000E+00 0.  1.
         14    1    4    4    0    0 -0.30743932484E+01 -0.14102014631E+01  0.21338396872E+02  0.21604808332E+02  0.00000000000E+00 0. -1.
<mgrwt>
<rscale>  0 0.80365549E+02</rscale>
<asrwt>0</asrwt>
<pdfrwt beam="1">  1        1 0.37898124E-02 0.80365549E+02</pdfrwt>
<pdfrwt beam="2">  1       -2 0.10084060E-01 0.80365549E+02</pdfrwt>
<totfact> 0.11507548E+05</totfact>
</mgrwt>
</event>
<event>
 8    1  0.1319619E-020  0.7786408E+02  0.7818608E-02  0.1335225E+00
          1   -1    0    0  501    0  0.00000000000E+00  0.00000000000E+00  0.18476794067E+02  0.18476794754E+02  0.50400000000E-02 0. -1.
         -2   -1    0    0    0  501 -0.00000000000E+00 -0.00000000000E+00 -0.82032826229E+02  0.82032826268E+02  0.25500000000E-02 0.  1.
        -24    2    1    2    0    0  0.00000000000E+00 -0.71054273576E-14 -0.63556032162E+02  0.10050962102E+03  0.77864078328E+02 0.  0.
         66    2    3    3    0    0 -0.16551137466E+02  0.33930557877E+02 -0.43940716608E+02  0.57965588802E+02  0.19999999865E+01 0.  0.
         13    1    3    3    0    0  0.16551137466E+02 -0.33930557877E+02 -0.19615315554E+02  0.42544032220E+02  0.10566000000E+00 0. -1.
         13    1    4    4    0    0 -0.41644029531E+01  0.78560367958E+01 -0.93727289068E+01  0.12919705000E+02  0.10566000000E+00 0. -1.
        -13    1    4    4    0    0 -0.62122472707E+01  0.12004793377E+02 -0.16177683891E+02  0.21081643681E+02  0.10566000000E+00 0.  1.
        -14    1    4    4    0    0 -0.61744872419E+01  0.14069727704E+02 -0.18390303810E+02  0.23964240122E+02  0.00000000000E+00 0.  1.
<mgrwt>
<rscale>  0 0.77864078E+02</rscale>
<asrwt>0</asrwt>
<pdfrwt beam="1">  1        1 0.28425838E-02 0.77864078E+02</pdfrwt>
<pdfrwt beam="2">  1       -2 0.12620435E-01 0.77864078E+02</pdfrwt>
<totfact> 0.11908813E+05</totfact>
</mgrwt>
</event>
<event>
 8    1  0.1319619E-020  0.8083232E+02  0.7818608E-02  0.1326706E+00
          1   -1    0    0  501    0  0.00000000000E+00  0.00000000000E+00  0.56781724832E+02  0.56781725056E+02  0.50400000000E-02 0. -1.
         -2   -1    0    0    0  501 -0.00000000000E+00 -0.00000000000E+00 -0.28767461907E+02  0.28767462020E+02  0.25500000000E-02 0.  1.
        -24    2    1    2    0    0  0.71054273576E-14 -0.17763568394E-14  0.28014262925E+02  0.85549187076E+02  0.80832323251E+02 0.  0.
         66    2    3    3    0    0  0.32792432869E+02 -0.14597352977E+02 -0.55862955007E+01  0.36381768413E+02  0.20000020077E+01 0.  0.
         13    1    3    3    0    0 -0.32792432869E+02  0.14597352977E+02  0.33600558426E+02  0.49167418663E+02  0.10566000000E+00 0. -1.
         13    1    4    4    0    0  0.53582766549E+01 -0.16238609163E+01 -0.75995519034E+00  0.56512608250E+01  0.10566000000E+00 0. -1.
        -13    1    4    4    0    0  0.98918823866E+01 -0.46233085511E+01 -0.15953386997E+01  0.11035424265E+02  0.10566000000E+00 0.  1.
         14    1    4    4    0    0  0.17542273828E+02 -0.83501835097E+01 -0.32310016107E+01  0.19695083323E+02  0.00000000000E+00 0. -1.
<mgrwt>
<rscale>  0 0.80832323E+02</rscale>
<asrwt>0</asrwt>
<pdfrwt beam="1">  1        1 0.87356500E-02 0.80832323E+02</pdfrwt>
<pdfrwt beam="2">  1       -2 0.44257634E-02 0.80832323E+02</pdfrwt>
<totfact> 0.13043284E+05</totfact>
</mgrwt>
</event>
<event>
 8    1  0.1319619E-020  0.7943029E+02  0.7818608E-02  0.1330676E+00
         -2   -1    0    0    0  501 -0.00000000000E+00  0.00000000000E+00  0.19429724833E+03  0.19429724835E+03  0.25500000000E-02 0.  1.
          1   -1    0    0  501    0  0.00000000000E+00 -0.00000000000E+00 -0.81179350513E+01  0.81179366158E+01  0.50400000000E-02 0. -1.
        -24    2    1    2    0    0  0.00000000000E+00  0.00000000000E+00  0.18617931328E+03  0.20241518497E+03  0.79430286482E+02 0.  0.
         66    2    3    3    0    0 -0.67142505484E+01  0.10290043196E+02  0.18932324058E+03  0.18973206263E+03  0.20000037651E+01 0.  0.
         13    1    3    3    0    0  0.67142505484E+01 -0.10290043196E+02 -0.31439272983E+01  0.12683122340E+02  0.10566000000E+00 0. -1.
         13    1    4    4    0    0 -0.74103903871E+00  0.81533605561E+00  0.23023648517E+02  0.23050237891E+02  0.10566000000E+00 0. -1.
        -13    1    4    4    0    0 -0.11518127520E+01  0.15384627060E+01  0.36306262175E+02  0.36357246558E+02  0.10566000000E+00 0.  1.
        -14    1    4    4    0    0 -0.48213987576E+01  0.79362444343E+01  0.12999332989E+03  0.13032457818E+03  0.00000000000E+00 0.  1.
<mgrwt>
<rscale>  0 0.79430286E+02</rscale>
<asrwt>0</asrwt>
<pdfrwt beam="1">  1        1 0.12489133E-02 0.79430286E+02</pdfrwt>
<pdfrwt beam="2">  1       -2 0.29891883E-01 0.79430286E+02</pdfrwt>
<totfact> 0.87670601E+04</totfact>
</mgrwt>
</event>
<event>
 8    1  0.1319619E-020  0.7933407E+02  0.7818608E-02  0.1330952E+00
          1   -1    0    0  501    0  0.00000000000E+00  0.00000000000E+00  0.29108535585E+01  0.29108579217E+01  0.50400000000E-02 0. -1.
         -2   -1    0    0    0  501 -0.00000000000E+00 -0.00000000000E+00 -0.54055369448E+03  0.54055369449E+03  0.25500000000E-02 0.  1.
        -24    2    1    2    0    0  0.00000000000E+00  0.00000000000E+00 -0.53764284092E+03  0.54346455241E+03  0.79334074203E+02 0.  0.
         66    2    3    3    0    0 -0.69498738351E+01 -0.18223543535E+02 -0.50540961371E+03  0.50578975465E+03  0.19999994589E+01 0.  0.
         13    1    3    3    0    0  0.69498738351E+01  0.18223543535E+02 -0.32233227216E+02  0.37674797757E+02  0.10566000000E+00 0. -1.
         13    1    4    4    0    0 -0.18145180989E+01 -0.36139569135E+01 -0.10197107394E+03  0.10205128242E+03  0.10566000000E+00 0. -1.
        -13    1    4    4    0    0 -0.43723954064E+01 -0.11087947306E+02 -0.32100404902E+03  0.32122526530E+03  0.10566000000E+00 0.  1.
         14    1    4    4    0    0 -0.76296032981E+00 -0.35216393155E+01 -0.82434490756E+02  0.82513206931E+02  0.00000000000E+00 0. -1.
<mgrwt>
<rscale>  0 0.79334074E+02</rscale>
<asrwt>0</asrwt>
<pdfrwt beam="1">  1        1 0.44782439E-03 0.79334074E+02</pdfrwt>
<pdfrwt beam="2">  1       -2 0.83162027E-01 0.79334074E+02</pdfrwt>
<totfact> 0.48426384E+04</totfact>
</mgrwt>
</event>
<event>
 8    1  0.1319619E-020  0.7934989E+02  0.7818608E-02  0.1330907E+00
          1   -1    0    0  501    0  0.00000000000E+00  0.00000000000E+00  0.17855114501E+02  0.17855115212E+02  0.50400000000E-02 0. -1.
         -2   -1    0    0    0  501 -0.00000000000E+00 -0.00000000000E+00 -0.88159676862E+02  0.88159676899E+02  0.25500000000E-02 0.  1.
        -24    2    1    2    0    0 -0.44408920985E-15  0.00000000000E+00 -0.70304562361E+02  0.10601479211E+03  0.79349887572E+02 0.  0.
         66    2    3    3    0    0 -0.36606518760E+01  0.23557488970E+02 -0.77502856341E+02  0.81111333336E+02  0.19999989576E+01 0.  0.
         13    1    3    3    0    0  0.36606518760E+01 -0.23557488970E+02  0.71982939801E+01  0.24903458775E+02  0.10566000000E+00 0. -1.
         13    1    4    4    0    0 -0.21140431940E+00  0.42205412131E+01 -0.12101818776E+02  0.12818847126E+02  0.10566000000E+00 0. -1.
        -13    1    4    4    0    0 -0.28211902995E+00  0.23072154828E+01 -0.69806171414E+01  0.73581936738E+01  0.10566000000E+00 0.  1.
         14    1    4    4    0    0 -0.31671285266E+01  0.17029732274E+02 -0.58420420424E+02  0.60934292536E+02  0.00000000000E+00 0. -1.
<mgrwt>
<rscale>  0 0.79349888E+02</rscale>
<asrwt>0</asrwt>
<pdfrwt beam="1">  1        1 0.27469408E-02 0.79349888E+02</pdfrwt>
<pdfrwt beam="2">  1       -2 0.13563027E-01 0.79349888E+02</pdfrwt>
<totfact> 0.11167145E+05</totfact>
</mgrwt>
</event>
<event>
 8    1  0.1319619E-020  0.8009421E+02  0.7818608E-02  0.1328784E+00
         -2   -1    0    0    0  501 -0.00000000000E+00  0.00000000000E+00  0.29962366443E+02  0.29962366552E+02  0.25500000000E-02 0.  1.
          1   -1    0    0  501    0  0.00000000000E+00 -0.00000000000E+00 -0.53526159639E+02  0.53526159876E+02  0.50400000000E-02 0. -1.
        -24    2    1    2    0    0  0.00000000000E+00  0.00000000000E+00 -0.23563793196E+02  0.83488526428E+02  0.80094205130E+02 0.  0.
         66    2    3    3    0    0  0.36212387059E+02 -0.46325543849E+01  0.53060466796E+01  0.36945252423E+02  0.20000021580E+01 0.  0.
         13    1    3    3    0    0 -0.36212387059E+02  0.46325543849E+01 -0.28869839875E+02  0.46543274005E+02  0.10566000000E+00 0. -1.
         13    1    4    4    0    0  0.43421355147E+01 -0.84820975677E+00  0.43064238680E+00  0.44463712756E+01  0.10566000000E+00 0. -1.
        -13    1    4    4    0    0  0.64567327788E+01 -0.57649298442E+00  0.39934098731E+00  0.64955661491E+01  0.10566000000E+00 0.  1.
        -14    1    4    4    0    0  0.25413518765E+02 -0.32078516437E+01  0.44760633055E+01  0.26003314999E+02  0.00000000000E+00 0.  1.
<mgrwt>
<rscale>  0 0.80094205E+02</rscale>
<asrwt>0</asrwt>
<pdfrwt beam="1">  1        1 0.82347938E-02 0.80094205E+02</pdfrwt>
<pdfrwt beam="2">  1       -2 0.46095949E-02 0.80094205E+02</pdfrwt>
<totfact> 0.13255276E+05</totfact>
</mgrwt>
</event>
<event>
 8    1  0.1319619E-020  0.8045893E+02  0.7818608E-02  0.1327754E+00
          1   -1    0    0  501    0  0.00000000000E+00  0.00000000000E+00  0.63698521931E+01  0.63698541870E+01  0.50400000000E-02 0. -1.
         -2   -1    0    0    0  501 -0.00000000000E+00 -0.00000000000E+00 -0.25407332797E+03  0.25407332798E+03  0.25500000000E-02 0.  1.
        -24    2    1    2    0    0  0.00000000000E+00 -0.35527136788E-14 -0.24770347578E+03  0.26044318217E+03  0.80458928820E+02 0.  0.
         66    2    3    3    0    0 -0.30993138680E+02  0.19408943078E+02 -0.17800804807E+03  0.18173647646E+03  0.19999953168E+01 0.  0.
         13    1    3    3    0    0  0.30993138680E+02 -0.19408943078E+02 -0.69695427705E+02  0.78706705710E+02  0.10566000000E+00 0. -1.
         13    1    4    4    0    0 -0.11474211786E+02  0.82355086035E+01 -0.70495064917E+02  0.71896081115E+02  0.10566000000E+00 0. -1.
        -13    1    4    4    0    0 -0.12190205422E+02  0.70231309217E+01 -0.67515653189E+02  0.68965934096E+02  0.10566000000E+00 0.  1.
         14    1    4    4    0    0 -0.73287214710E+01  0.41503035529E+01 -0.39997329968E+02  0.40874461251E+02  0.00000000000E+00 0. -1.
<mgrwt>
<rscale>  0 0.80458929E+02</rscale>
<asrwt>0</asrwt>
<pdfrwt beam="1">  1        1 0.97997762E-03 0.80458929E+02</pdfrwt>
<pdfrwt beam="2">  1       -2 0.39088196E-01 0.80458929E+02</pdfrwt>
<totfact> 0.75397434E+04</totfact>
</mgrwt>
</event>
<event>
 8    1  0.1319619E-020  0.8180810E+02  0.7818608E-02  0.1323997E+00
          1   -1    0    0  501    0  0.00000000000E+00  0.00000000000E+00  0.32287331836E+02  0.32287332230E+02  0.50400000000E-02 0. -1.
         -2   -1    0    0    0  501 -0.00000000000E+00 -0.00000000000E+00 -0.51820367369E+02  0.51820367432E+02  0.25500000000E-02 0.  1.
        -24    2    1    2    0    0  0.00000000000E+00  0.00000000000E+00 -0.19533035533E+02  0.84107699661E+02  0.81808102686E+02 0.  0.
         66    2    3    3    0    0  0.17329547941E+02  0.25892450446E+02 -0.36981415584E+02  0.48397906153E+02  0.19999998577E+01 0.  0.
         13    1    3    3    0    0 -0.17329547941E+02 -0.25892450446E+02  0.17448380051E+02  0.35709793508E+02  0.10566000000E+00 0. -1.
         13    1    4    4    0    0  0.32039843553E+01  0.45670885768E+01 -0.58681312184E+01  0.80975268971E+01  0.10566000000E+00 0. -1.
        -13    1    4    4    0    0  0.64633132813E+01  0.86126074790E+01 -0.12819931954E+02  0.16742557914E+02  0.10566000000E+00 0.  1.
         14    1    4    4    0    0  0.76622503048E+01  0.12712754390E+02 -0.18293352412E+02  0.23557821342E+02  0.00000000000E+00 0. -1.
<mgrwt>
<rscale>  0 0.81808103E+02</rscale>
<asrwt>0</asrwt>
<pdfrwt beam="1">  1        1 0.49672819E-02 0.81808103E+02</pdfrwt>
<pdfrwt beam="2">  1       -2 0.79723642E-02 0.81808103E+02</pdfrwt>
<totfact> 0.11491148E+05</totfact>
</mgrwt>
</event>
<event>
 8    1  0.1529456E-020  0.8006421E+02  0.7818608E-02  0.1328869E+00
          1   -1    0    0  501    0  0.00000000000E+00  0.00000000000E+00  0.12979921097E+03  0.12979921106E+03  0.50400000000E-02 0. -1.
         -2   -1    0    0    0  501 -0.00000000000E+00 -0.00000000000E+00 -0.12346526329E+02  0.12346526592E+02  0.25500000000E-02 0.  1.
        -24    2    1    2    0    0  0.35527136788E-14  0.00000000000E+00  0.11745268464E+03  0.14214573766E+03  0.80064209265E+02 0.  0.
         66    2    3    3    0    0  0.19475414378E+02 -0.96004171147E+01 -0.89426775406E+00  0.21823370332E+02  0.20000009720E+01 0.  0.
         13    1    3    3    0    0 -0.19475414378E+02  0.96004171147E+01  0.11834695239E+03  0.12032236732E+03  0.10566000000E+00 0. -1.
         13    1    4    4    0    0  0.15855938330E+01 -0.66645080735E+00  0.27834774384E+00  0.17455388807E+01  0.10566000000E+00 0. -1.
        -13    1    4    4    0    0  0.60538977394E+00 -0.14374746250E+00 -0.20068187224E+00  0.66226683505E+00  0.10566000000E+00 0.  1.
        -14    1    4    4    0    0  0.17284430771E+02 -0.87902188449E+01 -0.97193362566E+00  0.19415564617E+02  0.00000000000E+00 0.  1.
<mgrwt>
<rscale>  0 0.80064209E+02</rscale>
<asrwt>0</asrwt>
<pdfrwt beam="1">  1        1 0.19969108E-01 0.80064209E+02</pdfrwt>
<pdfrwt beam="2">  1       -2 0.18994657E-02 0.80064209E+02</pdfrwt>
<totfact> 0.15345770E+05</totfact>
</mgrwt>
</event>
<event>
 8    1  0.1319619E-020  0.8229657E+02  0.7818608E-02  0.1322658E+00
         -2   -1    0    0    0  501 -0.00000000000E+00  0.00000000000E+00  0.71476693711E+02  0.71476693756E+02  0.25500000000E-02 0.  1.
          1   -1    0    0  501    0  0.00000000000E+00 -0.00000000000E+00 -0.23688578421E+02  0.23688578957E+02  0.50400000000E-02 0. -1.
        -24    2    1    2    0    0  0.35527136788E-14  0.35527136788E-14  0.47788115290E+02  0.95165272713E+02  0.82296568383E+02 0.  0.
         66    2    3    3    0    0  0.19133495095E+02  0.29068931316E+02  0.49245112433E+02  0.60333858630E+02  0.19999990476E+01 0.  0.
         13    1    3    3    0    0 -0.19133495095E+02 -0.29068931316E+02 -0.14569971435E+01  0.34831414084E+02  0.10566000000E+00 0. -1.
         13    1    4    4    0    0  0.13161984865E+01  0.29378638859E+01  0.47701061319E+01  0.57557362008E+01  0.10566000000E+00 0.  1.
        -13    1    4    4    0    0  0.74105990750E+01  0.10467059845E+02  0.18428355422E+02  0.22451988065E+02  0.10566000000E+00 0. -1.
        -14    1    4    4    0    0  0.10406697533E+02  0.15664007585E+02  0.26046650879E+02  0.32126134364E+02  0.00000000000E+00 0.  1.
<mgrwt>
<rscale>  0 0.82296568E+02</rscale>
<asrwt>0</asrwt>
<pdfrwt beam="1">  1        1 0.36443968E-02 0.82296568E+02</pdfrwt>
<pdfrwt beam="2">  1       -2 0.10996414E-01 0.82296568E+02</pdfrwt>
<totfact> 0.10648349E+05</totfact>
</mgrwt>
</event>
<event>
 8    1  0.1319619E-020  0.8207250E+02  0.7818608E-02  0.1323271E+00
         -2   -1    0    0    0  501 -0.00000000000E+00  0.00000000000E+00  0.13128422136E+02  0.13128422383E+02  0.25500000000E-02 0.  1.
          1   -1    0    0  501    0  0.00000000000E+00 -0.00000000000E+00 -0.12826933405E+03  0.12826933415E+03  0.50400000000E-02 0. -1.
        -24    2    1    2    0    0  0.00000000000E+00 -0.35527136788E-14 -0.11514091191E+03  0.14139775653E+03  0.82072504262E+02 0.  0.
         66    2    3    3    0    0 -0.22975240294E+02 -0.25172845118E+02 -0.18301324694E+02  0.38735930058E+02  0.19999985159E+01 0.  0.
         13    1    3    3    0    0  0.22975240294E+02  0.25172845118E+02 -0.96839587217E+02  0.10266182647E+03  0.10566000000E+00 0. -1.
         13    1    4    4    0    0 -0.46786235195E+00 -0.23753181688E+00 -0.35486712973E+00  0.64219254104E+00  0.10566000000E+00 0. -1.
        -13    1    4    4    0    0 -0.62773608236E+01 -0.64495091630E+01 -0.49497069549E+01  0.10271912691E+02  0.10566000000E+00 0.  1.
         14    1    4    4    0    0 -0.16230017118E+02 -0.18485804138E+02 -0.12996750609E+02  0.27821824826E+02  0.00000000000E+00 0. -1.
<mgrwt>
<rscale>  0 0.82072504E+02</rscale>
<asrwt>0</asrwt>
<pdfrwt beam="1">  1        1 0.19733743E-01 0.82072504E+02</pdfrwt>
<pdfrwt beam="2">  1       -2 0.20197574E-02 0.82072504E+02</pdfrwt>
<totfact> 0.14327072E+05</totfact>
</mgrwt>
</event>
<event>
 8    1  0.1319619E-020  0.8212531E+02  0.7818608E-02  0.1323126E+00
         -2   -1    0    0    0  501 -0.00000000000E+00  0.00000000000E+00  0.15728095848E+02  0.15728096054E+02  0.25500000000E-02 0.  1.
          1   -1    0    0  501    0  0.00000000000E+00 -0.00000000000E+00 -0.10720571489E+03  0.10720571501E+03  0.50400000000E-02 0. -1.
        -24    2    1    2    0    0 -0.35527136788E-14  0.35527136788E-14 -0.91477619045E+02  0.12293381107E+03  0.82125313497E+02 0.  0.
         66    2    3    3    0    0 -0.29766304623E+02  0.27946021751E+02 -0.39571540453E+02  0.56893935374E+02  0.20000114619E+01 0.  0.
         13    1    3    3    0    0  0.29766304623E+02 -0.27946021751E+02 -0.51906078592E+02  0.66039875692E+02  0.10566000000E+00 0. -1.
         13    1    4    4    0    0 -0.91296443506E+01  0.93364643846E+01 -0.13222307763E+02  0.18583879030E+02  0.10566000000E+00 0. -1.
        -13    1    4    4    0    0 -0.15831779233E+02  0.14228177442E+02 -0.20803721042E+02  0.29763941947E+02  0.10566000000E+00 0.  1.
         14    1    4    4    0    0 -0.48048810394E+01  0.43813799244E+01 -0.55455116485E+01  0.85461143971E+01  0.00000000000E+00 0. -1.
<mgrwt>
<rscale>  0 0.82125313E+02</rscale>
<asrwt>0</asrwt>
<pdfrwt beam="1">  1        1 0.16493187E-01 0.82125313E+02</pdfrwt>
<pdfrwt beam="2">  1       -2 0.24197071E-02 0.82125313E+02</pdfrwt>
<totfact> 0.13856438E+05</totfact>
</mgrwt>
</event>
<event>
 8    1  0.1319619E-020  0.8088105E+02  0.7818608E-02  0.1326570E+00
         -2   -1    0    0    0  501 -0.00000000000E+00  0.00000000000E+00  0.12008230275E+03  0.12008230278E+03  0.25500000000E-02 0.  1.
          1   -1    0    0  501    0  0.00000000000E+00 -0.00000000000E+00 -0.13619291238E+02  0.13619292170E+02  0.50400000000E-02 0. -1.
        -24    2    1    2    0    0  0.35527136788E-14  0.88817841970E-15  0.10646301152E+03  0.13370159495E+03  0.80881046429E+02 0.  0.
         66    2    3    3    0    0  0.23681735226E+02 -0.68348526180E+01  0.10621085536E+03  0.10905175640E+03  0.19999959804E+01 0.  0.
         13    1    3    3    0    0 -0.23681735226E+02  0.68348526180E+01  0.25215615181E+00  0.24649838547E+02  0.10566000000E+00 0. -1.
         13    1    4    4    0    0  0.10641010484E+02 -0.27061232161E+01  0.46041678737E+02  0.47332880241E+02  0.10566000000E+00 0. -1.
        -13    1    4    4    0    0  0.58038599239E+01 -0.22098465212E+01  0.29800786837E+02  0.30441193666E+02  0.10566000000E+00 0.  1.
        -14    1    4    4    0    0  0.72368648186E+01 -0.19188828807E+01  0.30368389790E+02  0.31277682497E+02  0.00000000000E+00 0.  1.
<mgrwt>
<rscale>  0 0.80881046E+02</rscale>
<asrwt>0</asrwt>
<pdfrwt beam="1">  1        1 0.20952757E-02 0.80881046E+02</pdfrwt>
<pdfrwt beam="2">  1       -2 0.18474200E-01 0.80881046E+02</pdfrwt>
<totfact> 0.98321662E+04</totfact>
</mgrwt>
</event>
<event>
 8    1  0.1319619E-020  0.7986912E+02  0.7818608E-02  0.1329423E+00
         -2   -1    0    0    0  501 -0.00000000000E+00  0.00000000000E+00  0.73561165107E+03  0.73561165108E+03  0.25500000000E-02 0.  1.
          1   -1    0    0  501    0  0.00000000000E+00 -0.00000000000E+00 -0.21679469327E+01  0.21679527911E+01  0.50400000000E-02 0. -1.
        -24    2    1    2    0    0  0.00000000000E+00  0.44408920985E-15  0.73344370414E+03  0.73777960387E+03  0.79869122578E+02 0.  0.
         66    2    3    3    0    0  0.32773316068E+02 -0.31253959830E+01  0.57533616972E+03  0.57628080526E+03  0.19999954657E+01 0.  0.
         13    1    3    3    0    0 -0.32773316068E+02  0.31253959830E+01  0.15810753443E+03  0.16149879861E+03  0.10566000000E+00 0. -1.
         13    1    4    4    0    0  0.20867369541E+01 -0.65148040906E-01  0.30388770298E+02  0.30460585018E+02  0.10566000000E+00 0. -1.
        -13    1    4    4    0    0  0.25040245346E+02 -0.28851226167E+01  0.44552753106E+03  0.44623999139E+03  0.10566000000E+00 0.  1.
         14    1    4    4    0    0  0.56463337679E+01 -0.17512532542E+00  0.99419868356E+02  0.99580228850E+02  0.00000000000E+00 0. -1.
<mgrwt>
<rscale>  0 0.79869123E+02</rscale>
<asrwt>0</asrwt>
<pdfrwt beam="1">  1        1 0.33353023E-03 0.79869123E+02</pdfrwt>
<pdfrwt beam="2">  1       -2 0.11317120E+00 0.79869123E+02</pdfrwt>
<totfact> 0.36252050E+04</totfact>
</mgrwt>
</event>
<event>
 8    1  0.1319619E-020  0.8023803E+02  0.7818608E-02  0.1328377E+00
         -2   -1    0    0    0  501 -0.00000000000E+00  0.00000000000E+00  0.11889013753E+02  0.11889014027E+02  0.25500000000E-02 0.  1.
          1   -1    0    0  501    0  0.00000000000E+00 -0.00000000000E+00 -0.13538006989E+03  0.13538006998E+03  0.50400000000E-02 0. -1.
        -24    2    1    2    0    0  0.35527136788E-14  0.00000000000E+00 -0.12349105613E+03  0.14726908401E+03  0.80238034368E+02 0.  0.
         66    2    3    3    0    0  0.14039511526E+02 -0.33438971843E+02 -0.30406567866E+02  0.47369104818E+02  0.20000000241E+01 0.  0.
         13    1    3    3    0    0 -0.14039511526E+02  0.33438971843E+02 -0.93084488268E+02  0.99899979189E+02  0.10566000000E+00 0. -1.
         13    1    4    4    0    0  0.31349364218E+01 -0.89263056057E+01 -0.77770023071E+01  0.12247435938E+02  0.10566000000E+00 0. -1.
        -13    1    4    4    0    0  0.65783924435E+01 -0.15963317461E+02 -0.14048630255E+02  0.22259333493E+02  0.10566000000E+00 0.  1.
         14    1    4    4    0    0  0.43261826608E+01 -0.85493487767E+01 -0.85809353037E+01  0.12862335387E+02  0.00000000000E+00 0. -1.
<mgrwt>
<rscale>  0 0.80238034E+02</rscale>
<asrwt>0</asrwt>
<pdfrwt beam="1">  1        1 0.20827702E-01 0.80238034E+02</pdfrwt>
<pdfrwt beam="2">  1       -2 0.18290792E-02 0.80238034E+02</pdfrwt>
<totfact> 0.15372751E+05</totfact>
</mgrwt>
</event>
<event>
 8    1  0.1319619E-020  0.8048798E+02  0.7818608E-02  0.1327672E+00
          1   -1    0    0  501    0  0.00000000000E+00  0.00000000000E+00  0.34287839442E+03  0.34287839446E+03  0.50400000000E-02 0. -1.
         -2   -1    0    0    0  501 -0.00000000000E+00 -0.00000000000E+00 -0.47234787101E+01  0.47234793984E+01  0.25500000000E-02 0.  1.
        -24    2    1    2    0    0  0.71054273576E-14  0.00000000000E+00  0.33815491571E+03  0.34760187386E+03  0.80487984749E+02 0.  0.
         66    2    3    3    0    0  0.38812491765E+02 -0.99063750418E+01  0.18476964748E+03  0.18907238935E+03  0.20000003233E+01 0.  0.
         13    1    3    3    0    0 -0.38812491765E+02  0.99063750418E+01  0.15338526823E+03  0.15852948451E+03  0.10566000000E+00 0. -1.
         13    1    4    4    0    0  0.91036590487E+01 -0.28125880391E+01  0.44797769043E+02  0.45799984005E+02  0.10566000000E+00 0. -1.
        -13    1    4    4    0    0  0.29264552495E+00 -0.14621045644E+00  0.19052454506E+01  0.19360121806E+01  0.10566000000E+00 0.  1.
        -14    1    4    4    0    0  0.29416187191E+02 -0.69475765463E+01  0.13806663299E+03  0.14133639317E+03  0.00000000000E+00 0.  1.
<mgrwt>
<rscale>  0 0.80487985E+02</rscale>
<asrwt>0</asrwt>
<pdfrwt beam="1">  1        1 0.52750524E-01 0.80487985E+02</pdfrwt>
<pdfrwt beam="2">  1       -2 0.72668907E-03 0.80487985E+02</pdfrwt>
<totfact> 0.18201314E+05</totfact>
</mgrwt>
</event>
<event>
 8    1  0.1319619E-020  0.7870968E+02  0.7818608E-02  0.1332754E+00
          1   -1    0    0  501    0  0.00000000000E+00  0.00000000000E+00  0.14903677227E+03  0.14903677235E+03  0.50400000000E-02 0. -1.
         -2   -1    0    0    0  501 -0.00000000000E+00 -0.00000000000E+00 -0.10392089650E+02  0.10392089963E+02  0.25500000000E-02 0.  1.
        -24    2    1    2    0    0  0.35527136788E-14 -0.71054273576E-14  0.13864468262E+03  0.15942886231E+03  0.78709682512E+02 0.  0.
         66    2    3    3    0    0  0.17305068493E+02 -0.21323826552E+02  0.12340912323E+02  0.30173980284E+02  0.19999987089E+01 0.  0.
         13    1    3    3    0    0 -0.17305068493E+02  0.21323826552E+02  0.12630377029E+03  0.12925488203E+03  0.10566000000E+00 0. -1.
         13    1    4    4    0    0  0.81716842290E+00 -0.89249570342E+00  0.77649256830E+00  0.14416717921E+01  0.10566000000E+00 0. -1.
        -13    1    4    4    0    0  0.48648957053E+01 -0.49929882397E+01  0.28008847255E+01  0.75135385183E+01  0.10566000000E+00 0.  1.
        -14    1    4    4    0    0  0.11623004365E+02 -0.15438342609E+02  0.87635350294E+01  0.21218769974E+02  0.00000000000E+00 0.  1.
<mgrwt>
<rscale>  0 0.78709683E+02</rscale>
<asrwt>0</asrwt>
<pdfrwt beam="1">  1        1 0.22928734E-01 0.78709683E+02</pdfrwt>
<pdfrwt beam="2">  1       -2 0.15987831E-02 0.78709683E+02</pdfrwt>
<totfact> 0.16469407E+05</totfact>
</mgrwt>
</event>
<event>
 8    1  0.1319619E-020  0.8506461E+02  0.7818608E-02  0.1315264E+00
         -2   -1    0    0    0  501 -0.00000000000E+00  0.00000000000E+00  0.20915094277E+02  0.20915094432E+02  0.25500000000E-02 0.  1.
          1   -1    0    0  501    0  0.00000000000E+00 -0.00000000000E+00 -0.86492414987E+02  0.86492415134E+02  0.50400000000E-02 0. -1.
        -24    2    1    2    0    0 -0.71054273576E-14  0.00000000000E+00 -0.65577320710E+02  0.10740750957E+03  0.85064611441E+02 0.  0.
         66    2    3    3    0    0  0.33918587193E+02  0.45438598154E+01 -0.96684767497E+00  0.34293614792E+02  0.20000004752E+01 0.  0.
         13    1    3    3    0    0 -0.33918587193E+02 -0.45438598154E+01 -0.64610473035E+02  0.73113894774E+02  0.10566000000E+00 0. -1.
         13    1    4    4    0    0  0.34557746821E+01  0.87849095821E+00 -0.26240089426E+00  0.35768901691E+01  0.10566000000E+00 0. -1.
        -13    1    4    4    0    0  0.81888558961E+01  0.62071561686E+00 -0.60705757355E+00  0.82354314822E+01  0.10566000000E+00 0.  1.
        -14    1    4    4    0    0  0.22273956615E+02  0.30446532403E+01 -0.97389207165E-01  0.22481293141E+02  0.00000000000E+00 0.  1.
<mgrwt>
<rscale>  0 0.85064611E+02</rscale>
<asrwt>0</asrwt>
<pdfrwt beam="1">  1        1 0.13306525E-01 0.85064611E+02</pdfrwt>
<pdfrwt beam="2">  1       -2 0.32177069E-02 0.85064611E+02</pdfrwt>
<totfact> 0.12137481E+05</totfact>
</mgrwt>
</event>
<event>
 8    1  0.1319619E-020  0.8018833E+02  0.7818608E-02  0.1328518E+00
          1   -1    0    0  501    0  0.00000000000E+00  0.00000000000E+00  0.28271804698E+02  0.28271805147E+02  0.50400000000E-02 0. -1.
         -2   -1    0    0    0  501 -0.00000000000E+00 -0.00000000000E+00 -0.56860252966E+02  0.56860253024E+02  0.25500000000E-02 0.  1.
        -24    2    1    2    0    0  0.35527136788E-14 -0.35527136788E-14 -0.28588448269E+02  0.85132058171E+02  0.80188328041E+02 0.  0.
         66    2    3    3    0    0  0.19089935826E+02 -0.23072545127E+02 -0.42567138093E+02  0.52083867271E+02  0.19999990103E+01 0.  0.
         13    1    3    3    0    0 -0.19089935826E+02  0.23072545127E+02  0.13978689824E+02  0.33048190899E+02  0.10566000000E+00 0. -1.
         13    1    4    4    0    0  0.90623760658E+00 -0.71024016774E+00 -0.14533252855E+01  0.18571553830E+01  0.10566000000E+00 0. -1.
        -13    1    4    4    0    0  0.17974290330E+02 -0.22142923841E+02 -0.40413868568E+02  0.49463887087E+02  0.10566000000E+00 0.  1.
        -14    1    4    4    0    0  0.20940789026E+00 -0.21938111770E+00 -0.69994423931E+00  0.76282480128E+00  0.00000000000E+00 0.  1.
<mgrwt>
<rscale>  0 0.80188328E+02</rscale>
<asrwt>0</asrwt>
<pdfrwt beam="1">  1        1 0.43495085E-02 0.80188328E+02</pdfrwt>
<pdfrwt beam="2">  1       -2 0.87477313E-02 0.80188328E+02</pdfrwt>
<totfact> 0.11885920E+05</totfact>
</mgrwt>
</event>
<event>
 8    1  0.1319619E-020  0.7183172E+02  0.7818608E-02  0.1353973E+00
          1   -1    0    0  501    0  0.00000000000E+00  0.00000000000E+00  0.18697392262E+03  0.18697392269E+03  0.50400000000E-02 0. -1.
         -2   -1    0    0    0  501 -0.00000000000E+00 -0.00000000000E+00 -0.68990844070E+01  0.68990848782E+01  0.25500000000E-02 0.  1.
        -24    2    1    2    0    0 -0.35527136788E-14  0.35527136788E-14  0.18007483821E+03  0.19387300756E+03  0.71831717961E+02 0.  0.
         66    2    3    3    0    0  0.24213100110E+02 -0.26243730288E+02  0.80399469719E+02  0.87994785798E+02  0.20000000334E+01 0.  0.
         13    1    3    3    0    0 -0.24213100110E+02  0.26243730288E+02  0.99675368491E+02  0.10587822177E+03  0.10566000000E+00 0. -1.
         13    1    4    4    0    0  0.11980748158E+01 -0.18887952916E+01  0.51175819569E+01  0.55860307947E+01  0.10566000000E+00 0. -1.
        -13    1    4    4    0    0  0.18309294243E+02 -0.19936464436E+02  0.60663202838E+02  0.66428369034E+02  0.10566000000E+00 0.  1.
        -14    1    4    4    0    0  0.47057310507E+01 -0.44184705601E+01  0.14618684924E+02  0.15980385969E+02  0.00000000000E+00 0.  1.
<mgrwt>
<rscale>  0 0.71831718E+02</rscale>
<asrwt>0</asrwt>
<pdfrwt beam="1">  1        1 0.28765219E-01 0.71831718E+02</pdfrwt>
<pdfrwt beam="2">  1       -2 0.10613976E-02 0.71831718E+02</pdfrwt>
<totfact> 0.21872273E+05</totfact>
</mgrwt>
</event>
<event>
 8    1  0.1319619E-020  0.8430260E+02  0.7818608E-02  0.1317266E+00
         -2   -1    0    0    0  501 -0.00000000000E+00  0.00000000000E+00  0.11700201956E+02  0.11700202234E+02  0.25500000000E-02 0.  1.
          1   -1    0    0  501    0  0.00000000000E+00 -0.00000000000E+00 -0.15185481155E+03  0.15185481163E+03  0.50400000000E-02 0. -1.
        -24    2    1    2    0    0  0.17763568394E-14  0.71054273576E-14 -0.14015460959E+03  0.16355501387E+03  0.84302597653E+02 0.  0.
         66    2    3    3    0    0 -0.11584300584E+02 -0.34249399932E+02 -0.28167970735E+02  0.45876486249E+02  0.19999998719E+01 0.  0.
         13    1    3    3    0    0  0.11584300584E+02  0.34249399932E+02 -0.11198663886E+03  0.11767852762E+03  0.10566000000E+00 0. -1.
         13    1    4    4    0    0 -0.15668220230E+01 -0.54588716992E+01 -0.49679748939E+01  0.75462672933E+01  0.10566000000E+00 0. -1.
        -13    1    4    4    0    0 -0.59424304272E+01 -0.16703649500E+02 -0.14283014530E+02  0.22767082688E+02  0.10566000000E+00 0.  1.
        -14    1    4    4    0    0 -0.40750481341E+01 -0.12086878732E+02 -0.89169813112E+01  0.15563136268E+02  0.00000000000E+00 0.  1.
<mgrwt>
<rscale>  0 0.84302598E+02</rscale>
<asrwt>0</asrwt>
<pdfrwt beam="1">  1        1 0.23362277E-01 0.84302598E+02</pdfrwt>
<pdfrwt beam="2">  1       -2 0.18000312E-02 0.84302598E+02</pdfrwt>
<totfact> 0.13751893E+05</totfact>
</mgrwt>
</event>
<event>
 8    1  0.1319619E-020  0.6979046E+02  0.7818608E-02  0.1360807E+00
          1   -1    0    0  501    0  0.00000000000E+00  0.00000000000E+00  0.11947473806E+03  0.11947473816E+03  0.50400000000E-02 0. -1.
         -2   -1    0    0    0  501 -0.00000000000E+00 -0.00000000000E+00 -0.10191921209E+02  0.10191921528E+02  0.25500000000E-02 0.  1.
        -24    2    1    2    0    0  0.00000000000E+00  0.00000000000E+00  0.10928281685E+03  0.12966665969E+03  0.69790461936E+02 0.  0.
         66    2    3    3    0    0  0.32237497252E+02  0.12099901903E+02  0.44508342236E+02  0.56308581878E+02  0.20000023311E+01 0.  0.
         13    1    3    3    0    0 -0.32237497252E+02 -0.12099901903E+02  0.64774474614E+02  0.73358077815E+02  0.10566000000E+00 0. -1.
         13    1    4    4    0    0  0.17088293135E+02  0.55493475657E+01  0.23835106853E+02  0.29848425476E+02  0.10566000000E+00 0. -1.
        -13    1    4    4    0    0  0.13230295270E+02  0.58979658274E+01  0.18291316676E+02  0.23332598304E+02  0.10566000000E+00 0.  1.
         14    1    4    4    0    0  0.19189088483E+01  0.65258850965E+00  0.23819187068E+01  0.31275580980E+01  0.00000000000E+00 0. -1.
<mgrwt>
<rscale>  0 0.69790462E+02</rscale>
<asrwt>0</asrwt>
<pdfrwt beam="1">  1        1 0.18380728E-01 0.69790462E+02</pdfrwt>
<pdfrwt beam="2">  1       -2 0.15679880E-02 0.69790462E+02</pdfrwt>
<totfact> 0.21797865E+05</totfact>
</mgrwt>
</event>
<event>
 8    1  0.1319619E-020  0.8058951E+02  0.7818608E-02  0.1327387E+00
         -2   -1    0    0    0  501 -0.00000000000E+00  0.00000000000E+00  0.89733512391E+02  0.89733512427E+02  0.25500000000E-02 0.  1.
          1   -1    0    0  501    0  0.00000000000E+00 -0.00000000000E+00 -0.18094323536E+02  0.18094324238E+02  0.50400000000E-02 0. -1.
        -24    2    1    2    0    0  0.00000000000E+00 -0.88817841970E-15  0.71639188855E+02  0.10782783667E+03  0.80589509120E+02 0.  0.
         66    2    3    3    0    0 -0.16875418886E+02  0.64274178507E+01  0.84001203604E+02  0.85943549254E+02  0.19999971884E+01 0.  0.
         13    1    3    3    0    0  0.16875418886E+02 -0.64274178507E+01 -0.12362014749E+02  0.21884287411E+02  0.10566000000E+00 0. -1.
         13    1    4    4    0    0 -0.34707106644E+00  0.83020977994E-01  0.20603027054E+01  0.20936480319E+01  0.10566000000E+00 0.  1.
        -13    1    4    4    0    0 -0.77793456494E+00  0.43969383531E-01  0.49699743381E+01  0.50317913760E+01  0.10566000000E+00 0.  1.
        -14    1    4    4    0    0 -0.15750413255E+02  0.63004274891E+01  0.76970926560E+02  0.78818109846E+02  0.00000000000E+00 0.  1.
<mgrwt>
<rscale>  0 0.80589509E+02</rscale>
<asrwt>0</asrwt>
<pdfrwt beam="1">  1        1 0.27837421E-02 0.80589509E+02</pdfrwt>
<pdfrwt beam="2">  1       -2 0.13805156E-01 0.80589509E+02</pdfrwt>
<totfact> 0.10689960E+05</totfact>
</mgrwt>
</event>
<event>
 8    1  0.1319619E-020  0.8480250E+02  0.7818608E-02  0.1315950E+00
          1   -1    0    0  501    0  0.00000000000E+00  0.00000000000E+00  0.18193559811E+02  0.18193560509E+02  0.50400000000E-02 0. -1.
         -2   -1    0    0    0  501 -0.00000000000E+00 -0.00000000000E+00 -0.98818810856E+02  0.98818810889E+02  0.25500000000E-02 0.  1.
        -24    2    1    2    0    0  0.00000000000E+00  0.00000000000E+00 -0.80625251045E+02  0.11701237140E+03  0.84802499694E+02 0.  0.
         66    2    3    3    0    0 -0.40275994885E+02 -0.13157499310E+02 -0.41390705006E+02  0.59266061396E+02  0.20000051067E+01 0.  0.
         13    1    3    3    0    0  0.40275994885E+02  0.13157499310E+02 -0.39234546039E+02  0.57746310003E+02  0.10566000000E+00 0. -1.
         13    1    4    4    0    0 -0.19631931167E+02 -0.67942428999E+01 -0.19472023335E+02  0.28473589776E+02  0.10566000000E+00 0. -1.
        -13    1    4    4    0    0 -0.14656796486E+02 -0.42003845474E+01 -0.14945370165E+02  0.21350413743E+02  0.10566000000E+00 0.  1.
         14    1    4    4    0    0 -0.59872672321E+01 -0.21628718622E+01 -0.69733115059E+01  0.94420578774E+01  0.00000000000E+00 0. -1.
<mgrwt>
<rscale>  0 0.84802500E+02</rscale>
<asrwt>0</asrwt>
<pdfrwt beam="1">  1        1 0.27990093E-02 0.84802500E+02</pdfrwt>
<pdfrwt beam="2">  1       -2 0.15202894E-01 0.84802500E+02</pdfrwt>
<totfact> 0.91674379E+04</totfact>
</mgrwt>
</event>
<event>
 8    1  0.1319619E-020  0.7922287E+02  0.7818608E-02  0.1331271E+00
          1   -1    0    0  501    0  0.00000000000E+00  0.00000000000E+00  0.15110792998E+03  0.15110793006E+03  0.50400000000E-02 0. -1.
         -2   -1    0    0    0  501 -0.00000000000E+00 -0.00000000000E+00 -0.10383741962E+02  0.10383742276E+02  0.25500000000E-02 0.  1.
        -24    2    1    2    0    0  0.00000000000E+00 -0.35527136788E-14  0.14072418802E+03  0.16149167234E+03  0.79222870068E+02 0.  0.
         66    2    3    3    0    0  0.10924413511E+02  0.24724868103E+02  0.11453760167E+02  0.29425338272E+02  0.19999993068E+01 0.  0.
         13    1    3    3    0    0 -0.10924413511E+02 -0.24724868103E+02  0.12927042785E+03  0.13206633407E+03  0.10566000000E+00 0. -1.
         13    1    4    4    0    0  0.37795815552E+00  0.17206503932E+01  0.50681248745E+00  0.18361680413E+01  0.10566000000E+00 0. -1.
        -13    1    4    4    0    0  0.80613897896E+01  0.16671575763E+02  0.81948369464E+01  0.20250776784E+02  0.10566000000E+00 0.  1.
        -14    1    4    4    0    0  0.24850655655E+01  0.63326419468E+01  0.27521107331E+01  0.73383934467E+01  0.00000000000E+00 0.  1.
<mgrwt>
<rscale>  0 0.79222870E+02</rscale>
<asrwt>0</asrwt>
<pdfrwt beam="1">  1        1 0.23247374E-01 0.79222870E+02</pdfrwt>
<pdfrwt beam="2">  1       -2 0.15974988E-02 0.79222870E+02</pdfrwt>
<totfact> 0.16227403E+05</totfact>
</mgrwt>
</event>
<event>
 8    1  0.1319619E-020  0.7929393E+02  0.7818608E-02  0.1331067E+00
          1   -1    0    0  501    0  0.00000000000E+00  0.00000000000E+00  0.34535295566E+02  0.34535295934E+02  0.50400000000E-02 0. -1.
         -2   -1    0    0    0  501 -0.00000000000E+00 -0.00000000000E+00 -0.45515225867E+02  0.45515225939E+02  0.25500000000E-02 0.  1.
        -24    2    1    2    0    0  0.00000000000E+00  0.00000000000E+00 -0.10979930301E+02  0.80050521872E+02  0.79293929040E+02 0.  0.
         66    2    3    3    0    0 -0.71009191410E+01  0.29685085054E+02 -0.30998104478E+02  0.43548935760E+02  0.19999993318E+01 0.  0.
         13    1    3    3    0    0  0.71009191410E+01 -0.29685085054E+02  0.20018174176E+02  0.36501586112E+02  0.10566000000E+00 0. -1.
         13    1    4    4    0    0 -0.16630367710E+01  0.45329474584E+01 -0.46236416484E+01  0.66859950711E+01  0.10566000000E+00 0. -1.
        -13    1    4    4    0    0 -0.30236777416E+01  0.15118145640E+02 -0.16425810433E+02  0.22528190497E+02  0.10566000000E+00 0.  1.
         14    1    4    4    0    0 -0.24142046284E+01  0.10033991955E+02 -0.99486523965E+01  0.14334750192E+02  0.00000000000E+00 0. -1.
<mgrwt>
<rscale>  0 0.79293929E+02</rscale>
<asrwt>0</asrwt>
<pdfrwt beam="1">  1        1 0.53131225E-02 0.79293929E+02</pdfrwt>
<pdfrwt beam="2">  1       -2 0.70023424E-02 0.79293929E+02</pdfrwt>
<totfact> 0.12708806E+05</totfact>
</mgrwt>
</event>
<event>
 8    1  0.1319619E-020  0.7985560E+02  0.7818608E-02  0.1329462E+00
         -2   -1    0    0    0  501 -0.00000000000E+00  0.00000000000E+00  0.20163062701E+02  0.20163062862E+02  0.25500000000E-02 0.  1.
          1   -1    0    0  501    0  0.00000000000E+00 -0.00000000000E+00 -0.79066811471E+02  0.79066811632E+02  0.50400000000E-02 0. -1.
        -24    2    1    2    0    0 -0.88817841970E-15  0.00000000000E+00 -0.58903748770E+02  0.99229874494E+02  0.79855597005E+02 0.  0.
         66    2    3    3    0    0  0.61577229605E+01  0.39360239171E+02 -0.32270503253E+02  0.51308199749E+02  0.20000003888E+01 0.  0.
         13    1    3    3    0    0 -0.61577229605E+01 -0.39360239171E+02 -0.26633245517E+02  0.47921674746E+02  0.10566000000E+00 0. -1.
         13    1    4    4    0    0  0.25959902766E+01  0.11630883330E+02 -0.97477211098E+01  0.15396293171E+02  0.10566000000E+00 0. -1.
        -13    1    4    4    0    0  0.17239515406E+01  0.14485708237E+02 -0.12284630526E+02  0.19071734667E+02  0.10566000000E+00 0.  1.
         14    1    4    4    0    0  0.18377811433E+01  0.13243647605E+02 -0.10238151618E+02  0.16840171910E+02  0.00000000000E+00 0. -1.
<mgrwt>
<rscale>  0 0.79855597E+02</rscale>
<asrwt>0</asrwt>
<pdfrwt beam="1">  1        1 0.12164125E-01 0.79855597E+02</pdfrwt>
<pdfrwt beam="2">  1       -2 0.31020097E-02 0.79855597E+02</pdfrwt>
<totfact> 0.14212451E+05</totfact>
</mgrwt>
</event>
<event>
 8    1  0.1319619E-020  0.8004125E+02  0.7818608E-02  0.1328934E+00
          1   -1    0    0  501    0  0.00000000000E+00  0.00000000000E+00  0.35226739086E+02  0.35226739446E+02  0.50400000000E-02 0. -1.
         -2   -1    0    0    0  501 -0.00000000000E+00 -0.00000000000E+00 -0.45466891392E+02  0.45466891463E+02  0.25500000000E-02 0.  1.
        -24    2    1    2    0    0  0.00000000000E+00  0.00000000000E+00 -0.10240152306E+02  0.80693630910E+02  0.80041247805E+02 0.  0.
         66    2    3    3    0    0  0.83355385863E+01 -0.36582982550E+02 -0.19087134257E+02  0.42143973720E+02  0.20000027506E+01 0.  0.
         13    1    3    3    0    0 -0.83355385863E+01  0.36582982550E+02  0.88469819508E+01  0.38549657190E+02  0.10566000000E+00 0. -1.
         13    1    4    4    0    0  0.30911730604E+01 -0.12785025691E+02 -0.70574398791E+01  0.14927520038E+02  0.10566000000E+00 0. -1.
        -13    1    4    4    0    0  0.40541055680E+01 -0.18339186821E+02 -0.99491982395E+01  0.21254629022E+02  0.10566000000E+00 0.  1.
        -14    1    4    4    0    0  0.11902599579E+01 -0.54587700378E+01 -0.20804961380E+01  0.59618246597E+01  0.00000000000E+00 0.  1.
<mgrwt>
<rscale>  0 0.80041248E+02</rscale>
<asrwt>0</asrwt>
<pdfrwt beam="1">  1        1 0.54194984E-02 0.80041248E+02</pdfrwt>
<pdfrwt beam="2">  1       -2 0.69949064E-02 0.80041248E+02</pdfrwt>
<totfact> 0.12415793E+05</totfact>
</mgrwt>
</event>
<event>
 8    1  0.1319619E-020  0.8575079E+02  0.7818608E-02  0.1313481E+00
          1   -1    0    0  501    0  0.00000000000E+00  0.00000000000E+00  0.11251199481E+02  0.11251200610E+02  0.50400000000E-02 0. -1.
         -2   -1    0    0    0  501 -0.00000000000E+00 -0.00000000000E+00 -0.16338695766E+03  0.16338695768E+03  0.25500000000E-02 0.  1.
        -24    2    1    2    0    0  0.00000000000E+00  0.88817841970E-15 -0.15213575817E+03  0.17463815829E+03  0.85750786667E+02 0.  0.
         66    2    3    3    0    0  0.34468832778E+02 -0.53324882757E+01 -0.12680964489E+03  0.13153410926E+03  0.19999993457E+01 0.  0.
         13    1    3    3    0    0 -0.34468832778E+02  0.53324882757E+01 -0.25326113285E+02  0.43104049026E+02  0.10566000000E+00 0. -1.
         13    1    4    4    0    0  0.15380519091E+02 -0.31471057721E+01 -0.57673406174E+02  0.59772046861E+02  0.10566000000E+00 0. -1.
        -13    1    4    4    0    0  0.46855856994E+00  0.42149799721E-01 -0.17185855998E+01  0.17849437634E+01  0.10566000000E+00 0. -1.
        -14    1    4    4    0    0  0.18619755117E+02 -0.22275323034E+01 -0.67417653115E+02  0.69977118634E+02  0.00000000000E+00 0.  1.
<mgrwt>
<rscale>  0 0.85750787E+02</rscale>
<asrwt>0</asrwt>
<pdfrwt beam="1">  1        1 0.17309540E-02 0.85750787E+02</pdfrwt>
<pdfrwt beam="2">  1       -2 0.25136453E-01 0.85750787E+02</pdfrwt>
<totfact> 0.76753642E+04</totfact>
</mgrwt>
</event>
<event>
 8    1  0.1319619E-020  0.8013234E+02  0.7818608E-02  0.1328676E+00
         -2   -1    0    0    0  501 -0.00000000000E+00  0.00000000000E+00  0.59925139519E+01  0.59925144945E+01  0.25500000000E-02 0.  1.
          1   -1    0    0  501    0  0.00000000000E+00 -0.00000000000E+00 -0.26788388349E+03  0.26788388354E+03  0.50400000000E-02 0. -1.
        -24    2    1    2    0    0 -0.35527136788E-14  0.71054273576E-14 -0.26189136954E+03  0.27387639803E+03  0.80132340290E+02 0.  0.
         66    2    3    3    0    0 -0.20860417341E+02  0.34147533472E+02 -0.12609546745E+03  0.13230751289E+03  0.20000000979E+01 0.  0.
         13    1    3    3    0    0  0.20860417341E+02 -0.34147533472E+02 -0.13579590208E+03  0.14156888514E+03  0.10566000000E+00 0. -1.
         13    1    4    4    0    0 -0.27022800588E+01  0.34510596445E+01 -0.13892751401E+02  0.14568178875E+02  0.10566000000E+00 0. -1.
        -13    1    4    4    0    0 -0.10509766988E+02  0.16883769144E+02 -0.63397957148E+02  0.66444179558E+02  0.10566000000E+00 0.  1.
         14    1    4    4    0    0 -0.76483702945E+01  0.13812704684E+02 -0.48804758905E+02  0.51295154456E+02  0.00000000000E+00 0. -1.
<mgrwt>
<rscale>  0 0.80132340E+02</rscale>
<asrwt>0</asrwt>
<pdfrwt beam="1">  1        1 0.41212896E-01 0.80132340E+02</pdfrwt>
<pdfrwt beam="2">  1       -2 0.92192547E-03 0.80132340E+02</pdfrwt>
<totfact> 0.17574809E+05</totfact>
</mgrwt>
</event>
<event>
 8    1  0.1319619E-020  0.7916402E+02  0.7818608E-02  0.1331441E+00
          1   -1    0    0  501    0  0.00000000000E+00  0.00000000000E+00  0.36541699620E+02  0.36541699968E+02  0.50400000000E-02 0. -1.
         -2   -1    0    0    0  501 -0.00000000000E+00 -0.00000000000E+00 -0.42875280656E+02  0.42875280732E+02  0.25500000000E-02 0.  1.
        -24    2    1    2    0    0  0.35527136788E-14  0.00000000000E+00 -0.63335810356E+01  0.79416980700E+02  0.79164023235E+02 0.  0.
         66    2    3    3    0    0 -0.21785393559E+02  0.32684231489E+02 -0.78601078123E+01  0.40107900215E+02  0.20000010691E+01 0.  0.
         13    1    3    3    0    0  0.21785393559E+02 -0.32684231489E+02  0.15265267766E+01  0.39309080485E+02  0.10566000000E+00 0. -1.
         13    1    4    4    0    0 -0.67588721584E+00  0.81596979641E+00 -0.31385151864E+00  0.11100887571E+01  0.10566000000E+00 0.  1.
        -13    1    4    4    0    0 -0.36651716165E+01  0.66997389859E+01 -0.14361961178E+01  0.77713453650E+01  0.10566000000E+00 0.  1.
        -14    1    4    4    0    0 -0.17444334726E+02  0.25168522707E+02 -0.61100601758E+01  0.31226466093E+02  0.00000000000E+00 0.  1.
<mgrwt>
<rscale>  0 0.79164023E+02</rscale>
<asrwt>0</asrwt>
<pdfrwt beam="1">  1        1 0.56218000E-02 0.79164023E+02</pdfrwt>
<pdfrwt beam="2">  1       -2 0.65961970E-02 0.79164023E+02</pdfrwt>
<totfact> 0.12887973E+05</totfact>
</mgrwt>
</event>
<event>
 8    1  0.1319619E-020  0.7829686E+02  0.7818608E-02  0.1333955E+00
         -2   -1    0    0    0  501 -0.00000000000E+00  0.00000000000E+00  0.36909097819E+01  0.36909106628E+01  0.25500000000E-02 0.  1.
          1   -1    0    0  501    0  0.00000000000E+00 -0.00000000000E+00 -0.41523617185E+03  0.41523617189E+03  0.50400000000E-02 0. -1.
        -24    2    1    2    0    0  0.00000000000E+00  0.71054273576E-14 -0.41154526207E+03  0.41892708255E+03  0.78296856627E+02 0.  0.
         66    2    3    3    0    0 -0.80089314551E+01  0.37954290147E+02 -0.17866445725E+03  0.18283779532E+03  0.19999976141E+01 0.  0.
         13    1    3    3    0    0  0.80089314551E+01 -0.37954290147E+02 -0.23288080483E+03  0.23608928723E+03  0.10566000000E+00 0. -1.
         13    1    4    4    0    0 -0.19774576837E+01  0.11586449766E+02 -0.57421429642E+02  0.58612182208E+02  0.10566000000E+00 0. -1.
        -13    1    4    4    0    0 -0.26610135643E+01  0.12667680759E+02 -0.56860467484E+02  0.58315307215E+02  0.10566000000E+00 0.  1.
         14    1    4    4    0    0 -0.33704602072E+01  0.13700159622E+02 -0.64382560120E+02  0.65910305896E+02  0.00000000000E+00 0. -1.
<mgrwt>
<rscale>  0 0.78296857E+02</rscale>
<asrwt>0</asrwt>
<pdfrwt beam="1">  1        1 0.63882451E-01 0.78296857E+02</pdfrwt>
<pdfrwt beam="2">  1       -2 0.56783267E-03 0.78296857E+02</pdfrwt>
<totfact> 0.20217107E+05</totfact>
</mgrwt>
</event>
<event>
 8    1  0.1319619E-020  0.7719237E+02  0.7818608E-02  0.1337213E+00
          1   -1    0    0  501    0  0.00000000000E+00  0.00000000000E+00  0.71612593691E+02  0.71612593869E+02  0.50400000000E-02 0. -1.
         -2   -1    0    0    0  501 -0.00000000000E+00 -0.00000000000E+00 -0.20801725105E+02  0.20801725261E+02  0.25500000000E-02 0.  1.
        -24    2    1    2    0    0  0.00000000000E+00  0.00000000000E+00  0.50810868587E+02  0.92414319130E+02  0.77192370178E+02 0.  0.
         66    2    3    3    0    0  0.17413548723E+02  0.83141530107E+01 -0.14559279469E+02  0.24255502824E+02  0.19999947973E+01 0.  0.
         13    1    3    3    0    0 -0.17413548723E+02 -0.83141530107E+01  0.65370148055E+02  0.68158816306E+02  0.10566000000E+00 0. -1.
         13    1    4    4    0    0  0.58264086143E+00  0.43022664729E+00 -0.10018713905E+01  0.12407560840E+01  0.10566000000E+00 0. -1.
        -13    1    4    4    0    0  0.21539415089E+01  0.80119432313E+00 -0.17379100887E+01  0.28832051400E+01  0.10566000000E+00 0. -1.
        -14    1    4    4    0    0  0.14676966353E+02  0.70827320403E+01 -0.11819497989E+02  0.20131541600E+02  0.00000000000E+00 0.  1.
<mgrwt>
<rscale>  0 0.77192370E+02</rscale>
<asrwt>0</asrwt>
<pdfrwt beam="1">  1        1 0.11017322E-01 0.77192370E+02</pdfrwt>
<pdfrwt beam="2">  1       -2 0.32002654E-02 0.77192370E+02</pdfrwt>
<totfact> 0.15346025E+05</totfact>
</mgrwt>
</event>
<event>
 8    1  0.1319619E-020  0.8172762E+02  0.7818608E-02  0.1324219E+00
         -2   -1    0    0    0  501 -0.00000000000E+00  0.00000000000E+00  0.81912047644E+01  0.81912051614E+01  0.25500000000E-02 0.  1.
          1   -1    0    0  501    0  0.00000000000E+00 -0.00000000000E+00 -0.20385902526E+03  0.20385902533E+03  0.50400000000E-02 0. -1.
        -24    2    1    2    0    0  0.00000000000E+00  0.00000000000E+00 -0.19566782050E+03  0.21205023049E+03  0.81727622447E+02 0.  0.
         66    2    3    3    0    0  0.85879217391E+01  0.39454108496E+02 -0.11377393953E+03  0.12074306768E+03  0.19999994533E+01 0.  0.
         13    1    3    3    0    0 -0.85879217391E+01 -0.39454108496E+02 -0.81893880965E+02  0.91307162810E+02  0.10566000000E+00 0. -1.
         13    1    4    4    0    0  0.23971729628E+00  0.17972061776E+01 -0.55092246453E+01  0.58008736113E+01  0.10566000000E+00 0. -1.
        -13    1    4    4    0    0  0.75031077156E+01  0.35603940679E+02 -0.10213802634E+03  0.10842566488E+03  0.10566000000E+00 0.  1.
        -14    1    4    4    0    0  0.84509672722E+00  0.20529616396E+01 -0.61266885522E+01  0.65165291826E+01  0.00000000000E+00 0.  1.
<mgrwt>
<rscale>  0 0.81727622E+02</rscale>
<asrwt>0</asrwt>
<pdfrwt beam="1">  1        1 0.31362923E-01 0.81727622E+02</pdfrwt>
<pdfrwt beam="2">  1       -2 0.12601855E-02 0.81727622E+02</pdfrwt>
<totfact> 0.15812274E+05</totfact>
</mgrwt>
</event>
<event>
 8    1  0.1319619E-020  0.7915006E+02  0.7818608E-02  0.1331481E+00
          1   -1    0    0  501    0  0.00000000000E+00  0.00000000000E+00  0.10594327887E+03  0.10594327899E+03  0.50400000000E-02 0. -1.
         -2   -1    0    0    0  501 -0.00000000000E+00 -0.00000000000E+00 -0.14783221965E+02  0.14783222185E+02  0.25500000000E-02 0.  1.
        -24    2    1    2    0    0 -0.17763568394E-14  0.00000000000E+00  0.91160056906E+02  0.12072650117E+03  0.79150060713E+02 0.  0.
         66    2    3    3    0    0 -0.14918696441E+02  0.34875290214E+02  0.28533695832E+02  0.47508158962E+02  0.19999997749E+01 0.  0.
         13    1    3    3    0    0  0.14918696441E+02 -0.34875290214E+02  0.62626361073E+02  0.73218342213E+02  0.10566000000E+00 0. -1.
         13    1    4    4    0    0 -0.48381732037E+00  0.63215937574E+00  0.80164998783E+00  0.11346856016E+01  0.10566000000E+00 0. -1.
        -13    1    4    4    0    0 -0.90241534226E+01  0.21336884306E+02  0.17694651190E+02  0.29151497761E+02  0.10566000000E+00 0.  1.
         14    1    4    4    0    0 -0.54107256984E+01  0.12906246532E+02  0.10037394654E+02  0.17221975600E+02  0.00000000000E+00 0. -1.
<mgrwt>
<rscale>  0 0.79150061E+02</rscale>
<asrwt>0</asrwt>
<pdfrwt beam="1">  1        1 0.16298965E-01 0.79150061E+02</pdfrwt>
<pdfrwt beam="2">  1       -2 0.22743420E-02 0.79150061E+02</pdfrwt>
<totfact> 0.15277092E+05</totfact>
</mgrwt>
</event>
<event>
 8    1  0.1319619E-020  0.7709931E+02  0.7818608E-02  0.1337491E+00
          1   -1    0    0  501    0  0.00000000000E+00  0.00000000000E+00  0.44603399265E+02  0.44603399549E+02  0.50400000000E-02 0. -1.
         -2   -1    0    0    0  501 -0.00000000000E+00 -0.00000000000E+00 -0.33317551521E+02  0.33317551619E+02  0.25500000000E-02 0.  1.
        -24    2    1    2    0    0  0.00000000000E+00  0.00000000000E+00  0.11285847743E+02  0.77920951168E+02  0.77099314340E+02 0.  0.
         66    2    3    3    0    0  0.31335812857E+02 -0.20730593962E+02 -0.29516257180E+01  0.37741260926E+02  0.19999971155E+01 0.  0.
         13    1    3    3    0    0 -0.31335812857E+02  0.20730593962E+02  0.14237473461E+02  0.40179690243E+02  0.10566000000E+00 0. -1.
         13    1    4    4    0    0  0.12034768792E+02 -0.78766240839E+01 -0.20403810871E+01  0.14527600829E+02  0.10566000000E+00 0. -1.
        -13    1    4    4    0    0  0.79622102050E+01 -0.53868927979E+01 -0.62013837937E+00  0.96338539023E+01  0.10566000000E+00 0.  1.
         14    1    4    4    0    0  0.11338833860E+02 -0.74670770802E+01 -0.29110625161E+00  0.13579806194E+02  0.00000000000E+00 0. -1.
<mgrwt>
<rscale>  0 0.77099314E+02</rscale>
<asrwt>0</asrwt>
<pdfrwt beam="1">  1        1 0.68620614E-02 0.77099314E+02</pdfrwt>
<pdfrwt beam="2">  1       -2 0.51257772E-02 0.77099314E+02</pdfrwt>
<totfact> 0.14324026E+05</totfact>
</mgrwt>
</event>
<event>
 8    1  0.1319619E-020  0.8007502E+02  0.7818608E-02  0.1328839E+00
          1   -1    0    0  501    0  0.00000000000E+00  0.00000000000E+00  0.14426901485E+02  0.14426902366E+02  0.50400000000E-02 0. -1.
         -2   -1    0    0    0  501 -0.00000000000E+00 -0.00000000000E+00 -0.11111202971E+03  0.11111202974E+03  0.25500000000E-02 0.  1.
        -24    2    1    2    0    0  0.00000000000E+00  0.00000000000E+00 -0.96685128228E+02  0.12553893211E+03  0.80075023911E+02 0.  0.
         66    2    3    3    0    0  0.33492260397E+02  0.17926177184E+02 -0.68074045476E+02  0.77981760669E+02  0.19999986810E+01 0.  0.
         13    1    3    3    0    0 -0.33492260397E+02 -0.17926177184E+02 -0.28611082752E+02  0.47557171439E+02  0.10566000000E+00 0. -1.
         13    1    4    4    0    0  0.80951994079E+01  0.37544959041E+01 -0.15410477660E+02  0.17807933027E+02  0.10566000000E+00 0. -1.
        -13    1    4    4    0    0  0.36797904253E+01  0.19745379866E+01 -0.67153784746E+01  0.79086743470E+01  0.10566000000E+00 0.  1.
        -14    1    4    4    0    0  0.21717270564E+02  0.12197143293E+02 -0.45948189341E+02  0.52265153295E+02  0.00000000000E+00 0.  1.
<mgrwt>
<rscale>  0 0.80075024E+02</rscale>
<asrwt>0</asrwt>
<pdfrwt beam="1">  1        1 0.22195235E-02 0.80075024E+02</pdfrwt>
<pdfrwt beam="2">  1       -2 0.17094158E-01 0.80075024E+02</pdfrwt>
<totfact> 0.10304461E+05</totfact>
</mgrwt>
</event>
<event>
 8    1  0.1319619E-020  0.7935679E+02  0.7818608E-02  0.1330887E+00
         -2   -1    0    0    0  501 -0.00000000000E+00  0.00000000000E+00  0.45789292005E+03  0.45789292006E+03  0.25500000000E-02 0.  1.
          1   -1    0    0  501    0  0.00000000000E+00 -0.00000000000E+00 -0.34383023246E+01  0.34383060185E+01  0.50400000000E-02 0. -1.
        -24    2    1    2    0    0 -0.17763568394E-14 -0.27755575616E-16  0.45445461773E+03  0.46133122608E+03  0.79356792907E+02 0.  0.
         66    2    3    3    0    0 -0.14839676005E+02  0.20934326926E+00  0.44113535788E+03  0.44138946950E+03  0.20000009631E+01 0.  0.
         13    1    3    3    0    0  0.14839676005E+02 -0.20934326926E+00  0.13319259846E+02  0.19941756578E+02  0.10566000000E+00 0. -1.
         13    1    4    4    0    0 -0.11905768179E+02 -0.13463689958E+00  0.33908800701E+03  0.33929699837E+03  0.10566000000E+00 0. -1.
        -13    1    4    4    0    0 -0.36631887463E+00 -0.75269465082E-01  0.20342729423E+02  0.20346440952E+02  0.10566000000E+00 0.  1.
        -14    1    4    4    0    0 -0.25675889513E+01  0.41924963392E+00  0.81704621450E+02  0.81746030176E+02  0.00000000000E+00 0.  1.
<mgrwt>
<rscale>  0 0.79356793E+02</rscale>
<asrwt>0</asrwt>
<pdfrwt beam="1">  1        1 0.52897036E-03 0.79356793E+02</pdfrwt>
<pdfrwt beam="2">  1       -2 0.70445001E-01 0.79356793E+02</pdfrwt>
<totfact> 0.54938953E+04</totfact>
</mgrwt>
</event>
<event>
 8    1  0.1319619E-020  0.7775467E+02  0.7818608E-02  0.1335547E+00
          1   -1    0    0  501    0  0.00000000000E+00  0.00000000000E+00  0.25397052435E+02  0.25397052935E+02  0.50400000000E-02 0. -1.
         -2   -1    0    0    0  501 -0.00000000000E+00 -0.00000000000E+00 -0.59512695847E+02  0.59512695901E+02  0.25500000000E-02 0.  1.
        -24    2    1    2    0    0  0.11102230246E-15  0.00000000000E+00 -0.34115643412E+02  0.84909748836E+02  0.77754667525E+02 0.  0.
         66    2    3    3    0    0 -0.82503366819E+00  0.38818171116E+02 -0.18578691273E+02  0.43089429192E+02  0.20000123116E+01 0.  0.
         13    1    3    3    0    0  0.82503366819E+00 -0.38818171116E+02 -0.15536952139E+02  0.41820319645E+02  0.10566000000E+00 0. -1.
         13    1    4    4    0    0 -0.10411810054E+01  0.17603544629E+02 -0.82955647819E+01  0.19488365773E+02  0.10566000000E+00 0.  1.
        -13    1    4    4    0    0 -0.30494200955E+00  0.26292286337E+01 -0.13722357656E+01  0.29832914490E+01  0.10566000000E+00 0. -1.
         14    1    4    4    0    0  0.52108934675E+00  0.18585397853E+02 -0.89108907259E+01  0.20617771970E+02  0.00000000000E+00 0. -1.
<mgrwt>
<rscale>  0 0.77754668E+02</rscale>
<asrwt>0</asrwt>
<pdfrwt beam="1">  1        1 0.39072389E-02 0.77754668E+02</pdfrwt>
<pdfrwt beam="2">  1       -2 0.91557993E-02 0.77754668E+02</pdfrwt>
<totfact> 0.12741703E+05</totfact>
</mgrwt>
</event>
<event>
 8    1  0.1319619E-020  0.7955557E+02  0.7818608E-02  0.1330317E+00
          1   -1    0    0  501    0  0.00000000000E+00  0.00000000000E+00  0.97473310499E+02  0.97473310629E+02  0.50400000000E-02 0. -1.
         -2   -1    0    0    0  501 -0.00000000000E+00 -0.00000000000E+00 -0.16232877293E+02  0.16232877493E+02  0.25500000000E-02 0.  1.
        -24    2    1    2    0    0  0.00000000000E+00  0.00000000000E+00  0.81240433206E+02  0.11370618812E+03  0.79555573216E+02 0.  0.
         66    2    3    3    0    0  0.36930336775E+02 -0.50846250773E+01  0.60376136383E+02  0.70985780441E+02  0.19999984453E+01 0.  0.
         13    1    3    3    0    0 -0.36930336775E+02  0.50846250773E+01  0.20864296823E+02  0.42720407681E+02  0.10566000000E+00 0. -1.
         13    1    4    4    0    0  0.30338061424E+01 -0.77398490883E+00  0.52062746210E+01  0.60761411944E+01  0.10566000000E+00 0. -1.
        -13    1    4    4    0    0  0.19385729884E+02 -0.22227355224E+01  0.30258838365E+02  0.36004937711E+02  0.10566000000E+00 0.  1.
        -14    1    4    4    0    0  0.14510800749E+02 -0.20879046460E+01  0.24911023397E+02  0.28904701536E+02  0.00000000000E+00 0.  1.
<mgrwt>
<rscale>  0 0.79555573E+02</rscale>
<asrwt>0</asrwt>
<pdfrwt beam="1">  1        1 0.14995894E-01 0.79555573E+02</pdfrwt>
<pdfrwt beam="2">  1       -2 0.24973658E-02 0.79555573E+02</pdfrwt>
<totfact> 0.14858285E+05</totfact>
</mgrwt>
</event>
<event>
 8    1  0.1319619E-020  0.7994027E+02  0.7818608E-02  0.1329221E+00
         -2   -1    0    0    0  501 -0.00000000000E+00  0.00000000000E+00  0.27828654532E+02  0.27828654649E+02  0.25500000000E-02 0.  1.
          1   -1    0    0  501    0  0.00000000000E+00 -0.00000000000E+00 -0.57408867369E+02  0.57408867591E+02  0.50400000000E-02 0. -1.
        -24    2    1    2    0    0  0.00000000000E+00 -0.71054273576E-14 -0.29580212837E+02  0.85237522240E+02  0.79940266488E+02 0.  0.
         66    2    3    3    0    0 -0.59634410940E+01  0.38004708818E+02 -0.33308607206E+01  0.38665425738E+02  0.19999980869E+01 0.  0.
         13    1    3    3    0    0  0.59634410940E+01 -0.38004708818E+02 -0.26249352117E+02  0.46572096502E+02  0.10566000000E+00 0. -1.
         13    1    4    4    0    0 -0.50791135631E+00  0.46046922315E+01 -0.29075156786E+00  0.46429371095E+01  0.10566000000E+00 0. -1.
        -13    1    4    4    0    0 -0.37805842807E+01  0.24965420635E+02 -0.15756255960E+01  0.25299383491E+02  0.10566000000E+00 0.  1.
         14    1    4    4    0    0 -0.16749454571E+01  0.84345959513E+01 -0.14644835568E+01  0.87231051372E+01  0.00000000000E+00 0. -1.
<mgrwt>
<rscale>  0 0.79940266E+02</rscale>
<asrwt>0</asrwt>
<pdfrwt beam="1">  1        1 0.88321335E-02 0.79940266E+02</pdfrwt>
<pdfrwt beam="2">  1       -2 0.42813315E-02 0.79940266E+02</pdfrwt>
<totfact> 0.13473013E+05</totfact>
</mgrwt>
</event>
<event>
 8    1  0.1319619E-020  0.7237442E+02  0.7818608E-02  0.1352200E+00
          1   -1    0    0  501    0  0.00000000000E+00  0.00000000000E+00  0.25703311621E+02  0.25703312115E+02  0.50400000000E-02 0. -1.
         -2   -1    0    0    0  501 -0.00000000000E+00 -0.00000000000E+00 -0.50947298253E+02  0.50947298317E+02  0.25500000000E-02 0.  1.
        -24    2    1    2    0    0  0.71054273576E-14  0.00000000000E+00 -0.25243986632E+02  0.76650610432E+02  0.72374423787E+02 0.  0.
         66    2    3    3    0    0 -0.34152295628E+02 -0.82276944195E+01 -0.35558507408E+01  0.35365496231E+02  0.19999992577E+01 0.  0.
         13    1    3    3    0    0  0.34152295628E+02  0.82276944195E+01 -0.21688135891E+02  0.41285114201E+02  0.10566000000E+00 0. -1.
         13    1    4    4    0    0 -0.31728949207E+01 -0.50087996835E+00 -0.56967676101E+00  0.32640218394E+01  0.10566000000E+00 0. -1.
        -13    1    4    4    0    0 -0.56038735463E+00 -0.29878467363E+00 -0.14586006448E+00  0.66011018962E+00  0.10566000000E+00 0. -1.
        -14    1    4    4    0    0 -0.30419013353E+02 -0.74280297776E+01 -0.28403139153E+01  0.31441364202E+02  0.00000000000E+00 0.  1.
<mgrwt>
<rscale>  0 0.72374424E+02</rscale>
<asrwt>0</asrwt>
<pdfrwt beam="1">  1        1 0.39543557E-02 0.72374424E+02</pdfrwt>
<pdfrwt beam="2">  1       -2 0.78380459E-02 0.72374424E+02</pdfrwt>
<totfact> 0.15681216E+05</totfact>
</mgrwt>
</event>
<event>
 8    1  0.1319619E-020  0.7577020E+02  0.7818608E-02  0.1341502E+00
          1   -1    0    0  501    0  0.00000000000E+00  0.00000000000E+00  0.46934885575E+02  0.46934885846E+02  0.50400000000E-02 0. -1.
         -2   -1    0    0    0  501 -0.00000000000E+00 -0.00000000000E+00 -0.30580254824E+02  0.30580254930E+02  0.25500000000E-02 0.  1.
        -24    2    1    2    0    0  0.11102230246E-15  0.00000000000E+00  0.16354630752E+02  0.77515140776E+02  0.75770199304E+02 0.  0.
         66    2    3    3    0    0  0.13292480901E+00 -0.35065237684E+02  0.22783576966E+02  0.41865020492E+02  0.19999996474E+01 0.  0.
         13    1    3    3    0    0 -0.13292480901E+00  0.35065237684E+02 -0.64289462145E+01  0.35650120284E+02  0.10566000000E+00 0. -1.
         13    1    4    4    0    0  0.56311893900E+00 -0.55282354335E+01  0.35338856543E+01  0.65861978259E+01  0.10566000000E+00 0. -1.
        -13    1    4    4    0    0  0.16787408126E+00 -0.13703806024E+02  0.94800267749E+01  0.16664469777E+02  0.10566000000E+00 0.  1.
         14    1    4    4    0    0 -0.59806821125E+00 -0.15833196226E+02  0.97696645367E+01  0.18614352889E+02  0.00000000000E+00 0. -1.
<mgrwt>
<rscale>  0 0.75770199E+02</rscale>
<asrwt>0</asrwt>
<pdfrwt beam="1">  1        1 0.72207517E-02 0.75770199E+02</pdfrwt>
<pdfrwt beam="2">  1       -2 0.47046546E-02 0.75770199E+02</pdfrwt>
<totfact> 0.15148294E+05</totfact>
</mgrwt>
</event>
<event>
 8    1  0.1319619E-020  0.8507337E+02  0.7818608E-02  0.1315241E+00
         -2   -1    0    0    0  501 -0.00000000000E+00  0.00000000000E+00  0.19581209193E+03  0.19581209195E+03  0.25500000000E-02 0.  1.
          1   -1    0    0  501    0  0.00000000000E+00 -0.00000000000E+00 -0.92403364522E+01  0.92403378267E+01  0.50400000000E-02 0. -1.
        -24    2    1    2    0    0 -0.71054273576E-14  0.00000000000E+00  0.18657175548E+03  0.20505242977E+03  0.85073374295E+02 0.  0.
         66    2    3    3    0    0 -0.40519058813E+02 -0.11680142725E+02  0.10634953603E+03  0.11442221672E+03  0.20000009500E+01 0.  0.
         13    1    3    3    0    0  0.40519058813E+02  0.11680142725E+02  0.80222219453E+02  0.90630213060E+02  0.10566000000E+00 0. -1.
         13    1    4    4    0    0 -0.10063753199E+02 -0.34302322635E+01  0.25308332926E+02  0.27451202185E+02  0.10566000000E+00 0. -1.
        -13    1    4    4    0    0 -0.13598812051E+01 -0.23133751060E+00  0.36318148077E+01  0.38863912270E+01  0.10566000000E+00 0.  1.
        -14    1    4    4    0    0 -0.29095424409E+02 -0.80185729513E+01  0.77409388292E+02  0.83084623304E+02  0.00000000000E+00 0.  1.
<mgrwt>
<rscale>  0 0.85073374E+02</rscale>
<asrwt>0</asrwt>
<pdfrwt beam="1">  1        1 0.14215906E-02 0.85073374E+02</pdfrwt>
<pdfrwt beam="2">  1       -2 0.30124932E-01 0.85073374E+02</pdfrwt>
<totfact> 0.73199167E+04</totfact>
</mgrwt>
</event>
<event>
 8    1  0.1319619E-020  0.8000053E+02  0.7818608E-02  0.1329050E+00
         -2   -1    0    0    0  501 -0.00000000000E+00  0.00000000000E+00  0.22850409431E+02  0.22850409573E+02  0.25500000000E-02 0.  1.
          1   -1    0    0  501    0  0.00000000000E+00 -0.00000000000E+00 -0.70021561622E+02  0.70021561803E+02  0.50400000000E-02 0. -1.
        -24    2    1    2    0    0  0.00000000000E+00  0.00000000000E+00 -0.47171152191E+02  0.92871971376E+02  0.80000534175E+02 0.  0.
         66    2    3    3    0    0 -0.36895719969E+02  0.11784637042E+02 -0.35083402994E+02  0.52297389839E+02  0.19999990139E+01 0.  0.
         13    1    3    3    0    0  0.36895719969E+02 -0.11784637042E+02 -0.12087749197E+02  0.40574581538E+02  0.10566000000E+00 0. -1.
         13    1    4    4    0    0 -0.46611575856E+01  0.13924031967E+01 -0.46148321504E+01  0.67061924004E+01  0.10566000000E+00 0. -1.
        -13    1    4    4    0    0 -0.30997677768E+02  0.96659444148E+01 -0.29401018385E+02  0.43803168316E+02  0.10566000000E+00 0.  1.
         14    1    4    4    0    0 -0.12368846156E+01  0.72628943053E+00 -0.10675524581E+01  0.17880291217E+01  0.00000000000E+00 0. -1.
<mgrwt>
<rscale>  0 0.80000534E+02</rscale>
<asrwt>0</asrwt>
<pdfrwt beam="1">  1        1 0.10772548E-01 0.80000534E+02</pdfrwt>
<pdfrwt beam="2">  1       -2 0.35154476E-02 0.80000534E+02</pdfrwt>
<totfact> 0.13871054E+05</totfact>
</mgrwt>
</event>
<event>
 8    1  0.1319619E-020  0.7936828E+02  0.7818608E-02  0.1330854E+00
         -2   -1    0    0    0  501 -0.00000000000E+00  0.00000000000E+00  0.31467742475E+03  0.31467742476E+03  0.25500000000E-02 0.  1.
          1   -1    0    0  501    0  0.00000000000E+00 -0.00000000000E+00 -0.50045872410E+01  0.50045897788E+01  0.50400000000E-02 0. -1.
        -24    2    1    2    0    0  0.88817841970E-15  0.71054273576E-14  0.30967283751E+03  0.31968201454E+03  0.79368281630E+02 0.  0.
         66    2    3    3    0    0 -0.69291974030E+01 -0.39011696481E+02  0.16179342297E+03  0.16658642791E+03  0.20000015684E+01 0.  0.
         13    1    3    3    0    0  0.69291974030E+01  0.39011696481E+02  0.14787941454E+03  0.15309558663E+03  0.10566000000E+00 0. -1.
         13    1    4    4    0    0 -0.16518418910E+00 -0.78974004109E+00  0.38232610582E+01  0.39088955350E+01  0.10566000000E+00 0. -1.
        -13    1    4    4    0    0 -0.23299172044E+01 -0.91724182123E+01  0.38932212401E+02  0.40066071638E+02  0.10566000000E+00 0.  1.
        -14    1    4    4    0    0 -0.44340960095E+01 -0.29049538227E+02  0.11903794952E+03  0.12261146073E+03  0.00000000000E+00 0.  1.
<mgrwt>
<rscale>  0 0.79368282E+02</rscale>
<asrwt>0</asrwt>
<pdfrwt beam="1">  1        1 0.76993658E-03 0.79368282E+02</pdfrwt>
<pdfrwt beam="2">  1       -2 0.48411919E-01 0.79368282E+02</pdfrwt>
<totfact> 0.69853326E+04</totfact>
</mgrwt>
</event>
<event>
 8    1  0.1319619E-020  0.8060028E+02  0.7818608E-02  0.1327356E+00
          1   -1    0    0  501    0  0.00000000000E+00  0.00000000000E+00  0.11286776570E+03  0.11286776582E+03  0.50400000000E-02 0. -1.
         -2   -1    0    0    0  501 -0.00000000000E+00 -0.00000000000E+00 -0.14389417958E+02  0.14389418184E+02  0.25500000000E-02 0.  1.
        -24    2    1    2    0    0  0.00000000000E+00 -0.35527136788E-14  0.98478347746E+02  0.12725718400E+03  0.80600284768E+02 0.  0.
         66    2    3    3    0    0 -0.67510668018E+01 -0.16906552436E+02 -0.74532260848E+01  0.19772683180E+02  0.20000007010E+01 0.  0.
         13    1    3    3    0    0  0.67510668018E+01  0.16906552436E+02  0.10593157383E+03  0.10748450082E+03  0.10566000000E+00 0. -1.
         13    1    4    4    0    0 -0.51327405566E+00 -0.10107752041E+01 -0.20985631002E+00  0.11577221065E+01  0.10566000000E+00 0.  1.
        -13    1    4    4    0    0 -0.62662520194E+01 -0.15088510346E+02 -0.69589699251E+01  0.17758589057E+02  0.10566000000E+00 0.  1.
        -14    1    4    4    0    0  0.28459273257E-01 -0.80726688638E+00 -0.28439984969E+00  0.85637201646E+00  0.00000000000E+00 0.  1.
<mgrwt>
<rscale>  0 0.80600285E+02</rscale>
<asrwt>0</asrwt>
<pdfrwt beam="1">  1        1 0.17364271E-01 0.80600285E+02</pdfrwt>
<pdfrwt beam="2">  1       -2 0.22137567E-02 0.80600285E+02</pdfrwt>
<totfact> 0.14706385E+05</totfact>
</mgrwt>
</event>
<event>
 8    1  0.1319619E-020  0.7818721E+02  0.7818608E-02  0.1334276E+00
          1   -1    0    0  501    0  0.00000000000E+00  0.00000000000E+00  0.49206946523E+02  0.49206946781E+02  0.50400000000E-02 0. -1.
         -2   -1    0    0    0  501 -0.00000000000E+00 -0.00000000000E+00 -0.31058826608E+02  0.31058826713E+02  0.25500000000E-02 0.  1.
        -24    2    1    2    0    0  0.00000000000E+00 -0.35527136788E-14  0.18148119914E+02  0.80265773494E+02  0.78187212114E+02 0.  0.
         66    2    3    3    0    0 -0.30835059032E+02 -0.23686743583E+02  0.12981327775E+02  0.41041169071E+02  0.20000002138E+01 0.  0.
         13    1    3    3    0    0  0.30835059032E+02  0.23686743583E+02  0.51667921390E+01  0.39224604423E+02  0.10566000000E+00 0. -1.
         13    1    4    4    0    0 -0.26685543172E+01 -0.27739028920E+01  0.14025022900E+01  0.40980356400E+01  0.10566000000E+00 0. -1.
        -13    1    4    4    0    0 -0.13097486576E+02 -0.97578275352E+01  0.53974485320E+01  0.17201830353E+02  0.10566000000E+00 0.  1.
         14    1    4    4    0    0 -0.15069018139E+02 -0.11155013156E+02  0.61813769533E+01  0.19741303078E+02  0.00000000000E+00 0. -1.
<mgrwt>
<rscale>  0 0.78187212E+02</rscale>
<asrwt>0</asrwt>
<pdfrwt beam="1">  1        1 0.75702995E-02 0.78187212E+02</pdfrwt>
<pdfrwt beam="2">  1       -2 0.47782810E-02 0.78187212E+02</pdfrwt>
<totfact> 0.13987040E+05</totfact>
</mgrwt>
</event>
<event>
 8    1  0.1319619E-020  0.7911071E+02  0.7818608E-02  0.1331594E+00
         -2   -1    0    0    0  501 -0.00000000000E+00  0.00000000000E+00  0.10415790109E+02  0.10415790421E+02  0.25500000000E-02 0.  1.
          1   -1    0    0  501    0  0.00000000000E+00 -0.00000000000E+00 -0.15021672714E+03  0.15021672723E+03  0.50400000000E-02 0. -1.
        -24    2    1    2    0    0  0.00000000000E+00  0.00000000000E+00 -0.13980093703E+03  0.16063251765E+03  0.79110705535E+02 0.  0.
         66    2    3    3    0    0  0.92915711666E+01 -0.35918016797E+02 -0.42239320987E+02  0.56254755097E+02  0.20000020631E+01 0.  0.
         13    1    3    3    0    0 -0.92915711666E+01  0.35918016797E+02 -0.97561616047E+02  0.10437776255E+03  0.10566000000E+00 0. -1.
         13    1    4    4    0    0  0.27422290102E+01 -0.88214327315E+01 -0.10447233247E+02  0.13946086976E+02  0.10566000000E+00 0. -1.
        -13    1    4    4    0    0  0.23708455133E+01 -0.12753612645E+02 -0.14421990705E+02  0.19397951538E+02  0.10566000000E+00 0.  1.
        -14    1    4    4    0    0  0.41784966431E+01 -0.14342971420E+02 -0.17370097035E+02  0.22910716583E+02  0.00000000000E+00 0.  1.
<mgrwt>
<rscale>  0 0.79110706E+02</rscale>
<asrwt>0</asrwt>
<pdfrwt beam="1">  1        1 0.23110264E-01 0.79110706E+02</pdfrwt>
<pdfrwt beam="2">  1       -2 0.16024294E-02 0.79110706E+02</pdfrwt>
<totfact> 0.16271150E+05</totfact>
</mgrwt>
</event>
<event>
 8    1  0.1319619E-020  0.8102832E+02  0.7818608E-02  0.1326158E+00
          1   -1    0    0  501    0  0.00000000000E+00  0.00000000000E+00  0.35548826136E+02  0.35548826494E+02  0.50400000000E-02 0. -1.
         -2   -1    0    0    0  501 -0.00000000000E+00 -0.00000000000E+00 -0.46173035551E+02  0.46173035621E+02  0.25500000000E-02 0.  1.
        -24    2    1    2    0    0  0.71054273576E-14  0.00000000000E+00 -0.10624209414E+02  0.81721862115E+02  0.81028321727E+02 0.  0.
         66    2    3    3    0    0  0.38141227270E+02 -0.10867971432E+02 -0.13541505087E+02  0.41955195184E+02  0.20000055642E+01 0.  0.
         13    1    3    3    0    0 -0.38141227270E+02  0.10867971432E+02  0.29172956733E+01  0.39766666930E+02  0.10566000000E+00 0. -1.
         13    1    4    4    0    0  0.72557998446E+00 -0.10137914386E+00 -0.39129450147E+00  0.83726905302E+00  0.10566000000E+00 0. -1.
        -13    1    4    4    0    0  0.68488155938E+01 -0.24187118202E+01 -0.21294485748E+01  0.75698188337E+01  0.10566000000E+00 0.  1.
         14    1    4    4    0    0  0.30566831691E+02 -0.83478804676E+01 -0.11020762011E+02  0.33548107298E+02  0.00000000000E+00 0. -1.
<mgrwt>
<rscale>  0 0.81028322E+02</rscale>
<asrwt>0</asrwt>
<pdfrwt beam="1">  1        1 0.54690502E-02 0.81028322E+02</pdfrwt>
<pdfrwt beam="2">  1       -2 0.71035440E-02 0.81028322E+02</pdfrwt>
<totfact> 0.12008902E+05</totfact>
</mgrwt>
</event>
<event>
 8    1  0.1319619E-020  0.7969864E+02  0.7818608E-02  0.1329909E+00
          1   -1    0    0  501    0  0.00000000000E+00  0.00000000000E+00  0.19276941752E+01  0.19277007638E+01  0.50400000000E-02 0. -1.
         -2   -1    0    0    0  501 -0.00000000000E+00 -0.00000000000E+00 -0.82376430003E+03  0.82376430003E+03  0.25500000000E-02 0.  1.
        -24    2    1    2    0    0  0.00000000000E+00  0.00000000000E+00 -0.82183660585E+03  0.82569200080E+03  0.79698641509E+02 0.  0.
         66    2    3    3    0    0 -0.16631682474E+02  0.66287661838E+01 -0.77971478831E+03  0.77992288369E+03  0.19999998551E+01 0.  0.
         13    1    3    3    0    0  0.16631682474E+02 -0.66287661838E+01 -0.42121817546E+02  0.45769117104E+02  0.10566000000E+00 0. -1.
         13    1    4    4    0    0 -0.12903662083E+01  0.81949943682E+00 -0.82487330623E+02  0.82501560601E+02  0.10566000000E+00 0. -1.
        -13    1    4    4    0    0 -0.76655446285E+01  0.30073594969E+01 -0.32663678662E+03  0.32674057955E+03  0.10566000000E+00 0.  1.
        -14    1    4    4    0    0 -0.76757716370E+01  0.28019072501E+01 -0.37059067106E+03  0.37068074354E+03  0.00000000000E+00 0.  1.
<mgrwt>
<rscale>  0 0.79698642E+02</rscale>
<asrwt>0</asrwt>
<pdfrwt beam="1">  1        1 0.29656950E-03 0.79698642E+02</pdfrwt>
<pdfrwt beam="2">  1       -2 0.12673269E+00 0.79698642E+02</pdfrwt>
<totfact> 0.32560425E+04</totfact>
</mgrwt>
</event>
<event>
 8    1  0.1319619E-020  0.8227834E+02  0.7818608E-02  0.1322707E+00
         -2   -1    0    0    0  501 -0.00000000000E+00  0.00000000000E+00  0.67838810436E+01  0.67838815229E+01  0.25500000000E-02 0.  1.
          1   -1    0    0  501    0  0.00000000000E+00 -0.00000000000E+00 -0.24947834429E+03  0.24947834435E+03  0.50400000000E-02 0. -1.
        -24    2    1    2    0    0  0.00000000000E+00  0.55511151231E-16 -0.24269446325E+03  0.25626222587E+03  0.82278344139E+02 0.  0.
         66    2    3    3    0    0 -0.40445388404E+02 -0.34432361972E+00 -0.98430182894E+02  0.10643518641E+03  0.19999999041E+01 0.  0.
         13    1    3    3    0    0  0.40445388404E+02  0.34432361972E+00 -0.14426428036E+03  0.14982703946E+03  0.10566000000E+00 0. -1.
         13    1    4    4    0    0 -0.10513849222E+02 -0.69306269230E+00 -0.26834353684E+02  0.28829066288E+02  0.10566000000E+00 0. -1.
        -13    1    4    4    0    0 -0.33602282184E+01  0.98867087757E-01 -0.86929851215E+01  0.93209475236E+01  0.10566000000E+00 0.  1.
        -14    1    4    4    0    0 -0.26571310964E+02  0.24987198482E+00 -0.62902844088E+02  0.68285172598E+02  0.00000000000E+00 0.  1.
<mgrwt>
<rscale>  0 0.82278344E+02</rscale>
<asrwt>0</asrwt>
<pdfrwt beam="1">  1        1 0.38381277E-01 0.82278344E+02</pdfrwt>
<pdfrwt beam="2">  1       -2 0.10436742E-02 0.82278344E+02</pdfrwt>
<totfact> 0.16160570E+05</totfact>
</mgrwt>
</event>
<event>
 8    1  0.1379535E-020  0.8349254E+02  0.7818608E-02  0.1319422E+00
         -2   -1    0    0    0  501 -0.00000000000E+00  0.00000000000E+00  0.26130207061E+01  0.26130219503E+01  0.25500000000E-02 0.  1.
          1   -1    0    0  501    0  0.00000000000E+00 -0.00000000000E+00 -0.66694866968E+03  0.66694866970E+03  0.50400000000E-02 0. -1.
        -24    2    1    2    0    0  0.00000000000E+00  0.00000000000E+00 -0.66433564898E+03  0.66956169165E+03  0.83492541145E+02 0.  0.
         66    2    3    3    0    0  0.28867492215E+02 -0.25348564016E+02 -0.46287114802E+03  0.46446698642E+03  0.20000000715E+01 0.  0.
         13    1    3    3    0    0 -0.28867492215E+02  0.25348564016E+02 -0.20146450096E+03  0.20509470524E+03  0.10566000000E+00 0. -1.
         13    1    4    4    0    0  0.32005444961E+01 -0.30091463723E+01 -0.48635294617E+02  0.48833405508E+02  0.10566000000E+00 0.  1.
        -13    1    4    4    0    0  0.15923358381E+01 -0.10730252185E+01 -0.26119452444E+02  0.26190148464E+02  0.10566000000E+00 0.  1.
        -14    1    4    4    0    0  0.24074611881E+02 -0.21266392426E+02 -0.38811640095E+03  0.38944343244E+03  0.00000000000E+00 0.  1.
<mgrwt>
<rscale>  0 0.83492541E+02</rscale>
<asrwt>0</asrwt>
<pdfrwt beam="1">  1        1 0.10260735E+00 0.83492541E+02</pdfrwt>
<pdfrwt beam="2">  1       -2 0.40200381E-03 0.83492541E+02</pdfrwt>
<totfact> 0.17896069E+05</totfact>
</mgrwt>
</event>
<event>
 8    1  0.1319619E-020  0.8101860E+02  0.7818608E-02  0.1326185E+00
          1   -1    0    0  501    0  0.00000000000E+00  0.00000000000E+00  0.17792343096E+03  0.17792343103E+03  0.50400000000E-02 0. -1.
         -2   -1    0    0    0  501 -0.00000000000E+00 -0.00000000000E+00 -0.92230870961E+01  0.92230874486E+01  0.25500000000E-02 0.  1.
        -24    2    1    2    0    0  0.00000000000E+00  0.00000000000E+00  0.16870034386E+03  0.18714651848E+03  0.81018598849E+02 0.  0.
         66    2    3    3    0    0  0.35003145733E+02 -0.51655340345E+01  0.38954344828E+02  0.52662547752E+02  0.20000004058E+01 0.  0.
         13    1    3    3    0    0 -0.35003145733E+02  0.51655340345E+01  0.12974599904E+03  0.13448397073E+03  0.10566000000E+00 0. -1.
         13    1    4    4    0    0  0.14762220752E+02 -0.20977142083E+01  0.15122312186E+02  0.21237209240E+02  0.10566000000E+00 0. -1.
        -13    1    4    4    0    0  0.13091217828E+02 -0.22648052143E+01  0.15200644244E+02  0.20188612541E+02  0.10566000000E+00 0.  1.
         14    1    4    4    0    0  0.71497071537E+01 -0.80301461187E+00  0.86313883987E+01  0.11236725971E+02  0.00000000000E+00 0. -1.
<mgrwt>
<rscale>  0 0.81018599E+02</rscale>
<asrwt>0</asrwt>
<pdfrwt beam="1">  1        1 0.27372833E-01 0.81018599E+02</pdfrwt>
<pdfrwt beam="2">  1       -2 0.14189366E-02 0.81018599E+02</pdfrwt>
<totfact> 0.15761916E+05</totfact>
</mgrwt>
</event>
<event>
 8    1  0.1319619E-020  0.8166646E+02  0.7818608E-02  0.1324388E+00
         -2   -1    0    0    0  501 -0.00000000000E+00  0.00000000000E+00  0.40523160669E+02  0.40523160750E+02  0.25500000000E-02 0.  1.
          1   -1    0    0  501    0  0.00000000000E+00 -0.00000000000E+00 -0.41145668716E+02  0.41145669025E+02  0.50400000000E-02 0. -1.
        -24    2    1    2    0    0  0.00000000000E+00  0.00000000000E+00 -0.62250804682E+00  0.81668829774E+02  0.81666457254E+02 0.  0.
         66    2    3    3    0    0 -0.34904144871E+02  0.66106649487E+01  0.19772652863E+02  0.40705749168E+02  0.19999984549E+01 0.  0.
         13    1    3    3    0    0  0.34904144871E+02 -0.66106649487E+01 -0.20395160910E+02  0.40963080607E+02  0.10566000000E+00 0. -1.
         13    1    4    4    0    0 -0.11964967703E+02  0.29795139194E+01  0.72637032443E+01  0.14311202052E+02  0.10566000000E+00 0.  1.
        -13    1    4    4    0    0 -0.22422823720E+02  0.34292579306E+01  0.12282986809E+02  0.25795847776E+02  0.10566000000E+00 0. -1.
         14    1    4    4    0    0 -0.51635344821E+00  0.20189309869E+00  0.22596280988E+00  0.59869933876E+00  0.00000000000E+00 0. -1.
<mgrwt>
<rscale>  0 0.81666457E+02</rscale>
<asrwt>0</asrwt>
<pdfrwt beam="1">  1        1 0.63301029E-02 0.81666457E+02</pdfrwt>
<pdfrwt beam="2">  1       -2 0.62343324E-02 0.81666457E+02</pdfrwt>
<totfact> 0.12035762E+05</totfact>
</mgrwt>
</event>
<event>
 8    1  0.1319619E-020  0.7911184E+02  0.7818608E-02  0.1331591E+00
         -2   -1    0    0    0  501 -0.00000000000E+00  0.00000000000E+00  0.34227162167E+02  0.34227162262E+02  0.25500000000E-02 0.  1.
          1   -1    0    0  501    0  0.00000000000E+00 -0.00000000000E+00 -0.45714306386E+02  0.45714306664E+02  0.50400000000E-02 0. -1.
        -24    2    1    2    0    0  0.00000000000E+00  0.71054273576E-14 -0.11487144219E+02  0.79941468926E+02  0.79111844699E+02 0.  0.
         66    2    3    3    0    0 -0.13296823612E+02 -0.35589138080E+02  0.52885491202E+01  0.38410428504E+02  0.19999996601E+01 0.  0.
         13    1    3    3    0    0  0.13296823612E+02  0.35589138080E+02 -0.16775693339E+02  0.41531040421E+02  0.10566000000E+00 0. -1.
         13    1    4    4    0    0 -0.35547487031E+01 -0.84378220762E+01  0.20388644541E+01  0.93808961208E+01  0.10566000000E+00 0. -1.
        -13    1    4    4    0    0 -0.40247158866E+01 -0.11025565882E+02  0.13623435780E+01  0.11816453996E+02  0.10566000000E+00 0.  1.
         14    1    4    4    0    0 -0.57173590223E+01 -0.16125750122E+02  0.18873410881E+01  0.17213078387E+02  0.00000000000E+00 0. -1.
<mgrwt>
<rscale>  0 0.79111845E+02</rscale>
<asrwt>0</asrwt>
<pdfrwt beam="1">  1        1 0.70329703E-02 0.79111845E+02</pdfrwt>
<pdfrwt beam="2">  1       -2 0.52657173E-02 0.79111845E+02</pdfrwt>
<totfact> 0.13383039E+05</totfact>
</mgrwt>
</event>
<event>
 8    1  0.1319619E-020  0.7833655E+02  0.7818608E-02  0.1333839E+00
          1   -1    0    0  501    0  0.00000000000E+00  0.00000000000E+00  0.32686953262E+03  0.32686953266E+03  0.50400000000E-02 0. -1.
         -2   -1    0    0    0  501 -0.00000000000E+00 -0.00000000000E+00 -0.46934736038E+01  0.46934742965E+01  0.25500000000E-02 0.  1.
        -24    2    1    2    0    0  0.00000000000E+00  0.00000000000E+00  0.32217605902E+03  0.33156300696E+03  0.78336546886E+02 0.  0.
         66    2    3    3    0    0  0.29758614731E+02 -0.83747300442E+01  0.26281239908E+03  0.26463194885E+03  0.19999970458E+01 0.  0.
         13    1    3    3    0    0 -0.29758614731E+02  0.83747300442E+01  0.59363659937E+02  0.66931058106E+02  0.10566000000E+00 0. -1.
         13    1    4    4    0    0  0.13720435788E+02 -0.43369961782E+01  0.12410646090E+03  0.12493792337E+03  0.10566000000E+00 0. -1.
        -13    1    4    4    0    0  0.88171489496E+01 -0.15960906774E+01  0.76006324407E+02  0.76532752041E+02  0.10566000000E+00 0.  1.
        -14    1    4    4    0    0  0.72210299930E+01 -0.24416431886E+01  0.62699613774E+02  0.63161273444E+02  0.00000000000E+00 0.  1.
<mgrwt>
<rscale>  0 0.78336547E+02</rscale>
<asrwt>0</asrwt>
<pdfrwt beam="1">  1        1 0.50287625E-01 0.78336547E+02</pdfrwt>
<pdfrwt beam="2">  1       -2 0.72207285E-03 0.78336547E+02</pdfrwt>
<totfact> 0.19376152E+05</totfact>
</mgrwt>
</event>
<event>
 8    1  0.1319619E-020  0.7919799E+02  0.7818608E-02  0.1331343E+00
         -2   -1    0    0    0  501 -0.00000000000E+00  0.00000000000E+00  0.22328473499E+03  0.22328473500E+03  0.25500000000E-02 0.  1.
          1   -1    0    0  501    0  0.00000000000E+00 -0.00000000000E+00 -0.70227830285E+01  0.70227848370E+01  0.50400000000E-02 0. -1.
        -24    2    1    2    0    0  0.00000000000E+00  0.00000000000E+00  0.21626195196E+03  0.23030751984E+03  0.79197991321E+02 0.  0.
         66    2    3    3    0    0 -0.11015450339E+02 -0.94462216074E+01  0.21526397038E+03  0.21576178575E+03  0.19999995501E+01 0.  0.
         13    1    3    3    0    0  0.11015450339E+02  0.94462216074E+01  0.99798157766E+00  0.14545734086E+02  0.10566000000E+00 0. -1.
         13    1    4    4    0    0 -0.17433131470E+01 -0.97214640369E+00  0.25766204758E+02  0.25843619736E+02  0.10566000000E+00 0. -1.
        -13    1    4    4    0    0 -0.89452190431E+01 -0.81163088794E+01  0.18511984391E+03  0.18551350136E+03  0.10566000000E+00 0.  1.
        -14    1    4    4    0    0 -0.32691814929E+00 -0.35776632430E+00  0.43779217148E+01  0.44046646592E+01  0.00000000000E+00 0.  1.
<mgrwt>
<rscale>  0 0.79197991E+02</rscale>
<asrwt>0</asrwt>
<pdfrwt beam="1">  1        1 0.10804283E-02 0.79197991E+02</pdfrwt>
<pdfrwt beam="2">  1       -2 0.34351499E-01 0.79197991E+02</pdfrwt>
<totfact> 0.83349115E+04</totfact>
</mgrwt>
</event>
<event>
 8    1  0.1319619E-020  0.8047402E+02  0.7818608E-02  0.1327712E+00
         -2   -1    0    0    0  501 -0.00000000000E+00  0.00000000000E+00  0.55124246262E+01  0.55124252160E+01  0.25500000000E-02 0.  1.
          1   -1    0    0  501    0  0.00000000000E+00 -0.00000000000E+00 -0.29370318918E+03  0.29370318923E+03  0.50400000000E-02 0. -1.
        -24    2    1    2    0    0 -0.35527136788E-14  0.35527136788E-14 -0.28819076456E+03  0.29921561444E+03  0.80474015372E+02 0.  0.
         66    2    3    3    0    0  0.23987563774E+02  0.31263171731E+02 -0.17398115760E+03  0.17839908160E+03  0.19999984295E+01 0.  0.
         13    1    3    3    0    0 -0.23987563774E+02 -0.31263171731E+02 -0.11420960696E+03  0.12081653284E+03  0.10566000000E+00 0. -1.
         13    1    4    4    0    0  0.94557720987E+01  0.12680734697E+02 -0.67245990052E+02  0.69081451929E+02  0.10566000000E+00 0. -1.
        -13    1    4    4    0    0  0.13691886691E+02  0.17510322340E+02 -0.10175851284E+03  0.10415798217E+03  0.10566000000E+00 0.  1.
        -14    1    4    4    0    0  0.83990498471E+00  0.10721146936E+01 -0.49766547067E+01  0.51596475044E+01  0.00000000000E+00 0.  1.
<mgrwt>
<rscale>  0 0.80474015E+02</rscale>
<asrwt>0</asrwt>
<pdfrwt beam="1">  1        1 0.45185094E-01 0.80474015E+02</pdfrwt>
<pdfrwt beam="2">  1       -2 0.84806561E-03 0.80474015E+02</pdfrwt>
<totfact> 0.17690822E+05</totfact>
</mgrwt>
</event>
<event>
 8    1  0.1319619E-020  0.7951592E+02  0.7818608E-02  0.1330431E+00
          1   -1    0    0  501    0  0.00000000000E+00  0.00000000000E+00  0.27752000506E+02  0.27752000964E+02  0.50400000000E-02 0. -1.
         -2   -1    0    0    0  501 -0.00000000000E+00 -0.00000000000E+00 -0.56957886703E+02  0.56957886760E+02  0.25500000000E-02 0.  1.
        -24    2    1    2    0    0  0.00000000000E+00  0.00000000000E+00 -0.29205886196E+02  0.84709887724E+02  0.79515918467E+02 0.  0.
         66    2    3    3    0    0 -0.28626500419E+02  0.85092814168E+01 -0.42530975607E+02  0.52007386775E+02  0.19999991527E+01 0.  0.
         13    1    3    3    0    0  0.28626500419E+02 -0.85092814168E+01  0.13325089411E+02  0.32702500949E+02  0.10566000000E+00 0. -1.
         13    1    4    4    0    0 -0.18236827230E+01  0.94110656354E+00 -0.33337452439E+01  0.39161871285E+01  0.10566000000E+00 0. -1.
        -13    1    4    4    0    0 -0.11112875048E+02  0.30638802809E+01 -0.16898466189E+02  0.20456115902E+02  0.10566000000E+00 0.  1.
         14    1    4    4    0    0 -0.15689942648E+02  0.45042945723E+01 -0.22298764174E+02  0.27635083745E+02  0.00000000000E+00 0. -1.
<mgrwt>
<rscale>  0 0.79515918E+02</rscale>
<asrwt>0</asrwt>
<pdfrwt beam="1">  1        1 0.42695386E-02 0.79515918E+02</pdfrwt>
<pdfrwt beam="2">  1       -2 0.87627518E-02 0.79515918E+02</pdfrwt>
<totfact> 0.12137589E+05</totfact>
</mgrwt>
</event>
<event>
 8    1  0.1319619E-020  0.8213518E+02  0.7818608E-02  0.1323099E+00
          1   -1    0    0  501    0  0.00000000000E+00  0.00000000000E+00  0.24157813246E+03  0.24157813251E+03  0.50400000000E-02 0. -1.
         -2   -1    0    0    0  501 -0.00000000000E+00 -0.00000000000E+00 -0.69813724528E+01  0.69813729185E+01  0.25500000000E-02 0.  1.
        -24    2    1    2    0    0  0.00000000000E+00  0.17763568394E-14  0.23459676001E+03  0.24855950543E+03  0.82135180856E+02 0.  0.
         66    2    3    3    0    0 -0.35724384849E+02 -0.12263872611E+02  0.16596740896E+03  0.17022283948E+03  0.19999992244E+01 0.  0.
         13    1    3    3    0    0  0.35724384849E+02  0.12263872611E+02  0.68629351041E+02  0.78336665953E+02  0.10566000000E+00 0. -1.
         13    1    4    4    0    0 -0.59897299147E+01 -0.22434194602E+01  0.27711458452E+02  0.28440216049E+02  0.10566000000E+00 0.  1.
        -13    1    4    4    0    0 -0.10094531950E+02 -0.39616360311E+01  0.44937908740E+02  0.46227923826E+02  0.10566000000E+00 0. -1.
        -14    1    4    4    0    0 -0.19640122984E+02 -0.60588171195E+01  0.93318041772E+02  0.95554699601E+02  0.00000000000E+00 0.  1.
<mgrwt>
<rscale>  0 0.82135181E+02</rscale>
<asrwt>0</asrwt>
<pdfrwt beam="1">  1        1 0.37165862E-01 0.82135181E+02</pdfrwt>
<pdfrwt beam="2">  1       -2 0.10740575E-02 0.82135181E+02</pdfrwt>
<totfact> 0.16133242E+05</totfact>
</mgrwt>
</event>
<event>
 8    1  0.1319619E-020  0.8082427E+02  0.7818608E-02  0.1326728E+00
         -2   -1    0    0    0  501 -0.00000000000E+00  0.00000000000E+00  0.67188753154E+01  0.67188757993E+01  0.25500000000E-02 0.  1.
          1   -1    0    0  501    0  0.00000000000E+00 -0.00000000000E+00 -0.24306754376E+03  0.24306754381E+03  0.50400000000E-02 0. -1.
        -24    2    1    2    0    0  0.00000000000E+00  0.00000000000E+00 -0.23634866845E+03  0.24978641961E+03  0.80824268304E+02 0.  0.
         66    2    3    3    0    0  0.39576958904E+02 -0.70203413784E+01 -0.13041953872E+03  0.13648764399E+03  0.20000032147E+01 0.  0.
         13    1    3    3    0    0 -0.39576958904E+02  0.70203413784E+01 -0.10592912973E+03  0.11329877562E+03  0.10566000000E+00 0. -1.
         13    1    4    4    0    0  0.69091761105E+01 -0.77014935444E+00 -0.24451362939E+02  0.25420664000E+02  0.10566000000E+00 0. -1.
        -13    1    4    4    0    0  0.88437647749E+01 -0.15003580543E+01 -0.28008625216E+02  0.29410159813E+02  0.10566000000E+00 0.  1.
         14    1    4    4    0    0  0.23824018018E+02 -0.47498339697E+01 -0.77959550565E+02  0.81656820178E+02  0.00000000000E+00 0. -1.
<mgrwt>
<rscale>  0 0.80824268E+02</rscale>
<asrwt>0</asrwt>
<pdfrwt beam="1">  1        1 0.37395000E-01 0.80824268E+02</pdfrwt>
<pdfrwt beam="2">  1       -2 0.10336734E-02 0.80824268E+02</pdfrwt>
<totfact> 0.16856483E+05</totfact>
</mgrwt>
</event>
<event>
 8    1  0.1319619E-020  0.7899018E+02  0.7818608E-02  0.1331942E+00
         -2   -1    0    0    0  501 -0.00000000000E+00  0.00000000000E+00  0.40538341643E+02  0.40538341723E+02  0.25500000000E-02 0.  1.
          1   -1    0    0  501    0  0.00000000000E+00 -0.00000000000E+00 -0.38478684145E+02  0.38478684475E+02  0.50400000000E-02 0. -1.
        -24    2    1    2    0    0  0.00000000000E+00  0.00000000000E+00  0.20596574979E+01  0.79017026197E+02  0.78990178124E+02 0.  0.
         66    2    3    3    0    0 -0.36106292716E+01  0.32013608956E+02  0.23840634594E+02  0.40128339803E+02  0.19999988394E+01 0.  0.
         13    1    3    3    0    0  0.36106292716E+01 -0.32013608956E+02 -0.21780977096E+02  0.38888686394E+02  0.10566000000E+00 0. -1.
         13    1    4    4    0    0 -0.97130055495E+00  0.53760484847E+01  0.44215805861E+01  0.70290014222E+01  0.10566000000E+00 0. -1.
        -13    1    4    4    0    0  0.52268784346E-01  0.42996322661E+01  0.29226718200E+01  0.52002638637E+01  0.10566000000E+00 0.  1.
        -14    1    4    4    0    0 -0.26915975010E+01  0.22337928206E+02  0.16496382188E+02  0.27899074517E+02  0.00000000000E+00 0.  1.
<mgrwt>
<rscale>  0 0.78990178E+02</rscale>
<asrwt>0</asrwt>
<pdfrwt beam="1">  1        1 0.59197976E-02 0.78990178E+02</pdfrwt>
<pdfrwt beam="2">  1       -2 0.62366680E-02 0.78990178E+02</pdfrwt>
<totfact> 0.13077813E+05</totfact>
</mgrwt>
</event>
<event>
 8    1  0.1319619E-020  0.7888653E+02  0.7818608E-02  0.1332241E+00
         -2   -1    0    0    0  501 -0.00000000000E+00  0.00000000000E+00  0.61367256938E+01  0.61367262236E+01  0.25500000000E-02 0.  1.
          1   -1    0    0  501    0  0.00000000000E+00 -0.00000000000E+00 -0.25351812973E+03  0.25351812978E+03  0.50400000000E-02 0. -1.
        -24    2    1    2    0    0  0.00000000000E+00  0.35527136788E-14 -0.24738140404E+03  0.25965485601E+03  0.78886533600E+02 0.  0.
         66    2    3    3    0    0  0.33066698471E+02  0.16845174618E+02 -0.80028976424E+02  0.88237200415E+02  0.20000034958E+01 0.  0.
         13    1    3    3    0    0 -0.33066698471E+02 -0.16845174618E+02 -0.16735242761E+03  0.17141765559E+03  0.10566000000E+00 0. -1.
         13    1    4    4    0    0  0.41412474602E+01  0.19900644925E+01 -0.92704838744E+01  0.10347140789E+02  0.10566000000E+00 0. -1.
        -13    1    4    4    0    0  0.78621248942E+01  0.46493974864E+01 -0.18686701396E+02  0.20799852835E+02  0.10566000000E+00 0.  1.
        -14    1    4    4    0    0  0.21063326117E+02  0.10205712639E+02 -0.52071791153E+02  0.57090206791E+02  0.00000000000E+00 0.  1.
<mgrwt>
<rscale>  0 0.78886534E+02</rscale>
<asrwt>0</asrwt>
<pdfrwt beam="1">  1        1 0.39002781E-01 0.78886534E+02</pdfrwt>
<pdfrwt beam="2">  1       -2 0.94411188E-03 0.78886534E+02</pdfrwt>
<totfact> 0.18121341E+05</totfact>
</mgrwt>
</event>
<event>
 8    1  0.1319619E-020  0.7400952E+02  0.7818608E-02  0.1346966E+00
         -2   -1    0    0    0  501 -0.00000000000E+00  0.00000000000E+00  0.24403526132E+01  0.24403539455E+01  0.25500000000E-02 0.  1.
          1   -1    0    0  501    0  0.00000000000E+00 -0.00000000000E+00 -0.56112874861E+03  0.56112874863E+03  0.50400000000E-02 0. -1.
        -24    2    1    2    0    0  0.00000000000E+00  0.17763568394E-14 -0.55868839599E+03  0.56356910257E+03  0.74009523436E+02 0.  0.
         66    2    3    3    0    0 -0.82507585821E+01  0.10852566633E+02 -0.54129081251E+03  0.54146615492E+03  0.20000005875E+01 0.  0.
         13    1    3    3    0    0  0.82507585821E+01 -0.10852566633E+02 -0.17397583485E+02  0.22102947651E+02  0.10566000000E+00 0. -1.
         13    1    4    4    0    0 -0.92962143265E+00  0.14042221067E+01 -0.74835955774E+02  0.74854976297E+02  0.10566000000E+00 0. -1.
        -13    1    4    4    0    0 -0.42266925303E+01  0.46211920458E+01 -0.27014540599E+03  0.27021800807E+03  0.10566000000E+00 0.  1.
         14    1    4    4    0    0 -0.30944446191E+01  0.48271524804E+01 -0.19630945075E+03  0.19639317056E+03  0.00000000000E+00 0. -1.
<mgrwt>
<rscale>  0 0.74009523E+02</rscale>
<asrwt>0</asrwt>
<pdfrwt beam="1">  1        1 0.86327398E-01 0.74009523E+02</pdfrwt>
<pdfrwt beam="2">  1       -2 0.37543941E-03 0.74009523E+02</pdfrwt>
<totfact> 0.24302764E+05</totfact>
</mgrwt>
</event>
<event>
 8    1  0.1319619E-020  0.7660906E+02  0.7818608E-02  0.1338959E+00
         -2   -1    0    0    0  501 -0.00000000000E+00  0.00000000000E+00  0.85031189821E+02  0.85031189860E+02  0.25500000000E-02 0.  1.
          1   -1    0    0  501    0  0.00000000000E+00 -0.00000000000E+00 -0.17255278679E+02  0.17255279415E+02  0.50400000000E-02 0. -1.
        -24    2    1    2    0    0  0.00000000000E+00  0.00000000000E+00  0.67775911142E+02  0.10228646928E+03  0.76609057334E+02 0.  0.
         66    2    3    3    0    0  0.25543463957E+02  0.27666119859E+02  0.43098431868E+02  0.57265675342E+02  0.20000010005E+01 0.  0.
         13    1    3    3    0    0 -0.25543463957E+02 -0.27666119859E+02  0.24677479274E+02  0.45020793933E+02  0.10566000000E+00 0. -1.
         13    1    4    4    0    0  0.71898401306E+01  0.69352274757E+01  0.12159555384E+02  0.15737125926E+02  0.10566000000E+00 0. -1.
        -13    1    4    4    0    0  0.62053034214E+01  0.73506536041E+01  0.11267201624E+02  0.14815495113E+02  0.10566000000E+00 0.  1.
         14    1    4    4    0    0  0.12148320405E+02  0.13380238779E+02  0.19671674860E+02  0.26713054303E+02  0.00000000000E+00 0. -1.
<mgrwt>
<rscale>  0 0.76609057E+02</rscale>
<asrwt>0</asrwt>
<pdfrwt beam="1">  1        1 0.26546583E-02 0.76609057E+02</pdfrwt>
<pdfrwt beam="2">  1       -2 0.13081722E-01 0.76609057E+02</pdfrwt>
<totfact> 0.12314481E+05</totfact>
</mgrwt>
</event>
<event>
 8    1  0.1319619E-020  0.8006716E+02  0.7818608E-02  0.1328861E+00
         -2   -1    0    0    0  501 -0.00000000000E+00  0.00000000000E+00  0.34333889798E+01  0.34333899268E+01  0.25500000000E-02 0.  1.
          1   -1    0    0  501    0  0.00000000000E+00 -0.00000000000E+00 -0.46679452659E+03  0.46679452661E+03  0.50400000000E-02 0. -1.
        -24    2    1    2    0    0  0.00000000000E+00  0.00000000000E+00 -0.46336113761E+03  0.47022791654E+03  0.80067157124E+02 0.  0.
         66    2    3    3    0    0 -0.91946545062E+01 -0.38911678117E+02 -0.24017602455E+03  0.24348959552E+03  0.19999980452E+01 0.  0.
         13    1    3    3    0    0  0.91946545062E+01  0.38911678117E+02 -0.22318511306E+03  0.22673832102E+03  0.10566000000E+00 0. -1.
         13    1    4    4    0    0 -0.20121943878E+01 -0.83954614506E+01 -0.53859180055E+02  0.54546816034E+02  0.10566000000E+00 0.  1.
        -13    1    4    4    0    0 -0.16536417633E+01 -0.61176413911E+01 -0.41421981711E+02  0.41904078562E+02  0.10566000000E+00 0.  1.
        -14    1    4    4    0    0 -0.55288183551E+01 -0.24398575275E+02 -0.14489486278E+03  0.14703870092E+03  0.00000000000E+00 0.  1.
<mgrwt>
<rscale>  0 0.80067157E+02</rscale>
<asrwt>0</asrwt>
<pdfrwt beam="1">  1        1 0.71814493E-01 0.80067157E+02</pdfrwt>
<pdfrwt beam="2">  1       -2 0.52821413E-03 0.80067157E+02</pdfrwt>
<totfact> 0.19395989E+05</totfact>
</mgrwt>
</event>
<event>
 8    1  0.1319619E-020  0.8192872E+02  0.7818608E-02  0.1323665E+00
          1   -1    0    0  501    0  0.00000000000E+00  0.00000000000E+00  0.15376277374E+03  0.15376277382E+03  0.50400000000E-02 0. -1.
         -2   -1    0    0    0  501 -0.00000000000E+00 -0.00000000000E+00 -0.10913426527E+02  0.10913426825E+02  0.25500000000E-02 0.  1.
        -24    2    1    2    0    0  0.00000000000E+00  0.00000000000E+00  0.14284934721E+03  0.16467620064E+03  0.81928719388E+02 0.  0.
         66    2    3    3    0    0 -0.55265749690E+00 -0.39700181430E+02  0.51400984461E+02  0.64980543521E+02  0.19999992206E+01 0.  0.
         13    1    3    3    0    0  0.55265749690E+00  0.39700181430E+02  0.91448362748E+02  0.99695657123E+02  0.10566000000E+00 0. -1.
         13    1    4    4    0    0  0.20069931468E-01 -0.98066153643E+00  0.92005677273E+00  0.13489878991E+01  0.10566000000E+00 0.  1.
        -13    1    4    4    0    0 -0.39345166826E-02 -0.38292399828E+00  0.49912714319E+00  0.63791708674E+00  0.10566000000E+00 0.  1.
        -14    1    4    4    0    0 -0.56879291169E+00 -0.38336595895E+02  0.49981800545E+02  0.62993638535E+02  0.00000000000E+00 0.  1.
<mgrwt>
<rscale>  0 0.81928719E+02</rscale>
<asrwt>0</asrwt>
<pdfrwt beam="1">  1        1 0.23655812E-01 0.81928719E+02</pdfrwt>
<pdfrwt beam="2">  1       -2 0.16789887E-02 0.81928719E+02</pdfrwt>
<totfact> 0.14882008E+05</totfact>
</mgrwt>
</event>
<event>
 8    1  0.1319619E-020  0.7743972E+02  0.7818608E-02  0.1336478E+00
         -2   -1    0    0    0  501 -0.00000000000E+00  0.00000000000E+00  0.36075565319E+03  0.36075565320E+03  0.25500000000E-02 0.  1.
          1   -1    0    0  501    0  0.00000000000E+00 -0.00000000000E+00 -0.41557960728E+01  0.41557991290E+01  0.50400000000E-02 0. -1.
        -24    2    1    2    0    0  0.00000000000E+00  0.00000000000E+00  0.35659985712E+03  0.36491145233E+03  0.77439718131E+02 0.  0.
         66    2    3    3    0    0 -0.75431684176E+01 -0.19359289852E+02  0.33223711507E+03  0.33289214788E+03  0.19999990638E+01 0.  0.
         13    1    3    3    0    0  0.75431684176E+01  0.19359289852E+02  0.24362742051E+02  0.32019304452E+02  0.10566000000E+00 0. -1.
         13    1    4    4    0    0 -0.15482746953E+01 -0.49486094892E+01  0.77863770960E+02  0.78036298493E+02  0.10566000000E+00 0. -1.
        -13    1    4    4    0    0 -0.59019927727E+01 -0.13223492521E+02  0.23368730770E+03  0.23413556589E+03  0.10566000000E+00 0.  1.
         14    1    4    4    0    0 -0.92900949558E-01 -0.11871878417E+01  0.20686036409E+02  0.20720283489E+02  0.00000000000E+00 0. -1.
<mgrwt>
<rscale>  0 0.77439718E+02</rscale>
<asrwt>0</asrwt>
<pdfrwt beam="1">  1        1 0.63935308E-03 0.77439718E+02</pdfrwt>
<pdfrwt beam="2">  1       -2 0.55500904E-01 0.77439718E+02</pdfrwt>
<totfact> 0.68662339E+04</totfact>
</mgrwt>
</event>
<event>
 8    1  0.1319619E-020  0.7810375E+02  0.7818608E-02  0.1334520E+00
         -2   -1    0    0    0  501 -0.00000000000E+00  0.00000000000E+00  0.25717836774E+03  0.25717836775E+03  0.25500000000E-02 0.  1.
          1   -1    0    0  501    0  0.00000000000E+00 -0.00000000000E+00 -0.59299253301E+01  0.59299274719E+01  0.50400000000E-02 0. -1.
        -24    2    1    2    0    0  0.00000000000E+00  0.00000000000E+00  0.25124844241E+03  0.26310829523E+03  0.78103746405E+02 0.  0.
         66    2    3    3    0    0 -0.20309085502E+01 -0.17032546856E+02  0.24379424653E+03  0.24440512859E+03  0.19999997368E+01 0.  0.
         13    1    3    3    0    0  0.20309085502E+01  0.17032546856E+02  0.74541958842E+01  0.18703166637E+02  0.10566000000E+00 0. -1.
         13    1    4    4    0    0 -0.12092016903E+01 -0.89136222757E+01  0.13483724334E+03  0.13513699785E+03  0.10566000000E+00 0.  1.
        -13    1    4    4    0    0 -0.25820718231E+00 -0.52657752720E+01  0.76226878245E+02  0.76409051762E+02  0.10566000000E+00 0. -1.
         14    1    4    4    0    0 -0.56349967766E+00 -0.28531493081E+01  0.32730124940E+02  0.32859078980E+02  0.00000000000E+00 0. -1.
<mgrwt>
<rscale>  0 0.78103746E+02</rscale>
<asrwt>0</asrwt>
<pdfrwt beam="1">  1        1 0.91229655E-03 0.78103746E+02</pdfrwt>
<pdfrwt beam="2">  1       -2 0.39565895E-01 0.78103746E+02</pdfrwt>
<totfact> 0.80928339E+04</totfact>
</mgrwt>
</event>
<event>
 8    1  0.1319619E-020  0.7797720E+02  0.7818608E-02  0.1334892E+00
         -2   -1    0    0    0  501 -0.00000000000E+00  0.00000000000E+00  0.26081631437E+01  0.26081643903E+01  0.25500000000E-02 0.  1.
          1   -1    0    0  501    0  0.00000000000E+00 -0.00000000000E+00 -0.58282808756E+03  0.58282808758E+03  0.50400000000E-02 0. -1.
        -24    2    1    2    0    0  0.00000000000E+00 -0.35527136788E-14 -0.58021992442E+03  0.58543625197E+03  0.77977204576E+02 0.  0.
         66    2    3    3    0    0  0.22296488359E+02  0.25894586939E+02 -0.43084700571E+03  0.43220458738E+03  0.19999999745E+01 0.  0.
         13    1    3    3    0    0 -0.22296488359E+02 -0.25894586939E+02 -0.14937291871E+03  0.15323166459E+03  0.10566000000E+00 0. -1.
         13    1    4    4    0    0  0.58691111094E+01  0.76912295148E+01 -0.12915861615E+03  0.12952050326E+03  0.10566000000E+00 0. -1.
        -13    1    4    4    0    0  0.48673980694E+01  0.58887384635E+01 -0.94084255129E+02  0.94393998919E+02  0.10566000000E+00 0.  1.
         14    1    4    4    0    0  0.11559979180E+02  0.12314618960E+02 -0.20760413443E+03  0.20829008520E+03  0.00000000000E+00 0. -1.
<mgrwt>
<rscale>  0 0.77977205E+02</rscale>
<asrwt>0</asrwt>
<pdfrwt beam="1">  1        1 0.89665756E-01 0.77977205E+02</pdfrwt>
<pdfrwt beam="2">  1       -2 0.40125643E-03 0.77977205E+02</pdfrwt>
<totfact> 0.21275387E+05</totfact>
</mgrwt>
</event>
<event>
 8    1  0.1319619E-020  0.7929600E+02  0.7818608E-02  0.1331061E+00
         -2   -1    0    0    0  501 -0.00000000000E+00  0.00000000000E+00  0.39274021801E+01  0.39274030080E+01  0.25500000000E-02 0.  1.
          1   -1    0    0  501    0  0.00000000000E+00 -0.00000000000E+00 -0.40025533345E+03  0.40025533349E+03  0.50400000000E-02 0. -1.
        -24    2    1    2    0    0 -0.17763568394E-14  0.00000000000E+00 -0.39632793127E+03  0.40418273649E+03  0.79295998460E+02 0.  0.
         66    2    3    3    0    0 -0.85815214574E+01  0.37376740664E+02 -0.24908123716E+03  0.25202405832E+03  0.20000029635E+01 0.  0.
         13    1    3    3    0    0  0.85815214574E+01 -0.37376740664E+02 -0.14724669411E+03  0.15215867818E+03  0.10566000000E+00 0. -1.
         13    1    4    4    0    0 -0.44776420720E+00  0.10230104286E+01 -0.87262637532E+01  0.87980615052E+01  0.10566000000E+00 0. -1.
        -13    1    4    4    0    0 -0.24944869672E+01  0.12824718074E+02 -0.84370505235E+02  0.85376162812E+02  0.10566000000E+00 0.  1.
         14    1    4    4    0    0 -0.56392702830E+01  0.23529012162E+02 -0.15598446817E+03  0.15784983400E+03  0.00000000000E+00 0. -1.
<mgrwt>
<rscale>  0 0.79295998E+02</rscale>
<asrwt>0</asrwt>
<pdfrwt beam="1">  1        1 0.61577712E-01 0.79295998E+02</pdfrwt>
<pdfrwt beam="2">  1       -2 0.60421610E-03 0.79295998E+02</pdfrwt>
<totfact> 0.19441381E+05</totfact>
</mgrwt>
</event>
<event>
 8    1  0.1319619E-020  0.7941696E+02  0.7818608E-02  0.1330714E+00
          1   -1    0    0  501    0  0.00000000000E+00  0.00000000000E+00  0.14813423352E+02  0.14813424209E+02  0.50400000000E-02 0. -1.
         -2   -1    0    0    0  501 -0.00000000000E+00 -0.00000000000E+00 -0.10644151958E+03  0.10644151961E+03  0.25500000000E-02 0.  1.
        -24    2    1    2    0    0  0.00000000000E+00  0.00000000000E+00 -0.91628096224E+02  0.12125494382E+03  0.79416959032E+02 0.  0.
         66    2    3    3    0    0  0.36107442277E+01 -0.38351303708E+02 -0.60399771081E+02  0.71665837902E+02  0.20000013724E+01 0.  0.
         13    1    3    3    0    0 -0.36107442277E+01  0.38351303708E+02 -0.31228325143E+02  0.49589105913E+02  0.10566000000E+00 0. -1.
         13    1    4    4    0    0  0.48191434684E-02 -0.31233802288E+01 -0.52153407915E+01  0.60800058294E+01  0.10566000000E+00 0. -1.
        -13    1    4    4    0    0  0.86696373251E+00 -0.49440572354E+01 -0.71809449789E+01  0.87619896648E+01  0.10566000000E+00 0.  1.
        -14    1    4    4    0    0  0.27389613517E+01 -0.30283866244E+02 -0.48003485311E+02  0.56823842408E+02  0.00000000000E+00 0.  1.
<mgrwt>
<rscale>  0 0.79416959E+02</rscale>
<asrwt>0</asrwt>
<pdfrwt beam="1">  1        1 0.22789884E-02 0.79416959E+02</pdfrwt>
<pdfrwt beam="2">  1       -2 0.16375618E-01 0.79416959E+02</pdfrwt>
<totfact> 0.10643834E+05</totfact>
</mgrwt>
</event>
<event>
 8    1  0.1319619E-020  0.7894674E+02  0.7818608E-02  0.1332067E+00
         -2   -1    0    0    0  501 -0.00000000000E+00  0.00000000000E+00  0.33672732066E+02  0.33672732163E+02  0.25500000000E-02 0.  1.
          1   -1    0    0  501    0  0.00000000000E+00 -0.00000000000E+00 -0.46273250350E+02  0.46273250624E+02  0.50400000000E-02 0. -1.
        -24    2    1    2    0    0  0.00000000000E+00  0.00000000000E+00 -0.12600518284E+02  0.79945982787E+02  0.78946735859E+02 0.  0.
         66    2    3    3    0    0  0.26977612366E+02 -0.11375130666E+02  0.20468126218E+02  0.35778895722E+02  0.20000053992E+01 0.  0.
         13    1    3    3    0    0 -0.26977612366E+02  0.11375130666E+02 -0.33068644502E+02  0.44167087065E+02  0.10566000000E+00 0. -1.
         13    1    4    4    0    0  0.78516309874E+01 -0.30011854020E+01  0.50561371142E+01  0.98097354467E+01  0.10566000000E+00 0. -1.
        -13    1    4    4    0    0  0.68871548497E+01 -0.31506962294E+01  0.50455692244E+01  0.91010285950E+01  0.10566000000E+00 0.  1.
         14    1    4    4    0    0  0.12238826529E+02 -0.52232490342E+01  0.10366419879E+02  0.16868131680E+02  0.00000000000E+00 0. -1.
<mgrwt>
<rscale>  0 0.78946736E+02</rscale>
<asrwt>0</asrwt>
<pdfrwt beam="1">  1        1 0.71189616E-02 0.78946736E+02</pdfrwt>
<pdfrwt beam="2">  1       -2 0.51804203E-02 0.78946736E+02</pdfrwt>
<totfact> 0.13486873E+05</totfact>
</mgrwt>
</event>
<event>
 8    1  0.1319619E-020  0.8149696E+02  0.7818608E-02  0.1324856E+00
         -2   -1    0    0    0  501 -0.00000000000E+00  0.00000000000E+00  0.15435465850E+02  0.15435466061E+02  0.25500000000E-02 0.  1.
          1   -1    0    0  501    0  0.00000000000E+00 -0.00000000000E+00 -0.10757294218E+03  0.10757294230E+03  0.50400000000E-02 0. -1.
        -24    2    1    2    0    0  0.35527136788E-14 -0.35527136788E-14 -0.92137476329E+02  0.12300840836E+03  0.81496956890E+02 0.  0.
         66    2    3    3    0    0 -0.22364972943E+02  0.25310611835E+02 -0.11756698160E+02  0.35819534358E+02  0.20000009547E+01 0.  0.
         13    1    3    3    0    0  0.22364972943E+02 -0.25310611835E+02 -0.80380778169E+02  0.87188873999E+02  0.10566000000E+00 0. -1.
         13    1    4    4    0    0 -0.11396344528E+02  0.12030779272E+02 -0.57792968008E+01  0.17550719474E+02  0.10566000000E+00 0. -1.
        -13    1    4    4    0    0 -0.69813236883E+01  0.77383385514E+01 -0.32550520119E+01  0.10919125039E+02  0.10566000000E+00 0.  1.
        -14    1    4    4    0    0 -0.39873047272E+01  0.55414940111E+01 -0.27223493476E+01  0.73496898460E+01  0.00000000000E+00 0.  1.
<mgrwt>
<rscale>  0 0.81496957E+02</rscale>
<asrwt>0</asrwt>
<pdfrwt beam="1">  1        1 0.16549683E-01 0.81496957E+02</pdfrwt>
<pdfrwt beam="2">  1       -2 0.23746871E-02 0.81496957E+02</pdfrwt>
<totfact> 0.14155635E+05</totfact>
</mgrwt>
</event>
<event>
 8    1  0.1319619E-020  0.7995468E+02  0.7818608E-02  0.1329180E+00
          1   -1    0    0  501    0  0.00000000000E+00  0.00000000000E+00  0.17572578441E+01  0.17572650717E+01  0.50400000000E-02 0. -1.
         -2   -1    0    0    0  501 -0.00000000000E+00 -0.00000000000E+00 -0.90947639719E+03  0.90947639720E+03  0.25500000000E-02 0.  1.
        -24    2    1    2    0    0  0.00000000000E+00  0.35527136788E-14 -0.90771913935E+03  0.91123366227E+03  0.79954682856E+02 0.  0.
         66    2    3    3    0    0 -0.45338185189E+01 -0.31589270852E+02 -0.72808188880E+03  0.72878369517E+03  0.20000030046E+01 0.  0.
         13    1    3    3    0    0  0.45338185189E+01  0.31589270852E+02 -0.17963725055E+03  0.18244996709E+03  0.10566000000E+00 0. -1.
         13    1    4    4    0    0 -0.15785674606E+01 -0.95134189897E+01 -0.23770048395E+03  0.23789604505E+03  0.10566000000E+00 0. -1.
        -13    1    4    4    0    0 -0.91862933064E+00 -0.45884427332E+01 -0.10041724857E+03  0.10052627846E+03  0.10566000000E+00 0.  1.
         14    1    4    4    0    0 -0.20366217276E+01 -0.17487409129E+02 -0.38996415628E+03  0.39036137166E+03  0.00000000000E+00 0. -1.
<mgrwt>
<rscale>  0 0.79954683E+02</rscale>
<asrwt>0</asrwt>
<pdfrwt beam="1">  1        1 0.27034864E-03 0.79954683E+02</pdfrwt>
<pdfrwt beam="2">  1       -2 0.13991907E+00 0.79954683E+02</pdfrwt>
<totfact> 0.29071868E+04</totfact>
</mgrwt>
</event>
<event>
 8    1  0.1319619E-020  0.7611286E+02  0.7818608E-02  0.1340459E+00
         -2   -1    0    0    0  501 -0.00000000000E+00  0.00000000000E+00  0.15681221275E+03  0.15681221277E+03  0.25500000000E-02 0.  1.
          1   -1    0    0  501    0  0.00000000000E+00 -0.00000000000E+00 -0.92358360890E+01  0.92358374641E+01  0.50400000000E-02 0. -1.
        -24    2    1    2    0    0 -0.35527136788E-14 -0.88817841970E-15  0.14757637666E+03  0.16604805024E+03  0.76112863817E+02 0.  0.
         66    2    3    3    0    0  0.19465965486E+02  0.79330963252E+01  0.14297995381E+03  0.14453070615E+03  0.19999997906E+01 0.  0.
         13    1    3    3    0    0 -0.19465965486E+02 -0.79330963252E+01  0.45964228578E+01  0.21517344091E+02  0.10566000000E+00 0. -1.
         13    1    4    4    0    0  0.70806327932E+00  0.31350276255E+00  0.36820655342E+01  0.37640946088E+01  0.10566000000E+00 0. -1.
        -13    1    4    4    0    0  0.16344907020E+02  0.65689337666E+01  0.12375719119E+03  0.12500464156E+03  0.10566000000E+00 0.  1.
        -14    1    4    4    0    0  0.24129951869E+01  0.10506597961E+01  0.15540697083E+02  0.15761969979E+02  0.00000000000E+00 0.  1.
<mgrwt>
<rscale>  0 0.76112864E+02</rscale>
<asrwt>0</asrwt>
<pdfrwt beam="1">  1        1 0.14208981E-02 0.76112864E+02</pdfrwt>
<pdfrwt beam="2">  1       -2 0.24124953E-01 0.76112864E+02</pdfrwt>
<totfact> 0.10584204E+05</totfact>
</mgrwt>
</event>
<event>
 8    1  0.1319619E-020  0.7914192E+02  0.7818608E-02  0.1331504E+00
         -2   -1    0    0    0  501 -0.00000000000E+00  0.00000000000E+00  0.22894273111E+02  0.22894273253E+02  0.25500000000E-02 0.  1.
          1   -1    0    0  501    0  0.00000000000E+00 -0.00000000000E+00 -0.68395304363E+02  0.68395304548E+02  0.50400000000E-02 0. -1.
        -24    2    1    2    0    0 -0.35527136788E-14  0.00000000000E+00 -0.45501031252E+02  0.91289577801E+02  0.79141917908E+02 0.  0.
         66    2    3    3    0    0  0.24486774881E+02 -0.28121172045E+02 -0.75733165432E+01  0.38101936678E+02  0.19999984748E+01 0.  0.
         13    1    3    3    0    0 -0.24486774881E+02  0.28121172045E+02 -0.37927714708E+02  0.53187641123E+02  0.10566000000E+00 0. -1.
         13    1    4    4    0    0  0.72577299049E+01 -0.83568934285E+01 -0.14712132706E+01  0.11166375584E+02  0.10566000000E+00 0. -1.
        -13    1    4    4    0    0  0.88906110890E+00 -0.79557664060E+00 -0.22020203582E+00  0.12177950643E+01  0.10566000000E+00 0.  1.
        -14    1    4    4    0    0  0.16339983867E+02 -0.18968701975E+02 -0.58819012368E+01  0.25717766030E+02  0.00000000000E+00 0.  1.
<mgrwt>
<rscale>  0 0.79141918E+02</rscale>
<asrwt>0</asrwt>
<pdfrwt beam="1">  1        1 0.10522354E-01 0.79141918E+02</pdfrwt>
<pdfrwt beam="2">  1       -2 0.35221959E-02 0.79141918E+02</pdfrwt>
<totfact> 0.14234088E+05</totfact>
</mgrwt>
</event>
<event>
 8    1  0.1393240E-020  0.8376615E+02  0.7818608E-02  0.1318691E+00
          1   -1    0    0  501    0  0.00000000000E+00  0.00000000000E+00  0.29968583685E+02  0.29968584109E+02  0.50400000000E-02 0. -1.
         -2   -1    0    0    0  501 -0.00000000000E+00 -0.00000000000E+00 -0.58534360803E+02  0.58534360859E+02  0.25500000000E-02 0.  1.
        -24    2    1    2    0    0  0.00000000000E+00  0.88817841970E-15 -0.28565777118E+02  0.88502944967E+02  0.83766148566E+02 0.  0.
         66    2    3    3    0    0 -0.11353993565E+02 -0.64953984087E+01 -0.56302352536E+02  0.57836478749E+02  0.20000006452E+01 0.  0.
         13    1    3    3    0    0  0.11353993565E+02  0.64953984087E+01  0.27736575418E+02  0.30666466218E+02  0.10566000000E+00 0. -1.
         13    1    4    4    0    0 -0.47005472344E+01 -0.22834659619E+01 -0.21565118981E+02  0.22189521892E+02  0.10566000000E+00 0. -1.
        -13    1    4    4    0    0 -0.61413292174E+01 -0.34177786567E+01 -0.29564185442E+02  0.30388309601E+02  0.10566000000E+00 0.  1.
         14    1    4    4    0    0 -0.51211711275E+00 -0.79415379016E+00 -0.51730481135E+01  0.52586472561E+01  0.00000000000E+00 0. -1.
<mgrwt>
<rscale>  0 0.83766149E+02</rscale>
<asrwt>0</asrwt>
<pdfrwt beam="1">  1        1 0.46105514E-02 0.83766149E+02</pdfrwt>
<pdfrwt beam="2">  1       -2 0.90052863E-02 0.83766149E+02</pdfrwt>
<totfact> 0.10587597E+05</totfact>
</mgrwt>
</event>
<event>
 8    1  0.1319619E-020  0.7908957E+02  0.7818608E-02  0.1331655E+00
         -2   -1    0    0    0  501 -0.00000000000E+00  0.00000000000E+00  0.16159160319E+03  0.16159160321E+03  0.25500000000E-02 0.  1.
          1   -1    0    0  501    0  0.00000000000E+00 -0.00000000000E+00 -0.96774204359E+01  0.96774217483E+01  0.50400000000E-02 0. -1.
        -24    2    1    2    0    0  0.00000000000E+00  0.00000000000E+00  0.15191418276E+03  0.17126902496E+03  0.79089569404E+02 0.  0.
         66    2    3    3    0    0 -0.32978016862E+02 -0.13640508687E+02  0.11276637345E+03  0.11829568062E+03  0.19999995547E+01 0.  0.
         13    1    3    3    0    0  0.32978016862E+02  0.13640508687E+02  0.39147809304E+02  0.52973344341E+02  0.10566000000E+00 0. -1.
         13    1    4    4    0    0 -0.96802602827E+01 -0.44967663518E+01  0.33331360731E+02  0.34998844537E+02  0.10566000000E+00 0. -1.
        -13    1    4    4    0    0 -0.19433865479E+02 -0.81279962391E+01  0.65974750272E+02  0.69256178698E+02  0.10566000000E+00 0.  1.
         14    1    4    4    0    0 -0.38638910998E+01 -0.10157460960E+01  0.13460262452E+02  0.14040657386E+02  0.00000000000E+00 0. -1.
<mgrwt>
<rscale>  0 0.79089569E+02</rscale>
<asrwt>0</asrwt>
<pdfrwt beam="1">  1        1 0.14888340E-02 0.79089569E+02</pdfrwt>
<pdfrwt beam="2">  1       -2 0.24860247E-01 0.79089569E+02</pdfrwt>
<totfact> 0.94922133E+04</totfact>
</mgrwt>
</event>
<event>
 8    1  0.1319619E-020  0.7935379E+02  0.7818608E-02  0.1330895E+00
          1   -1    0    0  501    0  0.00000000000E+00  0.00000000000E+00  0.35914104292E+01  0.35914139657E+01  0.50400000000E-02 0. -1.
         -2   -1    0    0    0  501 -0.00000000000E+00 -0.00000000000E+00 -0.43833897437E+03  0.43833897437E+03  0.25500000000E-02 0.  1.
        -24    2    1    2    0    0  0.71054273576E-14  0.00000000000E+00 -0.43474756394E+03  0.44193038834E+03  0.79353788748E+02 0.  0.
         66    2    3    3    0    0 -0.36892841823E+02 -0.68623719191E+01 -0.28884770499E+03  0.29128194350E+03  0.20000020340E+01 0.  0.
         13    1    3    3    0    0  0.36892841823E+02  0.68623719191E+01 -0.14589985895E+03  0.15064844484E+03  0.10566000000E+00 0. -1.
         13    1    4    4    0    0 -0.11417681405E+02 -0.18392378523E+01 -0.89197240648E+02  0.89943900003E+02  0.10566000000E+00 0. -1.
        -13    1    4    4    0    0 -0.18102809922E+02 -0.41149555984E+01 -0.14613711034E+03  0.14731161111E+03  0.10566000000E+00 0.  1.
         14    1    4    4    0    0 -0.73723504960E+01 -0.90817846839E+00 -0.53513354001E+02  0.54026432386E+02  0.00000000000E+00 0. -1.
<mgrwt>
<rscale>  0 0.79353789E+02</rscale>
<asrwt>0</asrwt>
<pdfrwt beam="1">  1        1 0.55252530E-03 0.79353789E+02</pdfrwt>
<pdfrwt beam="2">  1       -2 0.67436723E-01 0.79353789E+02</pdfrwt>
<totfact> 0.56685158E+04</totfact>
</mgrwt>
</event>
<event>
 8    1  0.1319619E-020  0.8385346E+02  0.7818608E-02  0.1318458E+00
          1   -1    0    0  501    0  0.00000000000E+00  0.00000000000E+00  0.17325135867E+03  0.17325135875E+03  0.50400000000E-02 0. -1.
         -2   -1    0    0    0  501 -0.00000000000E+00 -0.00000000000E+00 -0.10146244011E+02  0.10146244332E+02  0.25500000000E-02 0.  1.
        -24    2    1    2    0    0  0.00000000000E+00  0.00000000000E+00  0.16310511466E+03  0.18339760308E+03  0.83853457806E+02 0.  0.
         66    2    3    3    0    0  0.29705420514E+02 -0.27541389456E+02  0.58154212155E+02  0.70900299812E+02  0.19999952550E+01 0.  0.
         13    1    3    3    0    0 -0.29705420514E+02  0.27541389456E+02  0.10495090251E+03  0.11249730327E+03  0.10566000000E+00 0. -1.
         13    1    4    4    0    0  0.95688322857E+01 -0.95625008689E+01  0.19261558339E+02  0.23537688244E+02  0.10566000000E+00 0. -1.
        -13    1    4    4    0    0  0.14561730069E+02 -0.12497325664E+02  0.28474269103E+02  0.34336894099E+02  0.10566000000E+00 0.  1.
        -14    1    4    4    0    0  0.55748581592E+01 -0.54815629230E+01  0.10418384712E+02  0.13025717469E+02  0.00000000000E+00 0.  1.
<mgrwt>
<rscale>  0 0.83853458E+02</rscale>
<asrwt>0</asrwt>
<pdfrwt beam="1">  1        1 0.26654055E-01 0.83853458E+02</pdfrwt>
<pdfrwt beam="2">  1       -2 0.15609607E-02 0.83853458E+02</pdfrwt>
<totfact> 0.14304980E+05</totfact>
</mgrwt>
</event>
<event>
 8    1  0.1319619E-020  0.8037127E+02  0.7818608E-02  0.1328001E+00
          1   -1    0    0  501    0  0.00000000000E+00  0.00000000000E+00  0.11245239747E+03  0.11245239758E+03  0.50400000000E-02 0. -1.
         -2   -1    0    0    0  501 -0.00000000000E+00 -0.00000000000E+00 -0.14360611928E+02  0.14360612155E+02  0.25500000000E-02 0.  1.
        -24    2    1    2    0    0  0.00000000000E+00  0.00000000000E+00  0.98091785538E+02  0.12681300973E+03  0.80371270039E+02 0.  0.
         66    2    3    3    0    0 -0.15290584855E+02  0.10320562348E+02 -0.72101397651E+01  0.19907338093E+02  0.20000005284E+01 0.  0.
         13    1    3    3    0    0  0.15290584855E+02 -0.10320562348E+02  0.10530192530E+03  0.10690567164E+03  0.10566000000E+00 0. -1.
         13    1    4    4    0    0 -0.44616047387E+01  0.31300567098E+01 -0.23133270239E+01  0.59216397903E+01  0.10566000000E+00 0. -1.
        -13    1    4    4    0    0 -0.10113380412E+02  0.70230051097E+01 -0.48957431132E+01  0.13250755782E+02  0.10566000000E+00 0.  1.
        -14    1    4    4    0    0 -0.71559970465E+00  0.16750052846E+00 -0.10696279241E-02  0.73494252050E+00  0.00000000000E+00 0.  1.
<mgrwt>
<rscale>  0 0.80371270E+02</rscale>
<asrwt>0</asrwt>
<pdfrwt beam="1">  1        1 0.17300369E-01 0.80371270E+02</pdfrwt>
<pdfrwt beam="2">  1       -2 0.22093249E-02 0.80371270E+02</pdfrwt>
<totfact> 0.14810128E+05</totfact>
</mgrwt>
</event>
<event>
 8    1  0.1319619E-020  0.7747265E+02  0.7818608E-02  0.1336381E+00
         -2   -1    0    0    0  501 -0.00000000000E+00  0.00000000000E+00  0.11048113826E+02  0.11048114120E+02  0.25500000000E-02 0.  1.
          1   -1    0    0  501    0  0.00000000000E+00 -0.00000000000E+00 -0.13581528923E+03  0.13581528932E+03  0.50400000000E-02 0. -1.
        -24    2    1    2    0    0  0.00000000000E+00  0.00000000000E+00 -0.12476717541E+03  0.14686340344E+03  0.77472648160E+02 0.  0.
         66    2    3    3    0    0 -0.12190414634E+02 -0.26817464069E+02 -0.14816835045E+02  0.33035150812E+02  0.20000000938E+01 0.  0.
         13    1    3    3    0    0  0.12190414634E+02  0.26817464069E+02 -0.10995034036E+03  0.11382825263E+03  0.10566000000E+00 0. -1.
         13    1    4    4    0    0 -0.31796930822E+01 -0.80767012081E+01 -0.45261009747E+01  0.97898061559E+01  0.10566000000E+00 0. -1.
        -13    1    4    4    0    0 -0.12126074239E+01 -0.37116264403E+01 -0.17226472024E+01  0.42691058802E+01  0.10566000000E+00 0.  1.
        -14    1    4    4    0    0 -0.77981141278E+01 -0.15029136421E+02 -0.85680868674E+01  0.18976238776E+02  0.00000000000E+00 0.  1.
<mgrwt>
<rscale>  0 0.77472648E+02</rscale>
<asrwt>0</asrwt>
<pdfrwt beam="1">  1        1 0.20894659E-01 0.77472648E+02</pdfrwt>
<pdfrwt beam="2">  1       -2 0.16997099E-02 0.77472648E+02</pdfrwt>
<totfact> 0.16894030E+05</totfact>
</mgrwt>
</event>
<event>
 8    1  0.1319619E-020  0.7916664E+02  0.7818608E-02  0.1331433E+00
         -2   -1    0    0    0  501 -0.00000000000E+00  0.00000000000E+00  0.73405524717E+02  0.73405524761E+02  0.25500000000E-02 0.  1.
          1   -1    0    0  501    0  0.00000000000E+00 -0.00000000000E+00 -0.21344975611E+02  0.21344976206E+02  0.50400000000E-02 0. -1.
        -24    2    1    2    0    0  0.00000000000E+00  0.00000000000E+00  0.52060549106E+02  0.94750500967E+02  0.79166638557E+02 0.  0.
         66    2    3    3    0    0 -0.86093977907E+01  0.17828762333E+02  0.67035161953E+02  0.69926385865E+02  0.20000013783E+01 0.  0.
         13    1    3    3    0    0  0.86093977907E+01 -0.17828762333E+02 -0.14974612847E+02  0.24824115102E+02  0.10566000000E+00 0. -1.
         13    1    4    4    0    0 -0.17281020340E+01  0.49413764657E+01  0.16104873323E+02  0.16934628629E+02  0.10566000000E+00 0. -1.
        -13    1    4    4    0    0 -0.14466746590E+01  0.30181247482E+01  0.10504222344E+02  0.11025053091E+02  0.10566000000E+00 0.  1.
         14    1    4    4    0    0 -0.54346210977E+01  0.98692611193E+01  0.40426066286E+02  0.41966704146E+02  0.00000000000E+00 0. -1.
<mgrwt>
<rscale>  0 0.79166639E+02</rscale>
<asrwt>0</asrwt>
<pdfrwt beam="1">  1        1 0.32838425E-02 0.79166639E+02</pdfrwt>
<pdfrwt beam="2">  1       -2 0.11293157E-01 0.79166639E+02</pdfrwt>
<totfact> 0.11687745E+05</totfact>
</mgrwt>
</event>
<event>
 8    1  0.1319619E-020  0.7986417E+02  0.7818608E-02  0.1329437E+00
         -2   -1    0    0    0  501 -0.00000000000E+00  0.00000000000E+00  0.61476817151E+02  0.61476817204E+02  0.25500000000E-02 0.  1.
          1   -1    0    0  501    0  0.00000000000E+00 -0.00000000000E+00 -0.25937764376E+02  0.25937764866E+02  0.50400000000E-02 0. -1.
        -24    2    1    2    0    0  0.17763568394E-14  0.00000000000E+00  0.35539052774E+02  0.87414582069E+02  0.79864165220E+02 0.  0.
         66    2    3    3    0    0 -0.91119449143E+01 -0.92521285911E+01  0.59083229608E+02  0.60526501989E+02  0.19999996273E+01 0.  0.
         13    1    3    3    0    0  0.91119449143E+01  0.92521285911E+01 -0.23544176834E+02  0.26888080080E+02  0.10566000000E+00 0. -1.
         13    1    4    4    0    0 -0.50548573338E+00 -0.88620339195E+00  0.31560028570E+01  0.33184921798E+01  0.10566000000E+00 0. -1.
        -13    1    4    4    0    0 -0.30878753044E+01 -0.25044333260E+01  0.17428036650E+02  0.17876095370E+02  0.10566000000E+00 0.  1.
         14    1    4    4    0    0 -0.55185838766E+01 -0.58614918732E+01  0.38499190101E+02  0.39331914439E+02  0.00000000000E+00 0. -1.
<mgrwt>
<rscale>  0 0.79864165E+02</rscale>
<asrwt>0</asrwt>
<pdfrwt beam="1">  1        1 0.39904253E-02 0.79864165E+02</pdfrwt>
<pdfrwt beam="2">  1       -2 0.94579719E-02 0.79864165E+02</pdfrwt>
<totfact> 0.11835876E+05</totfact>
</mgrwt>
</event>
<event>
 8    1  0.1319619E-020  0.7940584E+02  0.7818608E-02  0.1330746E+00
         -2   -1    0    0    0  501 -0.00000000000E+00  0.00000000000E+00  0.51377823106E+02  0.51377823169E+02  0.25500000000E-02 0.  1.
          1   -1    0    0  501    0  0.00000000000E+00 -0.00000000000E+00 -0.30680979988E+02  0.30680980402E+02  0.50400000000E-02 0. -1.
        -24    2    1    2    0    0  0.35527136788E-14  0.00000000000E+00  0.20696843118E+02  0.82058803571E+02  0.79405843164E+02 0.  0.
         66    2    3    3    0    0 -0.28247697232E+02 -0.27085336568E+02  0.35966604373E+01  0.39350780114E+02  0.20000183476E+01 0.  0.
         13    1    3    3    0    0  0.28247697232E+02  0.27085336568E+02  0.17100182680E+02  0.42708023457E+02  0.10566000000E+00 0. -1.
         13    1    4    4    0    0 -0.46256130431E+00 -0.31171231335E+00  0.19986529499E+00  0.60186185980E+00  0.10566000000E+00 0. -1.
        -13    1    4    4    0    0 -0.97577958524E+01 -0.97269050626E+01  0.16515198195E+01  0.13876813170E+02  0.10566000000E+00 0.  1.
        -14    1    4    4    0    0 -0.18027340075E+02 -0.17046719192E+02  0.17452753229E+01  0.24872105085E+02  0.00000000000E+00 0.  1.
<mgrwt>
<rscale>  0 0.79405843E+02</rscale>
<asrwt>0</asrwt>
<pdfrwt beam="1">  1        1 0.47201508E-02 0.79405843E+02</pdfrwt>
<pdfrwt beam="2">  1       -2 0.79042805E-02 0.79405843E+02</pdfrwt>
<totfact> 0.12405087E+05</totfact>
</mgrwt>
</event>
<event>
 8    1  0.1319619E-020  0.8010364E+02  0.7818608E-02  0.1328758E+00
          1   -1    0    0  501    0  0.00000000000E+00  0.00000000000E+00  0.48783239478E+01  0.48783265514E+01  0.50400000000E-02 0. -1.
         -2   -1    0    0    0  501 -0.00000000000E+00 -0.00000000000E+00 -0.32883176641E+03  0.32883176642E+03  0.25500000000E-02 0.  1.
        -24    2    1    2    0    0  0.00000000000E+00 -0.88817841970E-15 -0.32395344246E+03  0.33371009297E+03  0.80103640790E+02 0.  0.
         66    2    3    3    0    0 -0.19749155926E+02  0.44912294819E+01 -0.30590587613E+03  0.30658213476E+03  0.20000006080E+01 0.  0.
         13    1    3    3    0    0  0.19749155926E+02 -0.44912294819E+01 -0.18047566332E+02  0.27127958209E+02  0.10566000000E+00 0. -1.
         13    1    4    4    0    0 -0.27804562340E+01  0.13079134645E+01 -0.48488398894E+02  0.48585775345E+02  0.10566000000E+00 0. -1.
        -13    1    4    4    0    0 -0.15089868928E+02  0.28760733470E+01 -0.22655442348E+03  0.22707464391E+03  0.10566000000E+00 0.  1.
        -14    1    4    4    0    0 -0.18788307643E+01  0.30724267039E+00 -0.30863053754E+02  0.30921715511E+02  0.00000000000E+00 0.  1.
<mgrwt>
<rscale>  0 0.80103641E+02</rscale>
<asrwt>0</asrwt>
<pdfrwt beam="1">  1        1 0.75051184E-03 0.80103641E+02</pdfrwt>
<pdfrwt beam="2">  1       -2 0.50589485E-01 0.80103641E+02</pdfrwt>
<totfact> 0.66515558E+04</totfact>
</mgrwt>
</event>
<event>
 8    1  0.1319619E-020  0.8108105E+02  0.7818608E-02  0.1326011E+00
          1   -1    0    0  501    0  0.00000000000E+00  0.00000000000E+00  0.15767856532E+02  0.15767857338E+02  0.50400000000E-02 0. -1.
         -2   -1    0    0    0  501 -0.00000000000E+00 -0.00000000000E+00 -0.10423320560E+03  0.10423320563E+03  0.25500000000E-02 0.  1.
        -24    2    1    2    0    0  0.00000000000E+00  0.00000000000E+00 -0.88465349068E+02  0.12000106297E+03  0.81081052830E+02 0.  0.
         66    2    3    3    0    0  0.35973246960E+02 -0.15057298296E+02 -0.60521661654E+02  0.72025469600E+02  0.20000032403E+01 0.  0.
         13    1    3    3    0    0 -0.35973246960E+02  0.15057298296E+02 -0.27943687414E+02  0.47975593369E+02  0.10566000000E+00 0. -1.
         13    1    4    4    0    0  0.27269570700E+02 -0.11340844367E+02 -0.46946070434E+02  0.55463401720E+02  0.10566000000E+00 0. -1.
        -13    1    4    4    0    0  0.14812910546E+01 -0.63876719478E+00 -0.19344246628E+01  0.25209937582E+01  0.10566000000E+00 0.  1.
        -14    1    4    4    0    0  0.72223852051E+01 -0.30776867349E+01 -0.11641166558E+02  0.14041074122E+02  0.00000000000E+00 0.  1.
<mgrwt>
<rscale>  0 0.81081053E+02</rscale>
<asrwt>0</asrwt>
<pdfrwt beam="1">  1        1 0.24258242E-02 0.81081053E+02</pdfrwt>
<pdfrwt beam="2">  1       -2 0.16035877E-01 0.81081053E+02</pdfrwt>
<totfact> 0.10147589E+05</totfact>
</mgrwt>
</event>
<event>
 8    1  0.1319619E-020  0.7894725E+02  0.7818608E-02  0.1332066E+00
          1   -1    0    0  501    0  0.00000000000E+00  0.00000000000E+00  0.14410836095E+02  0.14410836977E+02  0.50400000000E-02 0. -1.
         -2   -1    0    0    0  501 -0.00000000000E+00 -0.00000000000E+00 -0.10812467675E+03  0.10812467678E+03  0.25500000000E-02 0.  1.
        -24    2    1    2    0    0  0.00000000000E+00  0.00000000000E+00 -0.93713840651E+02  0.12253551375E+03  0.78947249484E+02 0.  0.
         66    2    3    3    0    0  0.22401953122E+02 -0.21687505735E+01 -0.97171992799E+02  0.99764458375E+02  0.19999968813E+01 0.  0.
         13    1    3    3    0    0 -0.22401953122E+02  0.21687505735E+01  0.34581521480E+01  0.22771055378E+02  0.10566000000E+00 0. -1.
         13    1    4    4    0    0  0.10554222534E+02 -0.10255748174E+01 -0.43736180767E+02  0.45003423082E+02  0.10566000000E+00 0. -1.
        -13    1    4    4    0    0  0.10676121306E+02 -0.13776351048E+01 -0.47240774247E+02  0.48451825147E+02  0.10566000000E+00 0.  1.
        -14    1    4    4    0    0  0.11716092824E+01  0.23445934882E+00 -0.61950377849E+01  0.63092101449E+01  0.00000000000E+00 0.  1.
<mgrwt>
<rscale>  0 0.78947249E+02</rscale>
<asrwt>0</asrwt>
<pdfrwt beam="1">  1        1 0.22170519E-02 0.78947249E+02</pdfrwt>
<pdfrwt beam="2">  1       -2 0.16634565E-01 0.78947249E+02</pdfrwt>
<totfact> 0.10762894E+05</totfact>
</mgrwt>
</event>
<event>
 8    1  0.1319619E-020  0.8092452E+02  0.7818608E-02  0.1326448E+00
          1   -1    0    0  501    0  0.00000000000E+00  0.00000000000E+00  0.74770988581E+02  0.74770988751E+02  0.50400000000E-02 0. -1.
         -2   -1    0    0    0  501 -0.00000000000E+00 -0.00000000000E+00 -0.21896118185E+02  0.21896118333E+02  0.25500000000E-02 0.  1.
        -24    2    1    2    0    0 -0.35527136788E-14 -0.71054273576E-14  0.52874870397E+02  0.96667107084E+02  0.80924518365E+02 0.  0.
         66    2    3    3    0    0 -0.19086327513E+02  0.32817894152E+02  0.98204321775E+01  0.39265034919E+02  0.20000011458E+01 0.  0.
         13    1    3    3    0    0  0.19086327513E+02 -0.32817894152E+02  0.43054438219E+02  0.57402072165E+02  0.10566000000E+00 0. -1.
         13    1    4    4    0    0 -0.13950931896E+01  0.28832632487E+01  0.74891578561E+00  0.32911291160E+01  0.10566000000E+00 0. -1.
        -13    1    4    4    0    0 -0.46031365705E+00  0.12342293416E+01  0.15102637350E+00  0.13301066617E+01  0.10566000000E+00 0.  1.
         14    1    4    4    0    0 -0.17230920666E+02  0.28700401561E+02  0.89204900183E+01  0.34643799141E+02  0.00000000000E+00 0. -1.
<mgrwt>
<rscale>  0 0.80924518E+02</rscale>
<asrwt>0</asrwt>
<pdfrwt beam="1">  1        1 0.11503229E-01 0.80924518E+02</pdfrwt>
<pdfrwt beam="2">  1       -2 0.33686337E-02 0.80924518E+02</pdfrwt>
<totfact> 0.13583339E+05</totfact>
</mgrwt>
</event>
<event>
 8    1  0.1319619E-020  0.8276255E+02  0.7818608E-02  0.1321390E+00
          1   -1    0    0  501    0  0.00000000000E+00  0.00000000000E+00  0.10193570894E+03  0.10193570906E+03  0.50400000000E-02 0. -1.
         -2   -1    0    0    0  501 -0.00000000000E+00 -0.00000000000E+00 -0.16798922077E+02  0.16798922271E+02  0.25500000000E-02 0.  1.
        -24    2    1    2    0    0  0.00000000000E+00  0.17763568394E-14  0.85136786859E+02  0.11873463133E+03  0.82762553131E+02 0.  0.
         66    2    3    3    0    0 -0.38086589414E+02 -0.15911878376E+02  0.38899466560E+02  0.56753367072E+02  0.20000021867E+01 0.  0.
         13    1    3    3    0    0  0.38086589414E+02  0.15911878376E+02  0.46237320300E+02  0.61981264260E+02  0.10566000000E+00 0. -1.
         13    1    4    4    0    0 -0.17364802467E+02 -0.73994266033E+01  0.18893218816E+02  0.26706792395E+02  0.10566000000E+00 0. -1.
        -13    1    4    4    0    0 -0.16014005851E+02 -0.68567724493E+01  0.15245029056E+02  0.23149207044E+02  0.10566000000E+00 0.  1.
        -14    1    4    4    0    0 -0.47077810962E+01 -0.16556793238E+01  0.47612186880E+01  0.68973676332E+01  0.00000000000E+00 0.  1.
<mgrwt>
<rscale>  0 0.82762553E+02</rscale>
<asrwt>0</asrwt>
<pdfrwt beam="1">  1        1 0.15682417E-01 0.82762553E+02</pdfrwt>
<pdfrwt beam="2">  1       -2 0.25844496E-02 0.82762553E+02</pdfrwt>
<totfact> 0.13451859E+05</totfact>
</mgrwt>
</event>
<event>
 8    1  0.1319619E-020  0.7979848E+02  0.7818608E-02  0.1329624E+00
          1   -1    0    0  501    0  0.00000000000E+00  0.00000000000E+00  0.30147778179E+02  0.30147778600E+02  0.50400000000E-02 0. -1.
         -2   -1    0    0    0  501 -0.00000000000E+00 -0.00000000000E+00 -0.52804867013E+02  0.52804867075E+02  0.25500000000E-02 0.  1.
        -24    2    1    2    0    0  0.35527136788E-14  0.00000000000E+00 -0.22657088834E+02  0.82952645675E+02  0.79798482128E+02 0.  0.
         66    2    3    3    0    0 -0.19634989620E+02  0.19187696948E+02 -0.41396549443E+02  0.49712924263E+02  0.20000003596E+01 0.  0.
         13    1    3    3    0    0  0.19634989620E+02 -0.19187696948E+02  0.18739460609E+02  0.33239721411E+02  0.10566000000E+00 0. -1.
         13    1    4    4    0    0 -0.74837792653E+01  0.77022341711E+01 -0.17762468825E+02  0.20756874190E+02  0.10566000000E+00 0. -1.
        -13    1    4    4    0    0 -0.27661967482E+01  0.28024903982E+01 -0.58679357283E+01  0.70675052620E+01  0.10566000000E+00 0.  1.
         14    1    4    4    0    0 -0.93850136067E+01  0.86829723790E+01 -0.17766144889E+02  0.21888544812E+02  0.00000000000E+00 0. -1.
<mgrwt>
<rscale>  0 0.79798482E+02</rscale>
<asrwt>0</asrwt>
<pdfrwt beam="1">  1        1 0.46381198E-02 0.79798482E+02</pdfrwt>
<pdfrwt beam="2">  1       -2 0.81238257E-02 0.79798482E+02</pdfrwt>
<totfact> 0.12193341E+05</totfact>
</mgrwt>
</event>
<event>
 8    1  0.1319619E-020  0.7983691E+02  0.7818608E-02  0.1329515E+00
          1   -1    0    0  501    0  0.00000000000E+00  0.00000000000E+00  0.83751015601E+02  0.83751015753E+02  0.50400000000E-02 0. -1.
         -2   -1    0    0    0  501 -0.00000000000E+00 -0.00000000000E+00 -0.19026433712E+02  0.19026433883E+02  0.25500000000E-02 0.  1.
        -24    2    1    2    0    0  0.00000000000E+00  0.00000000000E+00  0.64724581889E+02  0.10277744964E+03  0.79836912846E+02 0.  0.
         66    2    3    3    0    0  0.27110704214E+02  0.17952592674E+02  0.26287098505E+01  0.32683267601E+02  0.19999997194E+01 0.  0.
         13    1    3    3    0    0 -0.27110704214E+02 -0.17952592674E+02  0.62095872039E+02  0.70094182034E+02  0.10566000000E+00 0. -1.
         13    1    4    4    0    0  0.18219976702E+01  0.11295039588E+01  0.39490226542E+00  0.21823305290E+01  0.10566000000E+00 0. -1.
        -13    1    4    4    0    0  0.18513004685E+02  0.12407924253E+02  0.23709858463E+01  0.22412511342E+02  0.10566000000E+00 0.  1.
        -14    1    4    4    0    0  0.67757018597E+01  0.44151644621E+01 -0.13717826123E+00  0.80884257303E+01  0.00000000000E+00 0.  1.
<mgrwt>
<rscale>  0 0.79836913E+02</rscale>
<asrwt>0</asrwt>
<pdfrwt beam="1">  1        1 0.12884771E-01 0.79836913E+02</pdfrwt>
<pdfrwt beam="2">  1       -2 0.29271437E-02 0.79836913E+02</pdfrwt>
<totfact> 0.14354215E+05</totfact>
</mgrwt>
</event>
<event>
 8    1  0.1319619E-020  0.7926179E+02  0.7818608E-02  0.1331160E+00
          1   -1    0    0  501    0  0.00000000000E+00  0.00000000000E+00  0.58942511824E+02  0.58942512039E+02  0.50400000000E-02 0. -1.
         -2   -1    0    0    0  501 -0.00000000000E+00 -0.00000000000E+00 -0.26646437489E+02  0.26646437611E+02  0.25500000000E-02 0.  1.
        -24    2    1    2    0    0  0.35527136788E-14  0.00000000000E+00  0.32296074335E+02  0.85588949650E+02  0.79261793348E+02 0.  0.
         66    2    3    3    0    0 -0.20845938879E+02  0.25729418835E+02 -0.73027016157E+01  0.33968891706E+02  0.19999978633E+01 0.  0.
         13    1    3    3    0    0  0.20845938879E+02 -0.25729418835E+02  0.39598775951E+02  0.51620057944E+02  0.10566000000E+00 0. -1.
         13    1    4    4    0    0 -0.89430841888E+00  0.83016065134E+00 -0.24225914673E+00  0.12485222404E+01  0.10566000000E+00 0. -1.
        -13    1    4    4    0    0 -0.71829099960E+01  0.80240971878E+01 -0.18627418259E+01  0.10929835444E+02  0.10566000000E+00 0.  1.
        -14    1    4    4    0    0 -0.12768720465E+02  0.16875160996E+02 -0.51977006431E+01  0.21790534021E+02  0.00000000000E+00 0.  1.
<mgrwt>
<rscale>  0 0.79261793E+02</rscale>
<asrwt>0</asrwt>
<pdfrwt beam="1">  1        1 0.90680788E-02 0.79261793E+02</pdfrwt>
<pdfrwt beam="2">  1       -2 0.40994519E-02 0.79261793E+02</pdfrwt>
<totfact> 0.13850300E+05</totfact>
</mgrwt>
</event>
<event>
 8    1  0.1319619E-020  0.7920751E+02  0.7818608E-02  0.1331316E+00
         -2   -1    0    0    0  501 -0.00000000000E+00  0.00000000000E+00  0.13305124951E+03  0.13305124953E+03  0.25500000000E-02 0.  1.
          1   -1    0    0  501    0  0.00000000000E+00 -0.00000000000E+00 -0.11788368934E+02  0.11788370012E+02  0.50400000000E-02 0. -1.
        -24    2    1    2    0    0  0.00000000000E+00  0.00000000000E+00  0.12126288057E+03  0.14483961954E+03  0.79207507122E+02 0.  0.
         66    2    3    3    0    0  0.13323916293E+02 -0.33526673764E+02  0.90431293845E+02  0.97382665329E+02  0.20000002569E+01 0.  0.
         13    1    3    3    0    0 -0.13323916293E+02  0.33526673764E+02  0.30831586728E+02  0.47456954214E+02  0.10566000000E+00 0. -1.
         13    1    4    4    0    0  0.78238122362E+01 -0.19663683362E+02  0.52041480117E+02  0.56180061393E+02  0.10566000000E+00 0. -1.
        -13    1    4    4    0    0  0.37194002712E+01 -0.80362549916E+01  0.21864533251E+02  0.23589919691E+02  0.10566000000E+00 0.  1.
         14    1    4    4    0    0  0.17807037858E+01 -0.58267354103E+01  0.16525280476E+02  0.17612684245E+02  0.00000000000E+00 0. -1.
<mgrwt>
<rscale>  0 0.79207507E+02</rscale>
<asrwt>0</asrwt>
<pdfrwt beam="1">  1        1 0.18135954E-02 0.79207507E+02</pdfrwt>
<pdfrwt beam="2">  1       -2 0.20469422E-01 0.79207507E+02</pdfrwt>
<totfact> 0.10069205E+05</totfact>
</mgrwt>
</event>
<event>
 8    1  0.1319619E-020  0.7804706E+02  0.7818608E-02  0.1334687E+00
         -2   -1    0    0    0  501 -0.00000000000E+00  0.00000000000E+00  0.24213012628E+02  0.24213012762E+02  0.25500000000E-02 0.  1.
          1   -1    0    0  501    0  0.00000000000E+00 -0.00000000000E+00 -0.62893277280E+02  0.62893277482E+02  0.50400000000E-02 0. -1.
        -24    2    1    2    0    0  0.00000000000E+00  0.00000000000E+00 -0.38680264652E+02  0.87106290244E+02  0.78047055848E+02 0.  0.
         66    2    3    3    0    0  0.99013080382E+01 -0.36714296092E+02 -0.29008957004E+02  0.47869562627E+02  0.20000003109E+01 0.  0.
         13    1    3    3    0    0 -0.99013080382E+01  0.36714296092E+02 -0.96713076480E+01  0.39236727617E+02  0.10566000000E+00 0. -1.
         13    1    4    4    0    0  0.67640570129E+01 -0.27451066117E+02 -0.21351836134E+02  0.35429162685E+02  0.10566000000E+00 0. -1.
        -13    1    4    4    0    0  0.29062608515E+01 -0.85715461877E+01 -0.68403155572E+01  0.11345432435E+02  0.10566000000E+00 0.  1.
         14    1    4    4    0    0  0.23099017372E+00 -0.69168378776E+00 -0.81680531265E+00  0.10949675070E+01  0.00000000000E+00 0. -1.
<mgrwt>
<rscale>  0 0.78047056E+02</rscale>
<asrwt>0</asrwt>
<pdfrwt beam="1">  1        1 0.96758888E-02 0.78047056E+02</pdfrwt>
<pdfrwt beam="2">  1       -2 0.37250789E-02 0.78047056E+02</pdfrwt>
<totfact> 0.14596224E+05</totfact>
</mgrwt>
</event>
<event>
 8    1  0.1656180E-020  0.7962664E+02  0.7818608E-02  0.1330114E+00
         -2   -1    0    0    0  501 -0.00000000000E+00  0.00000000000E+00  0.23118243569E+03  0.23118243570E+03  0.25500000000E-02 0.  1.
          1   -1    0    0  501    0  0.00000000000E+00 -0.00000000000E+00 -0.68564909879E+01  0.68564928403E+01  0.50400000000E-02 0. -1.
        -24    2    1    2    0    0  0.00000000000E+00 -0.71991024253E-16  0.22432594470E+03  0.23803892854E+03  0.79626641497E+02 0.  0.
         66    2    3    3    0    0  0.20879656347E+02 -0.27522474742E-02  0.21348398234E+03  0.21451193620E+03  0.19999999864E+01 0.  0.
         13    1    3    3    0    0 -0.20879656347E+02  0.27522474742E-02  0.10841962358E+02  0.23526992340E+02  0.10566000000E+00 0. -1.
         13    1    4    4    0    0  0.64642506934E+00 -0.19931890582E+00  0.67492114855E+01  0.67838494314E+01  0.10566000000E+00 0. -1.
        -13    1    4    4    0    0  0.34176600271E+01 -0.34357225941E+00  0.31059546528E+02  0.31249080570E+02  0.10566000000E+00 0.  1.
        -14    1    4    4    0    0  0.16815571251E+02  0.54013891776E+00  0.17567522433E+03  0.17647900620E+03  0.00000000000E+00 0.  1.
<mgrwt>
<rscale>  0 0.79626641E+02</rscale>
<asrwt>0</asrwt>
<pdfrwt beam="1">  1        1 0.10548450E-02 0.79626641E+02</pdfrwt>
<pdfrwt beam="2">  1       -2 0.35566527E-01 0.79626641E+02</pdfrwt>
<totfact> 0.80935162E+04</totfact>
</mgrwt>
</event>
<event>
 8    1  0.1319619E-020  0.7876245E+02  0.7818608E-02  0.1332601E+00
         -2   -1    0    0    0  501 -0.00000000000E+00  0.00000000000E+00  0.17256987199E+03  0.17256987201E+03  0.25500000000E-02 0.  1.
          1   -1    0    0  501    0  0.00000000000E+00 -0.00000000000E+00 -0.89869733816E+01  0.89869747949E+01  0.50400000000E-02 0. -1.
        -24    2    1    2    0    0  0.00000000000E+00  0.00000000000E+00  0.16358289861E+03  0.18155684680E+03  0.78762452375E+02 0.  0.
         66    2    3    3    0    0 -0.45083785977E+01 -0.28549777054E+02  0.14341535963E+03  0.14631261266E+03  0.19999999559E+01 0.  0.
         13    1    3    3    0    0  0.45083785977E+01  0.28549777054E+02  0.20167538977E+02  0.35244234136E+02  0.10566000000E+00 0. -1.
         13    1    4    4    0    0 -0.44956755276E+00 -0.34068573401E+01  0.14684282746E+02  0.15081382951E+02  0.10566000000E+00 0. -1.
        -13    1    4    4    0    0 -0.25317407048E+01 -0.16960914400E+02  0.89162159180E+02  0.90796388265E+02  0.10566000000E+00 0.  1.
        -14    1    4    4    0    0 -0.15270703401E+01 -0.81820053138E+01  0.39568917703E+02  0.40434841449E+02  0.00000000000E+00 0.  1.
<mgrwt>
<rscale>  0 0.78762452E+02</rscale>
<asrwt>0</asrwt>
<pdfrwt beam="1">  1        1 0.13826114E-02 0.78762452E+02</pdfrwt>
<pdfrwt beam="2">  1       -2 0.26549211E-01 0.78762452E+02</pdfrwt>
<totfact> 0.93730250E+04</totfact>
</mgrwt>
</event>
<event>
 8    1  0.1543635E-020  0.7207980E+02  0.7818608E-02  0.1353160E+00
          1   -1    0    0  501    0  0.00000000000E+00  0.00000000000E+00  0.86215802691E+02  0.86215802839E+02  0.50400000000E-02 0. -1.
         -2   -1    0    0    0  501 -0.00000000000E+00 -0.00000000000E+00 -0.15065385582E+02  0.15065385797E+02  0.25500000000E-02 0.  1.
        -24    2    1    2    0    0 -0.35527136788E-14  0.00000000000E+00  0.71150417110E+02  0.10128118864E+03  0.72079798256E+02 0.  0.
         66    2    3    3    0    0 -0.19960641214E+02 -0.25532133025E+02  0.13539250551E+02  0.35179942878E+02  0.20000152179E+01 0.  0.
         13    1    3    3    0    0  0.19960641214E+02  0.25532133025E+02  0.57611166559E+02  0.66101245759E+02  0.10566000000E+00 0. -1.
         13    1    4    4    0    0 -0.62972881981E+00 -0.56791792494E+00  0.51458969688E+00  0.99752481057E+00  0.10566000000E+00 0. -1.
        -13    1    4    4    0    0 -0.45956463782E+00 -0.86691314908E+00  0.55703465160E+00  0.11332209419E+01  0.10566000000E+00 0.  1.
        -14    1    4    4    0    0 -0.18871347757E+02 -0.24097301951E+02  0.12467626202E+02  0.33049197125E+02  0.00000000000E+00 0.  1.
<mgrwt>
<rscale>  0 0.72079798E+02</rscale>
<asrwt>0</asrwt>
<pdfrwt beam="1">  1        1 0.13263969E-01 0.72079798E+02</pdfrwt>
<pdfrwt beam="2">  1       -2 0.23177517E-02 0.72079798E+02</pdfrwt>
<totfact> 0.18993738E+05</totfact>
</mgrwt>
</event>
<event>
 8    1  0.1319619E-020  0.8124342E+02  0.7818608E-02  0.1325559E+00
         -2   -1    0    0    0  501 -0.00000000000E+00  0.00000000000E+00  0.27872326627E+03  0.27872326628E+03  0.25500000000E-02 0.  1.
          1   -1    0    0  501    0  0.00000000000E+00 -0.00000000000E+00 -0.59202916944E+01  0.59202938397E+01  0.50400000000E-02 0. -1.
        -24    2    1    2    0    0  0.71054273576E-14  0.00000000000E+00  0.27280297457E+03  0.28464356012E+03  0.81243420542E+02 0.  0.
         66    2    3    3    0    0  0.29373213567E+02 -0.10115370556E+02  0.22804845839E+03  0.23016343274E+03  0.19999996020E+01 0.  0.
         13    1    3    3    0    0 -0.29373213567E+02  0.10115370556E+02  0.44754516181E+02  0.54480127381E+02  0.10566000000E+00 0. -1.
         13    1    4    4    0    0  0.17668492389E+01 -0.57196925504E+00  0.16494229012E+02  0.16598784889E+02  0.10566000000E+00 0. -1.
        -13    1    4    4    0    0  0.54962856483E+01 -0.20854771774E+01  0.39416105296E+02  0.39852213135E+02  0.10566000000E+00 0.  1.
        -14    1    4    4    0    0  0.22110078680E+02 -0.74579241232E+01  0.17213812409E+03  0.17371243472E+03  0.00000000000E+00 0.  1.
<mgrwt>
<rscale>  0 0.81243421E+02</rscale>
<asrwt>0</asrwt>
<pdfrwt beam="1">  1        1 0.91081404E-03 0.81243421E+02</pdfrwt>
<pdfrwt beam="2">  1       -2 0.42880513E-01 0.81243421E+02</pdfrwt>
<totfact> 0.70207671E+04</totfact>
</mgrwt>
</event>
<event>
 8    1  0.1319619E-020  0.8025766E+02  0.7818608E-02  0.1328322E+00
          1   -1    0    0  501    0  0.00000000000E+00  0.00000000000E+00  0.61181860092E+02  0.61181860299E+02  0.50400000000E-02 0. -1.
         -2   -1    0    0    0  501 -0.00000000000E+00 -0.00000000000E+00 -0.26320266976E+02  0.26320267099E+02  0.25500000000E-02 0.  1.
        -24    2    1    2    0    0  0.00000000000E+00  0.00000000000E+00  0.34861593116E+02  0.87502127399E+02  0.80257657733E+02 0.  0.
         66    2    3    3    0    0 -0.48544007903E+01  0.12096373868E+02 -0.23908509679E+02  0.27303924648E+02  0.19999995867E+01 0.  0.
         13    1    3    3    0    0  0.48544007903E+01 -0.12096373868E+02  0.58770102795E+02  0.60198202750E+02  0.10566000000E+00 0. -1.
         13    1    4    4    0    0 -0.73782180647E+00  0.33413073328E+01 -0.65929322532E+01  0.74287707893E+01  0.10566000000E+00 0. -1.
        -13    1    4    4    0    0 -0.28301783368E+01  0.69061660695E+01 -0.14023204322E+02  0.15886046163E+02  0.10566000000E+00 0.  1.
         14    1    4    4    0    0 -0.12864006470E+01  0.18489004654E+01 -0.32923731041E+01  0.39891076962E+01  0.00000000000E+00 0. -1.
<mgrwt>
<rscale>  0 0.80257658E+02</rscale>
<asrwt>0</asrwt>
<pdfrwt beam="1">  1        1 0.94125937E-02 0.80257658E+02</pdfrwt>
<pdfrwt beam="2">  1       -2 0.40492719E-02 0.80257658E+02</pdfrwt>
<totfact> 0.13460124E+05</totfact>
</mgrwt>
</event>
<event>
 8    1  0.1319619E-020  0.7912180E+02  0.7818608E-02  0.1331562E+00
         -2   -1    0    0    0  501 -0.00000000000E+00  0.00000000000E+00  0.16735751257E+03  0.16735751259E+03  0.25500000000E-02 0.  1.
          1   -1    0    0  501    0  0.00000000000E+00 -0.00000000000E+00 -0.93516240831E+01  0.93516254413E+01  0.50400000000E-02 0. -1.
        -24    2    1    2    0    0  0.00000000000E+00 -0.35527136788E-14  0.15800588849E+03  0.17670913803E+03  0.79121796410E+02 0.  0.
         66    2    3    3    0    0  0.77225614026E+01  0.18525718835E+02  0.15512670410E+03  0.15643252392E+03  0.20000004712E+01 0.  0.
         13    1    3    3    0    0 -0.77225614026E+01 -0.18525718835E+02  0.28791843841E+01  0.20276614109E+02  0.10566000000E+00 0. -1.
         13    1    4    4    0    0  0.13312663158E+01  0.28930780590E+01  0.21377828836E+02  0.21613997789E+02  0.10566000000E+00 0. -1.
        -13    1    4    4    0    0 -0.37890612753E-01  0.21327466207E+00  0.21703235890E+01  0.21836644194E+01  0.10566000000E+00 0. -1.
        -14    1    4    4    0    0  0.64291856996E+01  0.15419366114E+02  0.13157855168E+03  0.13263486172E+03  0.00000000000E+00 0.  1.
<mgrwt>
<rscale>  0 0.79121796E+02</rscale>
<asrwt>0</asrwt>
<pdfrwt beam="1">  1        1 0.14387115E-02 0.79121796E+02</pdfrwt>
<pdfrwt beam="2">  1       -2 0.25747311E-01 0.79121796E+02</pdfrwt>
<totfact> 0.93663964E+04</totfact>
</mgrwt>
</event>
<event>
 8    1  0.1319619E-020  0.7747642E+02  0.7818608E-02  0.1336369E+00
          1   -1    0    0  501    0  0.00000000000E+00  0.00000000000E+00  0.32263810532E+02  0.32263810925E+02  0.50400000000E-02 0. -1.
         -2   -1    0    0    0  501 -0.00000000000E+00 -0.00000000000E+00 -0.46511834350E+02  0.46511834420E+02  0.25500000000E-02 0.  1.
        -24    2    1    2    0    0  0.00000000000E+00  0.00000000000E+00 -0.14248023818E+02  0.78775645345E+02  0.77476422974E+02 0.  0.
         66    2    3    3    0    0 -0.16644794506E+02  0.33411666210E+02 -0.17560199075E+02  0.41300716499E+02  0.19999921799E+01 0.  0.
         13    1    3    3    0    0  0.16644794506E+02 -0.33411666210E+02  0.33121752564E+01  0.37474928846E+02  0.10566000000E+00 0. -1.
         13    1    4    4    0    0 -0.68139119562E+01  0.13534656089E+02 -0.70825978379E+01  0.16726944364E+02  0.10566000000E+00 0. -1.
        -13    1    4    4    0    0 -0.93868252210E+01  0.19487549105E+02 -0.10293856938E+02  0.23955202202E+02  0.10566000000E+00 0.  1.
         14    1    4    4    0    0 -0.44405732896E+00  0.38946101585E+00 -0.18374429867E+00  0.61856993264E+00  0.00000000000E+00 0. -1.
<mgrwt>
<rscale>  0 0.77476423E+02</rscale>
<asrwt>0</asrwt>
<pdfrwt beam="1">  1        1 0.49636632E-02 0.77476423E+02</pdfrwt>
<pdfrwt beam="2">  1       -2 0.71556668E-02 0.77476423E+02</pdfrwt>
<totfact> 0.13420879E+05</totfact>
</mgrwt>
</event>
<event>
 8    1  0.1319619E-020  0.7581846E+02  0.7818608E-02  0.1341355E+00
         -2   -1    0    0    0  501 -0.00000000000E+00  0.00000000000E+00  0.44229649927E+02  0.44229650000E+02  0.25500000000E-02 0.  1.
          1   -1    0    0  501    0  0.00000000000E+00 -0.00000000000E+00 -0.32491994240E+02  0.32491994631E+02  0.50400000000E-02 0. -1.
        -24    2    1    2    0    0  0.00000000000E+00  0.35527136788E-14  0.11737655687E+02  0.76721644631E+02  0.75818455496E+02 0.  0.
         66    2    3    3    0    0  0.14509276954E+02 -0.19349723815E+02  0.35377981276E+02  0.42901427490E+02  0.19999980160E+01 0.  0.
         13    1    3    3    0    0 -0.14509276954E+02  0.19349723815E+02 -0.23640325589E+02  0.33820217141E+02  0.10566000000E+00 0. -1.
         13    1    4    4    0    0  0.13349724076E+01 -0.11240327651E+01  0.21247266993E+01  0.27515865548E+01  0.10566000000E+00 0. -1.
        -13    1    4    4    0    0  0.31673283097E+01 -0.41363925716E+01  0.81411333192E+01  0.96659675090E+01  0.10566000000E+00 0.  1.
        -14    1    4    4    0    0  0.10006976236E+02 -0.14089298479E+02  0.25112121258E+02  0.30483873427E+02  0.00000000000E+00 0.  1.
<mgrwt>
<rscale>  0 0.75818455E+02</rscale>
<asrwt>0</asrwt>
<pdfrwt beam="1">  1        1 0.49987684E-02 0.75818455E+02</pdfrwt>
<pdfrwt beam="2">  1       -2 0.68045615E-02 0.75818455E+02</pdfrwt>
<totfact> 0.14285494E+05</totfact>
</mgrwt>
</event>
<event>
 8    1  0.1319619E-020  0.8021314E+02  0.7818608E-02  0.1328448E+00
          1   -1    0    0  501    0  0.00000000000E+00  0.00000000000E+00  0.14330772600E+03  0.14330772609E+03  0.50400000000E-02 0. -1.
         -2   -1    0    0    0  501 -0.00000000000E+00 -0.00000000000E+00 -0.11224354672E+02  0.11224354962E+02  0.25500000000E-02 0.  1.
        -24    2    1    2    0    0  0.00000000000E+00  0.00000000000E+00  0.13208337132E+03  0.15453208105E+03  0.80213135411E+02 0.  0.
         66    2    3    3    0    0  0.23943881696E+02  0.31846097044E+02  0.74490825184E+02  0.84500688782E+02  0.20000001275E+01 0.  0.
         13    1    3    3    0    0 -0.23943881696E+02 -0.31846097044E+02  0.57592546140E+02  0.70031392265E+02  0.10566000000E+00 0. -1.
         13    1    4    4    0    0  0.40613497491E+01  0.60949292001E+01  0.12980575010E+02  0.14904670925E+02  0.10566000000E+00 0. -1.
        -13    1    4    4    0    0  0.18766642601E+02  0.24485135839E+02  0.58846084905E+02  0.66442318023E+02  0.10566000000E+00 0.  1.
        -14    1    4    4    0    0  0.11158893464E+01  0.12660320046E+01  0.26641652680E+01  0.31536998344E+01  0.00000000000E+00 0.  1.
<mgrwt>
<rscale>  0 0.80213135E+02</rscale>
<asrwt>0</asrwt>
<pdfrwt beam="1">  1        1 0.22047341E-01 0.80213135E+02</pdfrwt>
<pdfrwt beam="2">  1       -2 0.17268239E-02 0.80213135E+02</pdfrwt>
<totfact> 0.15545597E+05</totfact>
</mgrwt>
</event>
<event>
 8    1  0.1319619E-020  0.8012851E+02  0.7818608E-02  0.1328687E+00
         -2   -1    0    0    0  501 -0.00000000000E+00  0.00000000000E+00  0.60033310183E+02  0.60033310238E+02  0.25500000000E-02 0.  1.
          1   -1    0    0  501    0  0.00000000000E+00 -0.00000000000E+00 -0.26737562344E+02  0.26737562819E+02  0.50400000000E-02 0. -1.
        -24    2    1    2    0    0  0.00000000000E+00  0.35527136788E-14  0.33295747840E+02  0.86770873056E+02  0.80128506705E+02 0.  0.
         66    2    3    3    0    0  0.23005744490E+02  0.21119035444E+02  0.43792530369E+02  0.53824377868E+02  0.19999997755E+01 0.  0.
         13    1    3    3    0    0 -0.23005744490E+02 -0.21119035444E+02 -0.10496782530E+02  0.32946495188E+02  0.10566000000E+00 0. -1.
         13    1    4    4    0    0  0.28597734515E+01  0.35276765131E+01  0.66632306685E+01  0.80642800517E+01  0.10566000000E+00 0. -1.
        -13    1    4    4    0    0  0.14064904971E+02  0.12261928488E+02  0.26109203125E+02  0.32091713789E+02  0.10566000000E+00 0.  1.
         14    1    4    4    0    0  0.60810660678E+01  0.53294304437E+01  0.11020096576E+02  0.13668384027E+02  0.00000000000E+00 0. -1.
<mgrwt>
<rscale>  0 0.80128507E+02</rscale>
<asrwt>0</asrwt>
<pdfrwt beam="1">  1        1 0.41134712E-02 0.80128507E+02</pdfrwt>
<pdfrwt beam="2">  1       -2 0.92358939E-02 0.80128507E+02</pdfrwt>
<totfact> 0.11789760E+05</totfact>
</mgrwt>
</event>
<event>
 8    1  0.1319619E-020  0.8100895E+02  0.7818608E-02  0.1326212E+00
          1   -1    0    0  501    0  0.00000000000E+00  0.00000000000E+00  0.59653815841E+01  0.59653837132E+01  0.50400000000E-02 0. -1.
         -2   -1    0    0    0  501 -0.00000000000E+00 -0.00000000000E+00 -0.27502214737E+03  0.27502214738E+03  0.25500000000E-02 0.  1.
        -24    2    1    2    0    0  0.00000000000E+00 -0.11102230246E-15 -0.26905676579E+03  0.28098753110E+03  0.81008946517E+02 0.  0.
         66    2    3    3    0    0  0.36404557995E+02 -0.83078195809E+00 -0.19593919031E+03  0.19930416039E+03  0.20000024901E+01 0.  0.
         13    1    3    3    0    0 -0.36404557995E+02  0.83078195809E+00 -0.73117575480E+02  0.81683370704E+02  0.10566000000E+00 0. -1.
         13    1    4    4    0    0  0.25885423348E+01  0.12710856575E+00 -0.15678496546E+02  0.15891605519E+02  0.10566000000E+00 0. -1.
        -13    1    4    4    0    0  0.10207388614E+02  0.32163983280E+00 -0.54400814536E+02  0.55351188070E+02  0.10566000000E+00 0.  1.
         14    1    4    4    0    0  0.23608627046E+02 -0.12795303566E+01 -0.12585987923E+03  0.12806136680E+03  0.00000000000E+00 0. -1.
<mgrwt>
<rscale>  0 0.81008947E+02</rscale>
<asrwt>0</asrwt>
<pdfrwt beam="1">  1        1 0.91775139E-03 0.81008947E+02</pdfrwt>
<pdfrwt beam="2">  1       -2 0.42311090E-01 0.81008947E+02</pdfrwt>
<totfact> 0.71221762E+04</totfact>
</mgrwt>
</event>
<event>
 8    1  0.1319619E-020  0.7734679E+02  0.7818608E-02  0.1336754E+00
         -2   -1    0    0    0  501 -0.00000000000E+00  0.00000000000E+00  0.49062107057E+01  0.49062113684E+01  0.25500000000E-02 0.  1.
          1   -1    0    0  501    0  0.00000000000E+00 -0.00000000000E+00 -0.30484454000E+03  0.30484454004E+03  0.50400000000E-02 0. -1.
        -24    2    1    2    0    0  0.00000000000E+00 -0.35527136788E-14 -0.29993832929E+03  0.30975075141E+03  0.77346794498E+02 0.  0.
         66    2    3    3    0    0  0.29032940706E+02  0.20594467113E+02 -0.89787702295E+02  0.96606807292E+02  0.20000025427E+01 0.  0.
         13    1    3    3    0    0 -0.29032940706E+02 -0.20594467113E+02 -0.21015062700E+03  0.21314394412E+03  0.10566000000E+00 0. -1.
         13    1    4    4    0    0  0.75651464749E+01  0.44883691687E+01 -0.22293506739E+02  0.23966403688E+02  0.10566000000E+00 0. -1.
        -13    1    4    4    0    0  0.19013214376E+02  0.14010289068E+02 -0.58749169308E+02  0.63318769564E+02  0.10566000000E+00 0.  1.
         14    1    4    4    0    0  0.24545798551E+01  0.20958088762E+01 -0.87450262477E+01  0.93216340404E+01  0.00000000000E+00 0. -1.
<mgrwt>
<rscale>  0 0.77346794E+02</rscale>
<asrwt>0</asrwt>
<pdfrwt beam="1">  1        1 0.46899146E-01 0.77346794E+02</pdfrwt>
<pdfrwt beam="2">  1       -2 0.75480194E-03 0.77346794E+02</pdfrwt>
<totfact> 0.19775878E+05</totfact>
</mgrwt>
</event>
<event>
 8    1  0.1319619E-020  0.8030481E+02  0.7818608E-02  0.1328189E+00
         -2   -1    0    0    0  501 -0.00000000000E+00  0.00000000000E+00  0.41706249093E+01  0.41706256888E+01  0.25500000000E-02 0.  1.
          1   -1    0    0  501    0  0.00000000000E+00 -0.00000000000E+00 -0.38656451896E+03  0.38656451899E+03  0.50400000000E-02 0. -1.
        -24    2    1    2    0    0 -0.71054273576E-14 -0.35527136788E-14 -0.38239389405E+03  0.39073514468E+03  0.80304813567E+02 0.  0.
         66    2    3    3    0    0 -0.33587125671E+02 -0.21331417393E+02 -0.16599211518E+03  0.17070590698E+03  0.19999997328E+01 0.  0.
         13    1    3    3    0    0  0.33587125671E+02  0.21331417393E+02 -0.21640177887E+03  0.22002923770E+03  0.10566000000E+00 0. -1.
         13    1    4    4    0    0 -0.11304826588E+01 -0.83299365644E+00 -0.48345034744E+01  0.50354202758E+01  0.10566000000E+00 0. -1.
        -13    1    4    4    0    0 -0.12904386314E+02 -0.83278270420E+01 -0.66796675178E+02  0.68539644500E+02  0.10566000000E+00 0.  1.
        -14    1    4    4    0    0 -0.19552256698E+02 -0.12170596694E+02 -0.94360936524E+02  0.97130842206E+02  0.00000000000E+00 0.  1.
<mgrwt>
<rscale>  0 0.80304814E+02</rscale>
<asrwt>0</asrwt>
<pdfrwt beam="1">  1        1 0.59471436E-01 0.80304814E+02</pdfrwt>
<pdfrwt beam="2">  1       -2 0.64163497E-03 0.80304814E+02</pdfrwt>
<totfact> 0.18698287E+05</totfact>
</mgrwt>
</event>
<event>
 8    1  0.1319619E-020  0.7905697E+02  0.7818608E-02  0.1331749E+00
         -2   -1    0    0    0  501 -0.00000000000E+00  0.00000000000E+00  0.12096830896E+02  0.12096831164E+02  0.25500000000E-02 0.  1.
          1   -1    0    0  501    0  0.00000000000E+00 -0.00000000000E+00 -0.12916614755E+03  0.12916614765E+03  0.50400000000E-02 0. -1.
        -24    2    1    2    0    0  0.00000000000E+00  0.71054273576E-14 -0.11706931666E+03  0.14126297881E+03  0.79056968581E+02 0.  0.
         66    2    3    3    0    0 -0.71136088872E+01 -0.37648761535E+02 -0.41390034581E+02  0.56437289451E+02  0.20000003677E+01 0.  0.
         13    1    3    3    0    0  0.71136088872E+01  0.37648761535E+02 -0.75679282076E+02  0.84825689364E+02  0.10566000000E+00 0. -1.
         13    1    4    4    0    0 -0.63522986057E+01 -0.34287783780E+02 -0.37238914332E+02  0.51017170823E+02  0.10566000000E+00 0. -1.
        -13    1    4    4    0    0 -0.71462703324E+00 -0.23392502931E+01 -0.26992597578E+01  0.36441667094E+01  0.10566000000E+00 0.  1.
         14    1    4    4    0    0 -0.46683248261E-01 -0.10217274614E+01 -0.14518604911E+01  0.17759519184E+01  0.00000000000E+00 0. -1.
<mgrwt>
<rscale>  0 0.79056969E+02</rscale>
<asrwt>0</asrwt>
<pdfrwt beam="1">  1        1 0.19871714E-01 0.79056969E+02</pdfrwt>
<pdfrwt beam="2">  1       -2 0.18610510E-02 0.79056969E+02</pdfrwt>
<totfact> 0.15861579E+05</totfact>
</mgrwt>
</event>
<event>
 8    1  0.1319619E-020  0.7936445E+02  0.7818608E-02  0.1330865E+00
         -2   -1    0    0    0  501 -0.00000000000E+00  0.00000000000E+00  0.40314981408E+01  0.40314989473E+01  0.25500000000E-02 0.  1.
          1   -1    0    0  501    0  0.00000000000E+00 -0.00000000000E+00 -0.39059395030E+03  0.39059395033E+03  0.50400000000E-02 0. -1.
        -24    2    1    2    0    0  0.00000000000E+00 -0.71054273576E-14 -0.38656245216E+03  0.39462544928E+03  0.79364449220E+02 0.  0.
         66    2    3    3    0    0 -0.22027128140E+02 -0.30004840240E+02 -0.26143346858E+03  0.26407753276E+03  0.20000007863E+01 0.  0.
         13    1    3    3    0    0  0.22027128140E+02  0.30004840240E+02 -0.12512898358E+03  0.13054791652E+03  0.10566000000E+00 0. -1.
         13    1    4    4    0    0 -0.54947683548E+01 -0.63466619963E+01 -0.58297133711E+02  0.58898553129E+02  0.10566000000E+00 0. -1.
        -13    1    4    4    0    0 -0.17072231852E+01 -0.29443419680E+01 -0.23150868321E+02  0.23399949331E+02  0.10566000000E+00 0. -1.
        -14    1    4    4    0    0 -0.14825136600E+02 -0.20713836276E+02 -0.17998546655E+03  0.18177903030E+03  0.00000000000E+00 0.  1.
<mgrwt>
<rscale>  0 0.79364449E+02</rscale>
<asrwt>0</asrwt>
<pdfrwt beam="1">  1        1 0.60091347E-01 0.79364449E+02</pdfrwt>
<pdfrwt beam="2">  1       -2 0.62023086E-03 0.79364449E+02</pdfrwt>
<totfact> 0.19319384E+05</totfact>
</mgrwt>
</event>
<event>
 8    1  0.1319619E-020  0.8423673E+02  0.7818608E-02  0.1317441E+00
          1   -1    0    0  501    0  0.00000000000E+00  0.00000000000E+00  0.10043822829E+02  0.10043824093E+02  0.50400000000E-02 0. -1.
         -2   -1    0    0    0  501 -0.00000000000E+00 -0.00000000000E+00 -0.17662164509E+03  0.17662164511E+03  0.25500000000E-02 0.  1.
        -24    2    1    2    0    0  0.00000000000E+00  0.17763568394E-14 -0.16657782226E+03  0.18666546920E+03  0.84236729061E+02 0.  0.
         66    2    3    3    0    0 -0.39537003485E+02  0.10384483216E+02 -0.10559920924E+03  0.11325283714E+03  0.19999979583E+01 0.  0.
         13    1    3    3    0    0  0.39537003485E+02 -0.10384483216E+02 -0.60978613021E+02  0.73412632062E+02  0.10566000000E+00 0. -1.
         13    1    4    4    0    0 -0.13429390264E+02  0.42725849705E+01 -0.35518544575E+02  0.38212323640E+02  0.10566000000E+00 0. -1.
        -13    1    4    4    0    0 -0.18582061294E+02  0.39702344650E+01 -0.49164885933E+02  0.52709135228E+02  0.10566000000E+00 0.  1.
         14    1    4    4    0    0 -0.75255519269E+01  0.21416637809E+01 -0.20915778732E+02  0.22331378272E+02  0.00000000000E+00 0. -1.
<mgrwt>
<rscale>  0 0.84236729E+02</rscale>
<asrwt>0</asrwt>
<pdfrwt beam="1">  1        1 0.15452037E-02 0.84236729E+02</pdfrwt>
<pdfrwt beam="2">  1       -2 0.27172559E-01 0.84236729E+02</pdfrwt>
<totfact> 0.78144064E+04</totfact>
</mgrwt>
</event>
<event>
 8    1  0.1319619E-020  0.7916928E+02  0.7818608E-02  0.1331426E+00
          1   -1    0    0  501    0  0.00000000000E+00  0.00000000000E+00  0.15589455244E+03  0.15589455252E+03  0.50400000000E-02 0. -1.
         -2   -1    0    0    0  501 -0.00000000000E+00 -0.00000000000E+00 -0.10051304910E+02  0.10051305233E+02  0.25500000000E-02 0.  1.
        -24    2    1    2    0    0 -0.22204460493E-15  0.00000000000E+00  0.14584324753E+03  0.16594585776E+03  0.79169279749E+02 0.  0.
         66    2    3    3    0    0  0.18335632027E+01 -0.35153769864E+02  0.35134392745E+02  0.49775245371E+02  0.20000021254E+01 0.  0.
         13    1    3    3    0    0 -0.18335632027E+01  0.35153769864E+02  0.11070885479E+03  0.11617061239E+03  0.10566000000E+00 0. -1.
         13    1    4    4    0    0 -0.13972435633E+00 -0.78743538971E+01  0.72965914085E+01  0.10736683958E+02  0.10566000000E+00 0. -1.
        -13    1    4    4    0    0  0.18908053299E+00 -0.26520571738E+01  0.23220175759E+01  0.35315843979E+01  0.10566000000E+00 0.  1.
        -14    1    4    4    0    0  0.17842070260E+01 -0.24627358793E+02  0.25515783760E+02  0.35506977015E+02  0.00000000000E+00 0.  1.
<mgrwt>
<rscale>  0 0.79169280E+02</rscale>
<asrwt>0</asrwt>
<pdfrwt beam="1">  1        1 0.23983776E-01 0.79169280E+02</pdfrwt>
<pdfrwt beam="2">  1       -2 0.15463547E-02 0.79169280E+02</pdfrwt>
<totfact> 0.16350643E+05</totfact>
</mgrwt>
</event>
<event>
 8    1  0.1319619E-020  0.7934750E+02  0.7818608E-02  0.1330913E+00
         -2   -1    0    0    0  501 -0.00000000000E+00  0.00000000000E+00  0.24314009356E+03  0.24314009357E+03  0.25500000000E-02 0.  1.
          1   -1    0    0  501    0  0.00000000000E+00 -0.00000000000E+00 -0.64736593616E+01  0.64736613235E+01  0.50400000000E-02 0. -1.
        -24    2    1    2    0    0  0.00000000000E+00  0.00000000000E+00  0.23666643420E+03  0.24961375490E+03  0.79347498748E+02 0.  0.
         66    2    3    3    0    0  0.23054530677E+02  0.30909949284E+02  0.14742241064E+03  0.15239522140E+03  0.19999996129E+01 0.  0.
         13    1    3    3    0    0 -0.23054530677E+02 -0.30909949284E+02  0.89244023560E+02  0.97218533494E+02  0.10566000000E+00 0. -1.
         13    1    4    4    0    0  0.19742360888E+02  0.26456285215E+02  0.12569695777E+03  0.12995934824E+03  0.10566000000E+00 0. -1.
        -13    1    4    4    0    0  0.26847785915E+01  0.37663802407E+01  0.19029279879E+02  0.19583623591E+02  0.10566000000E+00 0.  1.
         14    1    4    4    0    0  0.62739119834E+00  0.68728382884E+00  0.26961729924E+01  0.28522495652E+01  0.00000000000E+00 0. -1.
<mgrwt>
<rscale>  0 0.79347499E+02</rscale>
<asrwt>0</asrwt>
<pdfrwt beam="1">  1        1 0.99594772E-03 0.79347499E+02</pdfrwt>
<pdfrwt beam="2">  1       -2 0.37406169E-01 0.79347499E+02</pdfrwt>
<totfact> 0.79804052E+04</totfact>
</mgrwt>
</event>
<event>
 8    1  0.1319619E-020  0.8487509E+02  0.7818608E-02  0.1315760E+00
         -2   -1    0    0    0  501 -0.00000000000E+00  0.00000000000E+00  0.55897517209E+02  0.55897517267E+02  0.25500000000E-02 0.  1.
          1   -1    0    0  501    0  0.00000000000E+00 -0.00000000000E+00 -0.32218695716E+02  0.32218696111E+02  0.50400000000E-02 0. -1.
        -24    2    1    2    0    0  0.17763568394E-14  0.00000000000E+00  0.23678821493E+02  0.88116213378E+02  0.84875087469E+02 0.  0.
         66    2    3    3    0    0 -0.11723683684E+02  0.35340189895E+02  0.32933338852E+02  0.49749156721E+02  0.20000013871E+01 0.  0.
         13    1    3    3    0    0  0.11723683684E+02 -0.35340189895E+02 -0.92545173590E+01  0.38367056657E+02  0.10566000000E+00 0. -1.
         13    1    4    4    0    0 -0.40288961460E+01  0.13069244355E+02  0.11628112650E+02  0.17951638366E+02  0.10566000000E+00 0. -1.
        -13    1    4    4    0    0 -0.44213619826E+01  0.11982890466E+02  0.12408032422E+02  0.17807541614E+02  0.10566000000E+00 0.  1.
        -14    1    4    4    0    0 -0.32734255550E+01  0.10288055075E+02  0.88971937793E+01  0.13989976742E+02  0.00000000000E+00 0.  1.
<mgrwt>
<rscale>  0 0.84875087E+02</rscale>
<asrwt>0</asrwt>
<pdfrwt beam="1">  1        1 0.49567225E-02 0.84875087E+02</pdfrwt>
<pdfrwt beam="2">  1       -2 0.85996179E-02 0.84875087E+02</pdfrwt>
<totfact> 0.10330036E+05</totfact>
</mgrwt>
</event>
<event>
 8    1  0.1319619E-020  0.7951613E+02  0.7818608E-02  0.1330430E+00
         -2   -1    0    0    0  501 -0.00000000000E+00  0.00000000000E+00  0.37950218627E+01  0.37950227195E+01  0.25500000000E-02 0.  1.
          1   -1    0    0  501    0  0.00000000000E+00 -0.00000000000E+00 -0.41652031854E+03  0.41652031857E+03  0.50400000000E-02 0. -1.
        -24    2    1    2    0    0  0.00000000000E+00  0.00000000000E+00 -0.41272529668E+03  0.42031534129E+03  0.79516134252E+02 0.  0.
         66    2    3    3    0    0  0.11959248780E+01 -0.39647738471E+02 -0.19429445347E+03  0.19831214801E+03  0.19999983425E+01 0.  0.
         13    1    3    3    0    0 -0.11959248780E+01  0.39647738471E+02 -0.21843084320E+03  0.22200319329E+03  0.10566000000E+00 0. -1.
         13    1    4    4    0    0  0.59892506801E+00 -0.11496435195E+02 -0.58141106658E+02  0.59269943317E+02  0.10566000000E+00 0.  1.
        -13    1    4    4    0    0  0.86081176962E+00 -0.23770155341E+02 -0.11680795051E+03  0.11920515823E+03  0.10566000000E+00 0.  1.
        -14    1    4    4    0    0 -0.26381195960E+00 -0.43811479350E+01 -0.19345396307E+02  0.19837046460E+02  0.00000000000E+00 0.  1.
<mgrwt>
<rscale>  0 0.79516134E+02</rscale>
<asrwt>0</asrwt>
<pdfrwt beam="1">  1        1 0.64080013E-01 0.79516134E+02</pdfrwt>
<pdfrwt beam="2">  1       -2 0.58384991E-03 0.79516134E+02</pdfrwt>
<totfact> 0.19423931E+05</totfact>
</mgrwt>
</event>
<event>
 8    1  0.1319619E-020  0.8081356E+02  0.7818608E-02  0.1326758E+00
         -2   -1    0    0    0  501 -0.00000000000E+00  0.00000000000E+00  0.49532489324E+03  0.49532489325E+03  0.25500000000E-02 0.  1.
          1   -1    0    0  501    0  0.00000000000E+00 -0.00000000000E+00 -0.32962342847E+01  0.32962381378E+01  0.50400000000E-02 0. -1.
        -24    2    1    2    0    0 -0.35527136788E-14 -0.17763568394E-14  0.49202865896E+03  0.49862113139E+03  0.80813559689E+02 0.  0.
         66    2    3    3    0    0  0.30938054268E+02  0.15292795152E+02  0.37553945211E+03  0.37712718396E+03  0.20000011589E+01 0.  0.
         13    1    3    3    0    0 -0.30938054268E+02 -0.15292795152E+02  0.11648920685E+03  0.12149394743E+03  0.10566000000E+00 0. -1.
         13    1    4    4    0    0  0.28293415051E+01  0.18464024428E+01  0.37487533596E+02  0.37639616290E+02  0.10566000000E+00 0.  1.
        -13    1    4    4    0    0  0.26651073383E+02  0.12743696840E+02  0.31697231664E+03  0.31834594736E+03  0.10566000000E+00 0. -1.
         14    1    4    4    0    0  0.14576393801E+01  0.70269586860E+00  0.21079601877E+02  0.21141620311E+02  0.00000000000E+00 0. -1.
<mgrwt>
<rscale>  0 0.80813560E+02</rscale>
<asrwt>0</asrwt>
<pdfrwt beam="1">  1        1 0.50711333E-03 0.80813560E+02</pdfrwt>
<pdfrwt beam="2">  1       -2 0.76203820E-01 0.80813560E+02</pdfrwt>
<totfact> 0.49441285E+04</totfact>
</mgrwt>
</event>
<event>
 8    1  0.1319619E-020  0.7842341E+02  0.7818608E-02  0.1333586E+00
         -2   -1    0    0    0  501 -0.00000000000E+00  0.00000000000E+00  0.14779327799E+03  0.14779327801E+03  0.25500000000E-02 0.  1.
          1   -1    0    0  501    0  0.00000000000E+00 -0.00000000000E+00 -0.10403435309E+02  0.10403436530E+02  0.50400000000E-02 0. -1.
        -24    2    1    2    0    0  0.17763568394E-14  0.00000000000E+00  0.13738984268E+03  0.15819671454E+03  0.78423412447E+02 0.  0.
         66    2    3    3    0    0 -0.81355495891E+01  0.21976415263E+02  0.13209418504E+03  0.13417162040E+03  0.20000006629E+01 0.  0.
         13    1    3    3    0    0  0.81355495891E+01 -0.21976415263E+02  0.52956576406E+01  0.24025094148E+02  0.10566000000E+00 0. -1.
         13    1    4    4    0    0 -0.14937242556E+01  0.58142019614E+01  0.35476912427E+02  0.35981365122E+02  0.10566000000E+00 0. -1.
        -13    1    4    4    0    0 -0.43422208330E+01  0.10696090040E+02  0.66523080261E+02  0.67517350328E+02  0.10566000000E+00 0.  1.
         14    1    4    4    0    0 -0.22996045005E+01  0.54661232619E+01  0.30094192355E+02  0.30672904947E+02  0.00000000000E+00 0. -1.
<mgrwt>
<rscale>  0 0.78423412E+02</rscale>
<asrwt>0</asrwt>
<pdfrwt beam="1">  1        1 0.16005287E-02 0.78423412E+02</pdfrwt>
<pdfrwt beam="2">  1       -2 0.22737426E-01 0.78423412E+02</pdfrwt>
<totfact> 0.99957285E+04</totfact>
</mgrwt>
</event>
<event>
 8    1  0.1319619E-020  0.8021100E+02  0.7818608E-02  0.1328454E+00
         -2   -1    0    0    0  501 -0.00000000000E+00  0.00000000000E+00  0.75477254225E+02  0.75477254268E+02  0.25500000000E-02 0.  1.
          1   -1    0    0  501    0  0.00000000000E+00 -0.00000000000E+00 -0.21310408671E+02  0.21310409267E+02  0.50400000000E-02 0. -1.
        -24    2    1    2    0    0 -0.71054273576E-14 -0.44408920985E-15  0.54166845554E+02  0.96787663535E+02  0.80211000837E+02 0.  0.
         66    2    3    3    0    0  0.37094248296E+02  0.16223206979E+01  0.88867523475E+01  0.38230740922E+02  0.20000007626E+01 0.  0.
         13    1    3    3    0    0 -0.37094248296E+02 -0.16223206979E+01  0.45280093206E+02  0.58556922613E+02  0.10566000000E+00 0. -1.
         13    1    4    4    0    0  0.51361856773E+00  0.10666082768E+00  0.30711733352E-01  0.53599236137E+00  0.10566000000E+00 0.  1.
        -13    1    4    4    0    0  0.18022101439E+01 -0.16954023738E+00  0.60199385998E+00  0.19105669154E+01  0.10566000000E+00 0.  1.
        -14    1    4    4    0    0  0.34778419584E+02  0.16852001076E+01  0.82540467542E+01  0.35784181645E+02  0.00000000000E+00 0.  1.
<mgrwt>
<rscale>  0 0.80211001E+02</rscale>
<asrwt>0</asrwt>
<pdfrwt beam="1">  1        1 0.32785244E-02 0.80211001E+02</pdfrwt>
<pdfrwt beam="2">  1       -2 0.11611886E-01 0.80211001E+02</pdfrwt>
<totfact> 0.11239492E+05</totfact>
</mgrwt>
</event>
<event>
 8    1  0.1319619E-020  0.8235682E+02  0.7818608E-02  0.1322493E+00
         -2   -1    0    0    0  501 -0.00000000000E+00  0.00000000000E+00  0.10897535608E+03  0.10897535611E+03  0.25500000000E-02 0.  1.
          1   -1    0    0  501    0  0.00000000000E+00 -0.00000000000E+00 -0.15560045323E+02  0.15560046139E+02  0.50400000000E-02 0. -1.
        -24    2    1    2    0    0  0.00000000000E+00  0.00000000000E+00  0.93415310757E+02  0.12453540225E+03  0.82356821998E+02 0.  0.
         66    2    3    3    0    0 -0.24330334737E+02  0.10515090747E+02  0.94340641480E+02  0.98013718237E+02  0.20000015208E+01 0.  0.
         13    1    3    3    0    0  0.24330334737E+02 -0.10515090747E+02 -0.92533072276E+00  0.26521684012E+02  0.10566000000E+00 0. -1.
         13    1    4    4    0    0 -0.10217085673E+02  0.37140346757E+01  0.40677473133E+02  0.42105235752E+02  0.10566000000E+00 0. -1.
        -13    1    4    4    0    0 -0.11294690949E+02  0.52584244981E+01  0.43547367328E+02  0.45294651307E+02  0.10566000000E+00 0.  1.
        -14    1    4    4    0    0 -0.28185581155E+01  0.15426315736E+01  0.10115801018E+02  0.10613831177E+02  0.00000000000E+00 0.  1.
<mgrwt>
<rscale>  0 0.82356822E+02</rscale>
<asrwt>0</asrwt>
<pdfrwt beam="1">  1        1 0.23938532E-02 0.82356822E+02</pdfrwt>
<pdfrwt beam="2">  1       -2 0.16765440E-01 0.82356822E+02</pdfrwt>
<totfact> 0.96373449E+04</totfact>
</mgrwt>
</event>
<event>
 8    1  0.1319619E-020  0.7894681E+02  0.7818608E-02  0.1332067E+00
         -2   -1    0    0    0  501 -0.00000000000E+00  0.00000000000E+00  0.71071329423E+02  0.71071329469E+02  0.25500000000E-02 0.  1.
          1   -1    0    0  501    0  0.00000000000E+00 -0.00000000000E+00 -0.21923746310E+02  0.21923746889E+02  0.50400000000E-02 0. -1.
        -24    2    1    2    0    0  0.35527136788E-14  0.00000000000E+00  0.49147583113E+02  0.92995076358E+02  0.78946813114E+02 0.  0.
         66    2    3    3    0    0 -0.23711762801E+02  0.54139261667E+00  0.61720124498E+02  0.66150695903E+02  0.19999998028E+01 0.  0.
         13    1    3    3    0    0  0.23711762801E+02 -0.54139261667E+00 -0.12572541385E+02  0.26844380455E+02  0.10566000000E+00 0. -1.
         13    1    4    4    0    0 -0.35077371709E+01 -0.20699515770E+00  0.95511645616E+01  0.10177572185E+02  0.10566000000E+00 0. -1.
        -13    1    4    4    0    0 -0.31661978020E+01 -0.58609975310E-01  0.98062368427E+01  0.10305420355E+02  0.10566000000E+00 0.  1.
         14    1    4    4    0    0 -0.17037827828E+02  0.80699774968E+00  0.42362723094E+02  0.45667703362E+02  0.00000000000E+00 0. -1.
<mgrwt>
<rscale>  0 0.78946813E+02</rscale>
<asrwt>0</asrwt>
<pdfrwt beam="1">  1        1 0.33728841E-02 0.78946813E+02</pdfrwt>
<pdfrwt beam="2">  1       -2 0.10934051E-01 0.78946813E+02</pdfrwt>
<totfact> 0.11848275E+05</totfact>
</mgrwt>
</event>
<event>
 8    1  0.1319619E-020  0.8129386E+02  0.7818608E-02  0.1325419E+00
         -2   -1    0    0    0  501 -0.00000000000E+00  0.00000000000E+00  0.62025852219E+02  0.62025852272E+02  0.25500000000E-02 0.  1.
          1   -1    0    0  501    0  0.00000000000E+00 -0.00000000000E+00 -0.26636843816E+02  0.26636844293E+02  0.50400000000E-02 0. -1.
        -24    2    1    2    0    0 -0.35527136788E-14 -0.35527136788E-14  0.35389008404E+02  0.88662696565E+02  0.81293861062E+02 0.  0.
         66    2    3    3    0    0  0.12801709172E+02  0.18965294542E+02  0.54312544134E+02  0.58969641427E+02  0.20000012381E+01 0.  0.
         13    1    3    3    0    0 -0.12801709172E+02 -0.18965294542E+02 -0.18923535730E+02  0.29693055137E+02  0.10566000000E+00 0. -1.
         13    1    4    4    0    0  0.54457495541E+01  0.65118439218E+01  0.19971578733E+02  0.21701046533E+02  0.10566000000E+00 0. -1.
        -13    1    4    4    0    0  0.62840284465E+01  0.10170562454E+02  0.28162421089E+02  0.30595138172E+02  0.10566000000E+00 0.  1.
         14    1    4    4    0    0  0.10719311717E+01  0.22828881663E+01  0.61785443119E+01  0.66734567227E+01  0.00000000000E+00 0. -1.
<mgrwt>
<rscale>  0 0.81293861E+02</rscale>
<asrwt>0</asrwt>
<pdfrwt beam="1">  1        1 0.40979760E-02 0.81293861E+02</pdfrwt>
<pdfrwt beam="2">  1       -2 0.95424388E-02 0.81293861E+02</pdfrwt>
<totfact> 0.11296934E+05</totfact>
</mgrwt>
</event>
<event>
 8    1  0.1319619E-020  0.7636148E+02  0.7818608E-02  0.1339706E+00
          1   -1    0    0  501    0  0.00000000000E+00  0.00000000000E+00  0.15614315563E+02  0.15614316376E+02  0.50400000000E-02 0. -1.
         -2   -1    0    0    0  501 -0.00000000000E+00 -0.00000000000E+00 -0.93361054514E+02  0.93361054548E+02  0.25500000000E-02 0.  1.
        -24    2    1    2    0    0  0.00000000000E+00  0.00000000000E+00 -0.77746738951E+02  0.10897537092E+03  0.76361482769E+02 0.  0.
         66    2    3    3    0    0  0.10485706255E+02  0.80742925279E+01 -0.89969757320E+02  0.90959889316E+02  0.19999991869E+01 0.  0.
         13    1    3    3    0    0 -0.10485706255E+02 -0.80742925279E+01  0.12223018369E+02  0.18015481608E+02  0.10566000000E+00 0. -1.
         13    1    4    4    0    0  0.26088352209E+01  0.25058975433E+01 -0.25495163766E+02  0.25750729760E+02  0.10566000000E+00 0. -1.
        -13    1    4    4    0    0  0.59326124566E+01  0.44073417258E+01 -0.53035155944E+02  0.53547730873E+02  0.10566000000E+00 0.  1.
         14    1    4    4    0    0  0.19442585772E+01  0.11610532588E+01 -0.11439437611E+02  0.11661428683E+02  0.00000000000E+00 0. -1.
<mgrwt>
<rscale>  0 0.76361483E+02</rscale>
<asrwt>0</asrwt>
<pdfrwt beam="1">  1        1 0.24022025E-02 0.76361483E+02</pdfrwt>
<pdfrwt beam="2">  1       -2 0.14363239E-01 0.76361483E+02</pdfrwt>
<totfact> 0.12153733E+05</totfact>
</mgrwt>
</event>
<event>
 8    1  0.1319619E-020  0.7864328E+02  0.7818608E-02  0.1332946E+00
         -2   -1    0    0    0  501 -0.00000000000E+00  0.00000000000E+00  0.11187273938E+02  0.11187274228E+02  0.25500000000E-02 0.  1.
          1   -1    0    0  501    0  0.00000000000E+00 -0.00000000000E+00 -0.13820982288E+03  0.13820982298E+03  0.50400000000E-02 0. -1.
        -24    2    1    2    0    0  0.00000000000E+00  0.00000000000E+00 -0.12702254895E+03  0.14939709720E+03  0.78643275060E+02 0.  0.
         66    2    3    3    0    0 -0.70782370797E+01 -0.23682177475E+02 -0.55189620175E+01  0.25404840306E+02  0.19999997733E+01 0.  0.
         13    1    3    3    0    0  0.70782370797E+01  0.23682177475E+02 -0.12150358693E+03  0.12399225690E+03  0.10566000000E+00 0. -1.
         13    1    4    4    0    0 -0.12843885492E+01 -0.47717145182E+01 -0.13855026239E+01  0.51331953932E+01  0.10566000000E+00 0. -1.
        -13    1    4    4    0    0  0.71592822971E-01 -0.48418529870E+00 -0.19494428044E+00  0.53733438738E+00  0.10566000000E+00 0.  1.
        -14    1    4    4    0    0 -0.58654413535E+01 -0.18426277658E+02 -0.39385151131E+01  0.19734310525E+02  0.00000000000E+00 0.  1.
<mgrwt>
<rscale>  0 0.78643275E+02</rscale>
<asrwt>0</asrwt>
<pdfrwt beam="1">  1        1 0.21263049E-01 0.78643275E+02</pdfrwt>
<pdfrwt beam="2">  1       -2 0.17211192E-02 0.78643275E+02</pdfrwt>
<totfact> 0.16281842E+05</totfact>
</mgrwt>
</event>
<event>
 8    1  0.1319619E-020  0.7782701E+02  0.7818608E-02  0.1335334E+00
         -2   -1    0    0    0  501 -0.00000000000E+00  0.00000000000E+00  0.65448512691E+01  0.65448517658E+01  0.25500000000E-02 0.  1.
          1   -1    0    0  501    0  0.00000000000E+00 -0.00000000000E+00 -0.23136672520E+03  0.23136672526E+03  0.50400000000E-02 0. -1.
        -24    2    1    2    0    0 -0.88817841970E-15  0.00000000000E+00 -0.22482187394E+03  0.23791157702E+03  0.77827009982E+02 0.  0.
         66    2    3    3    0    0  0.51502557696E+01  0.32286147259E+02 -0.48119709920E+02  0.58210195920E+02  0.19999967367E+01 0.  0.
         13    1    3    3    0    0 -0.51502557696E+01 -0.32286147259E+02 -0.17670216402E+03  0.17970138111E+03  0.10566000000E+00 0. -1.
         13    1    4    4    0    0  0.28716518210E+01  0.15235393948E+02 -0.24247191703E+02  0.28780220334E+02  0.10566000000E+00 0. -1.
        -13    1    4    4    0    0  0.25708815881E+00  0.15256897660E+01 -0.19678875066E+01  0.25055077045E+01  0.10566000000E+00 0.  1.
         14    1    4    4    0    0  0.20215157898E+01  0.15525063545E+02 -0.21904630710E+02  0.26924467881E+02  0.00000000000E+00 0. -1.
<mgrwt>
<rscale>  0 0.77827010E+02</rscale>
<asrwt>0</asrwt>
<pdfrwt beam="1">  1        1 0.35594875E-01 0.77827010E+02</pdfrwt>
<pdfrwt beam="2">  1       -2 0.10069004E-02 0.77827010E+02</pdfrwt>
<totfact> 0.18449636E+05</totfact>
</mgrwt>
</event>
<event>
 8    1  0.1319619E-020  0.8217851E+02  0.7818608E-02  0.1322980E+00
         -2   -1    0    0    0  501 -0.00000000000E+00  0.00000000000E+00  0.13362953176E+02  0.13362953419E+02  0.25500000000E-02 0.  1.
          1   -1    0    0  501    0  0.00000000000E+00 -0.00000000000E+00 -0.12634383453E+03  0.12634383463E+03  0.50400000000E-02 0. -1.
        -24    2    1    2    0    0  0.00000000000E+00  0.00000000000E+00 -0.11298088135E+03  0.13970678805E+03  0.82178507381E+02 0.  0.
         66    2    3    3    0    0 -0.28189777368E+02 -0.27531561205E+02 -0.36868561760E+02  0.53999455991E+02  0.19999976492E+01 0.  0.
         13    1    3    3    0    0  0.28189777368E+02  0.27531561205E+02 -0.76112319592E+02  0.85707332056E+02  0.10566000000E+00 0. -1.
         13    1    4    4    0    0 -0.33709574918E+01 -0.27951113190E+01 -0.37359956458E+01  0.57571546095E+01  0.10566000000E+00 0. -1.
        -13    1    4    4    0    0 -0.92750326011E+01 -0.95433511137E+01 -0.11778462981E+02  0.17772032367E+02  0.10566000000E+00 0.  1.
        -14    1    4    4    0    0 -0.15543787275E+02 -0.15193098773E+02 -0.21354103133E+02  0.30470269014E+02  0.00000000000E+00 0.  1.
<mgrwt>
<rscale>  0 0.82178507E+02</rscale>
<asrwt>0</asrwt>
<pdfrwt beam="1">  1        1 0.19437512E-01 0.82178507E+02</pdfrwt>
<pdfrwt beam="2">  1       -2 0.20558391E-02 0.82178507E+02</pdfrwt>
<totfact> 0.14238517E+05</totfact>
</mgrwt>
</event>
<event>
 8    1  0.1429636E-020  0.8571473E+02  0.7818608E-02  0.1313574E+00
          1   -1    0    0  501    0  0.00000000000E+00  0.00000000000E+00  0.13230359352E+03  0.13230359362E+03  0.50400000000E-02 0. -1.
         -2   -1    0    0    0  501 -0.00000000000E+00 -0.00000000000E+00 -0.13882871913E+02  0.13882872148E+02  0.25500000000E-02 0.  1.
        -24    2    1    2    0    0  0.00000000000E+00  0.00000000000E+00  0.11842072161E+03  0.14618646577E+03  0.85714733079E+02 0.  0.
         66    2    3    3    0    0  0.11339745932E+02  0.27442344603E+02  0.65904168222E+01  0.30481235341E+02  0.19999997244E+01 0.  0.
         13    1    3    3    0    0 -0.11339745932E+02 -0.27442344603E+02  0.11183030479E+03  0.11570523043E+03  0.10566000000E+00 0. -1.
         13    1    4    4    0    0  0.88062420381E+00  0.29797812384E+01  0.99805794449E+00  0.32652532694E+01  0.10566000000E+00 0. -1.
        -13    1    4    4    0    0  0.50980043926E+01  0.12473204204E+02  0.34399611530E+01  0.13907371020E+02  0.10566000000E+00 0.  1.
        -14    1    4    4    0    0  0.53611173356E+01  0.11989359160E+02  0.21523977247E+01  0.13308611052E+02  0.00000000000E+00 0.  1.
<mgrwt>
<rscale>  0 0.85714733E+02</rscale>
<asrwt>0</asrwt>
<pdfrwt beam="1">  1        1 0.20354399E-01 0.85714733E+02</pdfrwt>
<pdfrwt beam="2">  1       -2 0.21358265E-02 0.85714733E+02</pdfrwt>
<totfact> 0.12815707E+05</totfact>
</mgrwt>
</event>
<event>
 8    1  0.1319619E-020  0.8056626E+02  0.7818608E-02  0.1327452E+00
         -2   -1    0    0    0  501 -0.00000000000E+00  0.00000000000E+00  0.13569585882E+03  0.13569585884E+03  0.25500000000E-02 0.  1.
          1   -1    0    0  501    0  0.00000000000E+00 -0.00000000000E+00 -0.11958584474E+02  0.11958585537E+02  0.50400000000E-02 0. -1.
        -24    2    1    2    0    0  0.35527136788E-14 -0.35527136788E-14  0.12373727434E+03  0.14765444438E+03  0.80566257719E+02 0.  0.
         66    2    3    3    0    0 -0.24571904385E+02  0.27431228195E+02  0.91711403596E+02  0.98849543737E+02  0.19999955577E+01 0.  0.
         13    1    3    3    0    0  0.24571904385E+02 -0.27431228195E+02  0.32025870748E+02  0.48804900641E+02  0.10566000000E+00 0. -1.
         13    1    4    4    0    0 -0.72238413536E+01  0.81431608173E+01  0.28935133581E+02  0.30915175422E+02  0.10566000000E+00 0. -1.
        -13    1    4    4    0    0 -0.97596857193E+01  0.10840875202E+02  0.36721507077E+02  0.39512735751E+02  0.10566000000E+00 0.  1.
         14    1    4    4    0    0 -0.75883773125E+01  0.84471921755E+01  0.26054762938E+02  0.28421632565E+02  0.00000000000E+00 0. -1.
<mgrwt>
<rscale>  0 0.80566258E+02</rscale>
<asrwt>0</asrwt>
<pdfrwt beam="1">  1        1 0.18397825E-02 0.80566258E+02</pdfrwt>
<pdfrwt beam="2">  1       -2 0.20876284E-01 0.80566258E+02</pdfrwt>
<totfact> 0.95809950E+04</totfact>
</mgrwt>
</event>
<event>
 8    1  0.1319619E-020  0.8074291E+02  0.7818608E-02  0.1326956E+00
         -2   -1    0    0    0  501 -0.00000000000E+00  0.00000000000E+00  0.36243234170E+03  0.36243234171E+03  0.25500000000E-02 0.  1.
          1   -1    0    0  501    0  0.00000000000E+00 -0.00000000000E+00 -0.44969882592E+01  0.44969910835E+01  0.50400000000E-02 0. -1.
        -24    2    1    2    0    0  0.00000000000E+00  0.00000000000E+00  0.35793535344E+03  0.36692933279E+03  0.80742913131E+02 0.  0.
         66    2    3    3    0    0 -0.38155751857E+02  0.55452315294E+01  0.23308474538E+03  0.23626068127E+03  0.19999987309E+01 0.  0.
         13    1    3    3    0    0  0.38155751857E+02 -0.55452315294E+01  0.12485060807E+03  0.13066865153E+03  0.10566000000E+00 0. -1.
         13    1    4    4    0    0 -0.17622759686E+02  0.18401255883E+01  0.10871715567E+03  0.11015161743E+03  0.10566000000E+00 0.  1.
        -13    1    4    4    0    0 -0.19697486846E+01  0.20824098298E+00  0.10617039319E+02  0.10800738961E+02  0.10566000000E+00 0. -1.
        -14    1    4    4    0    0 -0.18563243486E+02  0.34968649581E+01  0.11375055039E+03  0.11530832488E+03  0.00000000000E+00 0.  1.
<mgrwt>
<rscale>  0 0.80742913E+02</rscale>
<asrwt>0</asrwt>
<pdfrwt beam="1">  1        1 0.69184443E-03 0.80742913E+02</pdfrwt>
<pdfrwt beam="2">  1       -2 0.55758833E-01 0.80742913E+02</pdfrwt>
<totfact> 0.61465783E+04</totfact>
</mgrwt>
</event>
<event>
 8    1  0.1319619E-020  0.8249176E+02  0.7818608E-02  0.1322125E+00
         -2   -1    0    0    0  501 -0.00000000000E+00  0.00000000000E+00  0.10168619117E+03  0.10168619121E+03  0.25500000000E-02 0.  1.
          1   -1    0    0  501    0  0.00000000000E+00 -0.00000000000E+00 -0.16730122781E+02  0.16730123540E+02  0.50400000000E-02 0. -1.
        -24    2    1    2    0    0  0.00000000000E+00 -0.35527136788E-14  0.84956068392E+02  0.11841631474E+03  0.82491757413E+02 0.  0.
         66    2    3    3    0    0  0.13011396740E+02  0.14348059711E+02  0.94737004626E+02  0.96717440575E+02  0.20000008333E+01 0.  0.
         13    1    3    3    0    0 -0.13011396740E+02 -0.14348059711E+02 -0.97809362335E+01  0.21698874170E+02  0.10566000000E+00 0. -1.
         13    1    4    4    0    0  0.42810926564E+01  0.53794427158E+01  0.37743815154E+02  0.38364995825E+02  0.10566000000E+00 0. -1.
        -13    1    4    4    0    0  0.21016537017E+01  0.20187543640E+01  0.13608429603E+02  0.13917357427E+02  0.10566000000E+00 0.  1.
         14    1    4    4    0    0  0.66286503821E+01  0.69498626313E+01  0.43384759869E+02  0.44435087322E+02  0.00000000000E+00 0. -1.
<mgrwt>
<rscale>  0 0.82491757E+02</rscale>
<asrwt>0</asrwt>
<pdfrwt beam="1">  1        1 0.25738652E-02 0.82491757E+02</pdfrwt>
<pdfrwt beam="2">  1       -2 0.15644029E-01 0.82491757E+02</pdfrwt>
<totfact> 0.97699467E+04</totfact>
</mgrwt>
</event>
<event>
 8    1  0.1319619E-020  0.8088822E+02  0.7818608E-02  0.1326550E+00
          1   -1    0    0  501    0  0.00000000000E+00  0.00000000000E+00  0.72819340202E+01  0.72819357644E+01  0.50400000000E-02 0. -1.
         -2   -1    0    0    0  501 -0.00000000000E+00 -0.00000000000E+00 -0.22462791154E+03  0.22462791156E+03  0.25500000000E-02 0.  1.
        -24    2    1    2    0    0  0.00000000000E+00  0.00000000000E+00 -0.21734597752E+03  0.23190984732E+03  0.80888215084E+02 0.  0.
         66    2    3    3    0    0 -0.18117878110E+02  0.21676512242E+02 -0.19161568649E+03  0.19369744448E+03  0.19999997847E+01 0.  0.
         13    1    3    3    0    0  0.18117878110E+02 -0.21676512242E+02 -0.25730291032E+02  0.38212402840E+02  0.10566000000E+00 0. -1.
         13    1    4    4    0    0 -0.73353652677E+00  0.11664102945E+01 -0.84229519359E+01  0.85355651342E+01  0.10566000000E+00 0. -1.
        -13    1    4    4    0    0 -0.46448064144E+01  0.45496451536E+01 -0.42320265982E+02  0.42816930933E+02  0.10566000000E+00 0.  1.
        -14    1    4    4    0    0 -0.12739535169E+02  0.15960456794E+02 -0.14087246857E+03  0.14234494841E+03  0.00000000000E+00 0.  1.
<mgrwt>
<rscale>  0 0.80888215E+02</rscale>
<asrwt>0</asrwt>
<pdfrwt beam="1">  1        1 0.11202979E-02 0.80888215E+02</pdfrwt>
<pdfrwt beam="2">  1       -2 0.34558135E-01 0.80888215E+02</pdfrwt>
<totfact> 0.78719221E+04</totfact>
</mgrwt>
</event>
<event>
 8    1  0.1319619E-020  0.7539069E+02  0.7818608E-02  0.1342665E+00
          1   -1    0    0  501    0  0.00000000000E+00  0.00000000000E+00  0.59973090233E+02  0.59973090445E+02  0.50400000000E-02 0. -1.
         -2   -1    0    0    0  501 -0.00000000000E+00 -0.00000000000E+00 -0.23692944376E+02  0.23692944513E+02  0.25500000000E-02 0.  1.
        -24    2    1    2    0    0  0.17763568394E-14  0.00000000000E+00  0.36280145857E+02  0.83666034958E+02  0.75390691881E+02 0.  0.
         66    2    3    3    0    0  0.10336910665E+02 -0.31192309668E+02 -0.22838435786E+01  0.33000421868E+02  0.19999993605E+01 0.  0.
         13    1    3    3    0    0 -0.10336910665E+02  0.31192309668E+02  0.38563989435E+02  0.50665613090E+02  0.10566000000E+00 0. -1.
         13    1    4    4    0    0  0.13295117671E+01 -0.31677672097E+01 -0.18747458860E+00  0.34421884595E+01  0.10566000000E+00 0. -1.
        -13    1    4    4    0    0  0.16345008156E+01 -0.34661305261E+01 -0.29086238748E-01  0.38337532243E+01  0.10566000000E+00 0.  1.
         14    1    4    4    0    0  0.73728980824E+01 -0.24558411933E+02 -0.20672827513E+01  0.25724480184E+02  0.00000000000E+00 0. -1.
<mgrwt>
<rscale>  0 0.75390692E+02</rscale>
<asrwt>0</asrwt>
<pdfrwt beam="1">  1        1 0.92266291E-02 0.75390692E+02</pdfrwt>
<pdfrwt beam="2">  1       -2 0.36450685E-02 0.75390692E+02</pdfrwt>
<totfact> 0.15931163E+05</totfact>
</mgrwt>
</event>
<event>
 8    1  0.1319619E-020  0.8118843E+02  0.7818608E-02  0.1325712E+00
          1   -1    0    0  501    0  0.00000000000E+00  0.00000000000E+00  0.20180366397E+03  0.20180366403E+03  0.50400000000E-02 0. -1.
         -2   -1    0    0    0  501 -0.00000000000E+00 -0.00000000000E+00 -0.81658084181E+01  0.81658088162E+01  0.25500000000E-02 0.  1.
        -24    2    1    2    0    0  0.00000000000E+00 -0.35527136788E-14  0.19363785555E+03  0.20996947285E+03  0.81188425443E+02 0.  0.
         66    2    3    3    0    0  0.33233116601E+02 -0.23224133253E+02  0.93143416089E+02  0.10160460801E+03  0.20000010104E+01 0.  0.
         13    1    3    3    0    0 -0.33233116601E+02  0.23224133253E+02  0.10049443946E+03  0.10836486484E+03  0.10566000000E+00 0. -1.
         13    1    4    4    0    0  0.18693844788E+01 -0.10843072825E+01  0.41917627368E+01  0.47172406648E+01  0.10566000000E+00 0. -1.
        -13    1    4    4    0    0  0.16095297846E+02 -0.11472300273E+02  0.44629419577E+02  0.48810537204E+02  0.10566000000E+00 0.  1.
         14    1    4    4    0    0  0.15268434276E+02 -0.10667525697E+02  0.44322233775E+02  0.48076830142E+02  0.00000000000E+00 0. -1.
<mgrwt>
<rscale>  0 0.81188425E+02</rscale>
<asrwt>0</asrwt>
<pdfrwt beam="1">  1        1 0.31046718E-01 0.81188425E+02</pdfrwt>
<pdfrwt beam="2">  1       -2 0.12562782E-02 0.81188425E+02</pdfrwt>
<totfact> 0.16061303E+05</totfact>
</mgrwt>
</event>
<event>
 8    1  0.1319619E-020  0.8107871E+02  0.7818608E-02  0.1326018E+00
         -2   -1    0    0    0  501 -0.00000000000E+00  0.00000000000E+00  0.20379487207E+02  0.20379487367E+02  0.25500000000E-02 0.  1.
          1   -1    0    0  501    0  0.00000000000E+00 -0.00000000000E+00 -0.80641843931E+02  0.80641844088E+02  0.50400000000E-02 0. -1.
        -24    2    1    2    0    0  0.00000000000E+00  0.00000000000E+00 -0.60262356723E+02  0.10102133146E+03  0.81078713428E+02 0.  0.
         66    2    3    3    0    0 -0.90992987605E+01  0.33463013669E+02 -0.40476175277E+01  0.34970755465E+02  0.20000021071E+01 0.  0.
         13    1    3    3    0    0  0.90992987605E+01 -0.33463013669E+02 -0.56214739196E+02  0.66050575990E+02  0.10566000000E+00 0. -1.
         13    1    4    4    0    0 -0.93231601511E+00  0.61207659938E+01 -0.65036384182E+00  0.62263252938E+01  0.10566000000E+00 0. -1.
        -13    1    4    4    0    0 -0.66771755674E+01  0.22802408606E+02 -0.30240336086E+01  0.23951836153E+02  0.10566000000E+00 0.  1.
         14    1    4    4    0    0 -0.14898071780E+01  0.45398390693E+01 -0.37322007735E+00  0.47925940188E+01  0.00000000000E+00 0. -1.
<mgrwt>
<rscale>  0 0.81078713E+02</rscale>
<asrwt>0</asrwt>
<pdfrwt beam="1">  1        1 0.12406437E-01 0.81078713E+02</pdfrwt>
<pdfrwt beam="2">  1       -2 0.31353058E-02 0.81078713E+02</pdfrwt>
<totfact> 0.13679061E+05</totfact>
</mgrwt>
</event>
<event>
 8    1  0.1319619E-020  0.7940516E+02  0.7818608E-02  0.1330748E+00
         -2   -1    0    0    0  501 -0.00000000000E+00  0.00000000000E+00  0.65769932147E+01  0.65769937090E+01  0.25500000000E-02 0.  1.
          1   -1    0    0  501    0  0.00000000000E+00 -0.00000000000E+00 -0.23966802397E+03  0.23966802402E+03  0.50400000000E-02 0. -1.
        -24    2    1    2    0    0 -0.35527136788E-14 -0.35527136788E-14 -0.23309103075E+03  0.24624501773E+03  0.79405164437E+02 0.  0.
         66    2    3    3    0    0  0.22714478700E+02  0.25940217090E+02 -0.55735491864E+02  0.65568951955E+02  0.20000004547E+01 0.  0.
         13    1    3    3    0    0 -0.22714478700E+02 -0.25940217090E+02 -0.17735553889E+03  0.18067606578E+03  0.10566000000E+00 0. -1.
         13    1    4    4    0    0  0.38338777065E+01  0.44105048891E+01 -0.93154089223E+01  0.10997235065E+02  0.10566000000E+00 0. -1.
        -13    1    4    4    0    0  0.11910018191E+02  0.14548932012E+02 -0.29356248767E+02  0.34861446638E+02  0.10566000000E+00 0.  1.
         14    1    4    4    0    0  0.69705828029E+01  0.69807801888E+01 -0.17063834175E+02  0.19710270252E+02  0.00000000000E+00 0. -1.
<mgrwt>
<rscale>  0 0.79405164E+02</rscale>
<asrwt>0</asrwt>
<pdfrwt beam="1">  1        1 0.36871997E-01 0.79405164E+02</pdfrwt>
<pdfrwt beam="2">  1       -2 0.10118453E-02 0.79405164E+02</pdfrwt>
<totfact> 0.17616941E+05</totfact>
</mgrwt>
</event>
<event>
 8    1  0.1319619E-020  0.7933083E+02  0.7818608E-02  0.1330961E+00
         -2   -1    0    0    0  501 -0.00000000000E+00  0.00000000000E+00  0.11856299399E+02  0.11856299674E+02  0.25500000000E-02 0.  1.
          1   -1    0    0  501    0  0.00000000000E+00 -0.00000000000E+00 -0.13270119505E+03  0.13270119514E+03  0.50400000000E-02 0. -1.
        -24    2    1    2    0    0  0.00000000000E+00  0.17763568394E-14 -0.12084489565E+03  0.14455749482E+03  0.79330829464E+02 0.  0.
         66    2    3    3    0    0  0.29838105811E+02 -0.10312879127E+02 -0.16778123275E+02  0.35807449711E+02  0.19999999783E+01 0.  0.
         13    1    3    3    0    0 -0.29838105811E+02  0.10312879127E+02 -0.10406677237E+03  0.10875004510E+03  0.10566000000E+00 0. -1.
         13    1    4    4    0    0  0.17296005474E+02 -0.55771361685E+01 -0.10516322683E+02  0.20996677356E+02  0.10566000000E+00 0.  1.
        -13    1    4    4    0    0  0.10595715767E+01 -0.24806349755E+00 -0.53652119057E+00  0.12178860573E+01  0.10566000000E+00 0. -1.
        -14    1    4    4    0    0  0.11482528760E+02 -0.44876794613E+01 -0.57252794019E+01  0.13592886297E+02  0.00000000000E+00 0.  1.
<mgrwt>
<rscale>  0 0.79330829E+02</rscale>
<asrwt>0</asrwt>
<pdfrwt beam="1">  1        1 0.20415568E-01 0.79330829E+02</pdfrwt>
<pdfrwt beam="2">  1       -2 0.18240462E-02 0.79330829E+02</pdfrwt>
<totfact> 0.15791293E+05</totfact>
</mgrwt>
</event>
<event>
 8    1  0.1319619E-020  0.8086168E+02  0.7818608E-02  0.1326624E+00
         -2   -1    0    0    0  501 -0.00000000000E+00  0.00000000000E+00  0.23077180220E+02  0.23077180361E+02  0.25500000000E-02 0.  1.
          1   -1    0    0  501    0  0.00000000000E+00 -0.00000000000E+00 -0.70834158150E+02  0.70834158329E+02  0.50400000000E-02 0. -1.
        -24    2    1    2    0    0 -0.71054273576E-14 -0.17763568394E-14 -0.47756977930E+02  0.93911338690E+02  0.80861675678E+02 0.  0.
         66    2    3    3    0    0  0.39520132718E+02  0.83979917065E+01 -0.24508174424E+02  0.47297122154E+02  0.19999989286E+01 0.  0.
         13    1    3    3    0    0 -0.39520132718E+02 -0.83979917065E+01 -0.23248803507E+02  0.46614216536E+02  0.10566000000E+00 0. -1.
         13    1    4    4    0    0  0.20321216540E+02  0.44092931004E+01 -0.13561007332E+02  0.24825506867E+02  0.10566000000E+00 0. -1.
        -13    1    4    4    0    0  0.14618420016E+02  0.33031166217E+01 -0.85962843450E+01  0.17277617074E+02  0.10566000000E+00 0.  1.
        -14    1    4    4    0    0  0.45804961625E+01  0.68558198435E+00 -0.23508827474E+01  0.51939982137E+01  0.00000000000E+00 0.  1.
<mgrwt>
<rscale>  0 0.80861676E+02</rscale>
<asrwt>0</asrwt>
<pdfrwt beam="1">  1        1 0.10897563E-01 0.80861676E+02</pdfrwt>
<pdfrwt beam="2">  1       -2 0.35503355E-02 0.80861676E+02</pdfrwt>
<totfact> 0.13494827E+05</totfact>
</mgrwt>
</event>
<event>
 8    1  0.1319619E-020  0.7977153E+02  0.7818608E-02  0.1329701E+00
         -2   -1    0    0    0  501 -0.00000000000E+00  0.00000000000E+00  0.93102718314E+01  0.93102721806E+01  0.25500000000E-02 0.  1.
          1   -1    0    0  501    0  0.00000000000E+00 -0.00000000000E+00 -0.17087301725E+03  0.17087301733E+03  0.50400000000E-02 0. -1.
        -24    2    1    2    0    0  0.35527136788E-14  0.00000000000E+00 -0.16156274542E+03  0.18018328951E+03  0.79771530697E+02 0.  0.
         66    2    3    3    0    0  0.20103801386E+02  0.32499115281E+02 -0.55226005406E+02  0.67188295082E+02  0.19999996544E+01 0.  0.
         13    1    3    3    0    0 -0.20103801386E+02 -0.32499115281E+02 -0.10633674001E+03  0.11299499443E+03  0.10566000000E+00 0. -1.
         13    1    4    4    0    0  0.65448308236E+01  0.89831657555E+01 -0.16140259981E+02  0.19597225155E+02  0.10566000000E+00 0. -1.
        -13    1    4    4    0    0  0.76689834478E+01  0.13769424793E+02 -0.22995629844E+02  0.27878675044E+02  0.10566000000E+00 0.  1.
         14    1    4    4    0    0  0.58899871151E+01  0.97465247329E+01 -0.16090115581E+02  0.19712394882E+02  0.00000000000E+00 0. -1.
<mgrwt>
<rscale>  0 0.79771531E+02</rscale>
<asrwt>0</asrwt>
<pdfrwt beam="1">  1        1 0.26288154E-01 0.79771531E+02</pdfrwt>
<pdfrwt beam="2">  1       -2 0.14323497E-02 0.79771531E+02</pdfrwt>
<totfact> 0.16301194E+05</totfact>
</mgrwt>
</event>
<event>
 8    1  0.1319619E-020  0.8225586E+02  0.7818608E-02  0.1322769E+00
         -2   -1    0    0    0  501 -0.00000000000E+00  0.00000000000E+00  0.89481294813E+01  0.89481298447E+01  0.25500000000E-02 0.  1.
          1   -1    0    0  501    0  0.00000000000E+00 -0.00000000000E+00 -0.18903464110E+03  0.18903464116E+03  0.50400000000E-02 0. -1.
        -24    2    1    2    0    0  0.00000000000E+00  0.00000000000E+00 -0.18008651162E+03  0.19798277101E+03  0.82255856633E+02 0.  0.
         66    2    3    3    0    0 -0.16582074075E+02 -0.33614180930E+02 -0.49489827369E+02  0.62113777340E+02  0.19999955559E+01 0.  0.
         13    1    3    3    0    0  0.16582074075E+02  0.33614180930E+02 -0.13059668425E+03  0.13586899367E+03  0.10566000000E+00 0. -1.
         13    1    4    4    0    0 -0.44362539746E+01 -0.98666232737E+01 -0.15021958179E+02  0.18512185061E+02  0.10566000000E+00 0. -1.
        -13    1    4    4    0    0 -0.47007243017E+01 -0.10520827674E+02 -0.14651914905E+02  0.18640665179E+02  0.10566000000E+00 0.  1.
         14    1    4    4    0    0 -0.74450957989E+01 -0.13226729982E+02 -0.19815954285E+02  0.24960927100E+02  0.00000000000E+00 0. -1.
<mgrwt>
<rscale>  0 0.82255857E+02</rscale>
<asrwt>0</asrwt>
<pdfrwt beam="1">  1        1 0.29082250E-01 0.82255857E+02</pdfrwt>
<pdfrwt beam="2">  1       -2 0.13766355E-02 0.82255857E+02</pdfrwt>
<totfact> 0.15316095E+05</totfact>
</mgrwt>
</event>
<event>
 8    1  0.1319619E-020  0.7979644E+02  0.7818608E-02  0.1329630E+00
         -2   -1    0    0    0  501 -0.00000000000E+00  0.00000000000E+00  0.10276258018E+03  0.10276258021E+03  0.25500000000E-02 0.  1.
          1   -1    0    0  501    0  0.00000000000E+00 -0.00000000000E+00 -0.15490734174E+02  0.15490734994E+02  0.50400000000E-02 0. -1.
        -24    2    1    2    0    0 -0.35527136788E-14  0.35527136788E-14  0.87271846003E+02  0.11825331520E+03  0.79796437588E+02 0.  0.
         66    2    3    3    0    0 -0.13043548650E+02  0.24364664234E+02  0.86256823985E+02  0.90598072330E+02  0.20000003104E+01 0.  0.
         13    1    3    3    0    0  0.13043548650E+02 -0.24364664234E+02  0.10150220177E+01  0.27655242873E+02  0.10566000000E+00 0. -1.
         13    1    4    4    0    0 -0.45081193444E+01  0.96888016378E+01  0.31606384682E+02  0.33364213371E+02  0.10566000000E+00 0. -1.
        -13    1    4    4    0    0 -0.72422640314E+01  0.13024271617E+02  0.47713600252E+02  0.49986806784E+02  0.10566000000E+00 0.  1.
         14    1    4    4    0    0 -0.12931652745E+01  0.16515909798E+01  0.69368390514E+01  0.72470521742E+01  0.00000000000E+00 0. -1.
<mgrwt>
<rscale>  0 0.79796438E+02</rscale>
<asrwt>0</asrwt>
<pdfrwt beam="1">  1        1 0.23831899E-02 0.79796438E+02</pdfrwt>
<pdfrwt beam="2">  1       -2 0.15809628E-01 0.79796438E+02</pdfrwt>
<totfact> 0.10609569E+05</totfact>
</mgrwt>
</event>
<event>
 8    1  0.1319619E-020  0.8039043E+02  0.7818608E-02  0.1327947E+00
          1   -1    0    0  501    0  0.00000000000E+00  0.00000000000E+00  0.20357560471E+02  0.20357561095E+02  0.50400000000E-02 0. -1.
         -2   -1    0    0    0  501 -0.00000000000E+00 -0.00000000000E+00 -0.79363893339E+02  0.79363893380E+02  0.25500000000E-02 0.  1.
        -24    2    1    2    0    0  0.00000000000E+00  0.00000000000E+00 -0.59006332868E+02  0.99721454475E+02  0.80390429555E+02 0.  0.
         66    2    3    3    0    0  0.26529323584E+02  0.25186660534E+02 -0.50109998146E+02  0.62074026751E+02  0.20000010523E+01 0.  0.
         13    1    3    3    0    0 -0.26529323584E+02 -0.25186660534E+02 -0.88963347221E+01  0.37647427724E+02  0.10566000000E+00 0. -1.
         13    1    4    4    0    0  0.13888347437E+02  0.14236764617E+02 -0.26266690677E+02  0.32947258831E+02  0.10566000000E+00 0. -1.
        -13    1    4    4    0    0  0.16255556353E+01  0.13053119007E+01 -0.28834064536E+01  0.35597004219E+01  0.10566000000E+00 0.  1.
         14    1    4    4    0    0  0.11015420512E+02  0.96445840159E+01 -0.20959901015E+02  0.25567067498E+02  0.00000000000E+00 0. -1.
<mgrwt>
<rscale>  0 0.80390430E+02</rscale>
<asrwt>0</asrwt>
<pdfrwt beam="1">  1        1 0.31319325E-02 0.80390430E+02</pdfrwt>
<pdfrwt beam="2">  1       -2 0.12209830E-01 0.80390430E+02</pdfrwt>
<totfact> 0.11057237E+05</totfact>
</mgrwt>
</event>
<event>
 8    1  0.1319619E-020  0.8129901E+02  0.7818608E-02  0.1325405E+00
         -2   -1    0    0    0  501 -0.00000000000E+00  0.00000000000E+00  0.91125067038E+01  0.91125070606E+01  0.25500000000E-02 0.  1.
          1   -1    0    0  501    0  0.00000000000E+00 -0.00000000000E+00 -0.18133123903E+03  0.18133123910E+03  0.50400000000E-02 0. -1.
        -24    2    1    2    0    0  0.00000000000E+00  0.71054273576E-14 -0.17221873233E+03  0.19044374616E+03  0.81299007914E+02 0.  0.
         66    2    3    3    0    0  0.21726845167E+02 -0.27767920001E+02 -0.38887644762E+02  0.52529630649E+02  0.19999997321E+01 0.  0.
         13    1    3    3    0    0 -0.21726845167E+02  0.27767920001E+02 -0.13333108757E+03  0.13791411551E+03  0.10566000000E+00 0. -1.
         13    1    4    4    0    0  0.72584962317E+01 -0.80889032291E+01 -0.11803530743E+02  0.16045267995E+02  0.10566000000E+00 0.  1.
        -13    1    4    4    0    0  0.23600141790E+01 -0.34170639261E+01 -0.51162441962E+01  0.65903802251E+01  0.10566000000E+00 0.  1.
        -14    1    4    4    0    0  0.12108334757E+02 -0.16261952846E+02 -0.21967869823E+02  0.29893982430E+02  0.00000000000E+00 0.  1.
<mgrwt>
<rscale>  0 0.81299008E+02</rscale>
<asrwt>0</asrwt>
<pdfrwt beam="1">  1        1 0.27897111E-01 0.81299008E+02</pdfrwt>
<pdfrwt beam="2">  1       -2 0.14019243E-02 0.81299008E+02</pdfrwt>
<totfact> 0.15674566E+05</totfact>
</mgrwt>
</event>
<event>
 8    1  0.1319619E-020  0.7905237E+02  0.7818608E-02  0.1331762E+00
         -2   -1    0    0    0  501 -0.00000000000E+00  0.00000000000E+00  0.32557458839E+03  0.32557458840E+03  0.25500000000E-02 0.  1.
          1   -1    0    0  501    0  0.00000000000E+00 -0.00000000000E+00 -0.47986510404E+01  0.47986536871E+01  0.50400000000E-02 0. -1.
        -24    2    1    2    0    0  0.88817841970E-15  0.00000000000E+00  0.32077593735E+03  0.33037324209E+03  0.79052369380E+02 0.  0.
         66    2    3    3    0    0 -0.62037067558E+01 -0.18156841625E+02  0.30478717006E+03  0.30539707908E+03  0.19999997298E+01 0.  0.
         13    1    3    3    0    0  0.62037067558E+01  0.18156841625E+02  0.15988767289E+02  0.24976163011E+02  0.10566000000E+00 0. -1.
         13    1    4    4    0    0 -0.28533993497E+01 -0.90860954040E+01  0.16200371448E+03  0.16228343627E+03  0.10566000000E+00 0. -1.
        -13    1    4    4    0    0 -0.93681788861E+00 -0.38482337430E+01  0.57392979855E+02  0.57529573537E+02  0.10566000000E+00 0.  1.
         14    1    4    4    0    0 -0.24134895176E+01 -0.52225124785E+01  0.85390475730E+02  0.85584069275E+02  0.00000000000E+00 0. -1.
<mgrwt>
<rscale>  0 0.79052369E+02</rscale>
<asrwt>0</asrwt>
<pdfrwt beam="1">  1        1 0.73825447E-03 0.79052369E+02</pdfrwt>
<pdfrwt beam="2">  1       -2 0.50088380E-01 0.79052369E+02</pdfrwt>
<totfact> 0.69221746E+04</totfact>
</mgrwt>
</event>
<event>
 8    1  0.1319619E-020  0.8033191E+02  0.7818608E-02  0.1328112E+00
          1   -1    0    0  501    0  0.00000000000E+00  0.00000000000E+00  0.69834711639E+01  0.69834729826E+01  0.50400000000E-02 0. -1.
         -2   -1    0    0    0  501 -0.00000000000E+00 -0.00000000000E+00 -0.23101744350E+03  0.23101744352E+03  0.25500000000E-02 0.  1.
        -24    2    1    2    0    0 -0.35527136788E-14  0.17763568394E-14 -0.22403397234E+03  0.23800091650E+03  0.80331908309E+02 0.  0.
         66    2    3    3    0    0 -0.29753881141E+02 -0.90962593067E+01 -0.18722861649E+03  0.18980671810E+03  0.20000065058E+01 0.  0.
         13    1    3    3    0    0  0.29753881141E+02  0.90962593067E+01 -0.36805355846E+02  0.48194198399E+02  0.10566000000E+00 0. -1.
         13    1    4    4    0    0 -0.82435112194E+01 -0.18010523011E+01 -0.50729932248E+02  0.51427001240E+02  0.10566000000E+00 0. -1.
        -13    1    4    4    0    0 -0.74079568280E+01 -0.28455842099E+01 -0.50072022119E+02  0.50697078190E+02  0.10566000000E+00 0.  1.
        -14    1    4    4    0    0 -0.14102413093E+02 -0.44496227957E+01 -0.86426662124E+02  0.87682638669E+02  0.00000000000E+00 0.  1.
<mgrwt>
<rscale>  0 0.80331908E+02</rscale>
<asrwt>0</asrwt>
<pdfrwt beam="1">  1        1 0.10743805E-02 0.80331908E+02</pdfrwt>
<pdfrwt beam="2">  1       -2 0.35541139E-01 0.80331908E+02</pdfrwt>
<totfact> 0.79138951E+04</totfact>
</mgrwt>
</event>
<event>
 8    1  0.1319619E-020  0.8343241E+02  0.7818608E-02  0.1319584E+00
          1   -1    0    0  501    0  0.00000000000E+00  0.00000000000E+00  0.40419513303E+02  0.40419513617E+02  0.50400000000E-02 0. -1.
         -2   -1    0    0    0  501 -0.00000000000E+00 -0.00000000000E+00 -0.43054494488E+02  0.43054494563E+02  0.25500000000E-02 0.  1.
        -24    2    1    2    0    0  0.71054273576E-14 -0.17763568394E-14 -0.26349811848E+01  0.83474008180E+02  0.83432409265E+02 0.  0.
         66    2    3    3    0    0 -0.34548869224E+02  0.96344290672E+01 -0.22584199554E+02  0.42432211610E+02  0.19999811162E+01 0.  0.
         13    1    3    3    0    0  0.34548869224E+02 -0.96344290672E+01  0.19949218369E+02  0.41041796570E+02  0.10566000000E+00 0. -1.
         13    1    4    4    0    0 -0.18101446235E+02  0.53399861576E+01 -0.11488187859E+02  0.22094511361E+02  0.10566000000E+00 0. -1.
        -13    1    4    4    0    0 -0.12427554655E+02  0.31674049776E+01 -0.77278771359E+01  0.14973570652E+02  0.10566000000E+00 0.  1.
        -14    1    4    4    0    0 -0.40198683335E+01  0.11270379320E+01 -0.33681345593E+01  0.53641295966E+01  0.00000000000E+00 0.  1.
<mgrwt>
<rscale>  0 0.83432409E+02</rscale>
<asrwt>0</asrwt>
<pdfrwt beam="1">  1        1 0.62183867E-02 0.83432409E+02</pdfrwt>
<pdfrwt beam="2">  1       -2 0.66237684E-02 0.83432409E+02</pdfrwt>
<totfact> 0.11294652E+05</totfact>
</mgrwt>
</event>
<event>
 8    1  0.1319619E-020  0.7931742E+02  0.7818608E-02  0.1331000E+00
          1   -1    0    0  501    0  0.00000000000E+00  0.00000000000E+00  0.98140607333E+02  0.98140607463E+02  0.50400000000E-02 0. -1.
         -2   -1    0    0    0  501 -0.00000000000E+00 -0.00000000000E+00 -0.16026119183E+02  0.16026119386E+02  0.25500000000E-02 0.  1.
        -24    2    1    2    0    0  0.00000000000E+00 -0.71054273576E-14  0.82114488150E+02  0.11416672685E+03  0.79317415208E+02 0.  0.
         66    2    3    3    0    0  0.15731460208E+02  0.29669704185E+02  0.10786845204E+02  0.35328829877E+02  0.20000010818E+01 0.  0.
         13    1    3    3    0    0 -0.15731460208E+02 -0.29669704185E+02  0.71327642946E+02  0.78837896972E+02  0.10566000000E+00 0. -1.
         13    1    4    4    0    0  0.48889436756E+01  0.80228287701E+01  0.31967846820E+01  0.99246233217E+01  0.10566000000E+00 0. -1.
        -13    1    4    4    0    0  0.96415785111E+01  0.18442680410E+02  0.62509990544E+01  0.21729672112E+02  0.10566000000E+00 0.  1.
         14    1    4    4    0    0  0.12009380209E+01  0.32041950046E+01  0.13390614671E+01  0.36745344427E+01  0.00000000000E+00 0. -1.
<mgrwt>
<rscale>  0 0.79317415E+02</rscale>
<asrwt>0</asrwt>
<pdfrwt beam="1">  1        1 0.15098555E-01 0.79317415E+02</pdfrwt>
<pdfrwt beam="2">  1       -2 0.24655568E-02 0.79317415E+02</pdfrwt>
<totfact> 0.14996193E+05</totfact>
</mgrwt>
</event>
<event>
 8    1  0.1319619E-020  0.7399217E+02  0.7818608E-02  0.1347021E+00
         -2   -1    0    0    0  501 -0.00000000000E+00  0.00000000000E+00  0.80297781650E+01  0.80297785699E+01  0.25500000000E-02 0.  1.
          1   -1    0    0  501    0  0.00000000000E+00 -0.00000000000E+00 -0.17045430508E+03  0.17045430515E+03  0.50400000000E-02 0. -1.
        -24    2    1    2    0    0  0.00000000000E+00  0.00000000000E+00 -0.16242452691E+03  0.17848408372E+03  0.73992169852E+02 0.  0.
         66    2    3    3    0    0 -0.23781633161E+02 -0.25731892177E+02 -0.52831057743E+02  0.63425681162E+02  0.20000044725E+01 0.  0.
         13    1    3    3    0    0  0.23781633161E+02  0.25731892177E+02 -0.10959346917E+03  0.11505840256E+03  0.10566000000E+00 0. -1.
         13    1    4    4    0    0 -0.30907852454E+01 -0.31166147441E+01 -0.55920363746E+01  0.71097310601E+01  0.10566000000E+00 0. -1.
        -13    1    4    4    0    0 -0.10540852585E+02 -0.11329802685E+02 -0.24359713550E+02  0.28859674467E+02  0.10566000000E+00 0.  1.
         14    1    4    4    0    0 -0.10149995331E+02 -0.11285474748E+02 -0.22879307818E+02  0.27456275635E+02  0.00000000000E+00 0. -1.
<mgrwt>
<rscale>  0 0.73992170E+02</rscale>
<asrwt>0</asrwt>
<pdfrwt beam="1">  1        1 0.26223737E-01 0.73992170E+02</pdfrwt>
<pdfrwt beam="2">  1       -2 0.12353507E-02 0.73992170E+02</pdfrwt>
<totfact> 0.19887906E+05</totfact>
</mgrwt>
</event>
<event>
 8    1  0.1319619E-020  0.7993347E+02  0.7818608E-02  0.1329240E+00
          1   -1    0    0  501    0  0.00000000000E+00  0.00000000000E+00  0.39239579316E+02  0.39239579640E+02  0.50400000000E-02 0. -1.
         -2   -1    0    0    0  501 -0.00000000000E+00 -0.00000000000E+00 -0.40707368681E+02  0.40707368760E+02  0.25500000000E-02 0.  1.
        -24    2    1    2    0    0  0.00000000000E+00  0.00000000000E+00 -0.14677893644E+01  0.79946948400E+02  0.79933473294E+02 0.  0.
         66    2    3    3    0    0 -0.34526131923E+02  0.27041309592E+01 -0.20636676444E+02  0.40363826925E+02  0.19999998810E+01 0.  0.
         13    1    3    3    0    0  0.34526131923E+02 -0.27041309592E+01  0.19168887080E+02  0.39583121475E+02  0.10566000000E+00 0. -1.
         13    1    4    4    0    0 -0.27636454203E+01  0.20114898556E+00 -0.20263232261E+01  0.34344354377E+01  0.10566000000E+00 0. -1.
        -13    1    4    4    0    0 -0.28381662119E+01 -0.75530137469E-01 -0.13219679405E+01  0.31336329586E+01  0.10566000000E+00 0.  1.
        -14    1    4    4    0    0 -0.28924320291E+02  0.25785121111E+01 -0.17288385278E+02  0.33795758528E+02  0.00000000000E+00 0.  1.
<mgrwt>
<rscale>  0 0.79933473E+02</rscale>
<asrwt>0</asrwt>
<pdfrwt beam="1">  1        1 0.60368584E-02 0.79933473E+02</pdfrwt>
<pdfrwt beam="2">  1       -2 0.62626721E-02 0.79933473E+02</pdfrwt>
<totfact> 0.12687669E+05</totfact>
</mgrwt>
</event>
<event>
 8    1  0.1319619E-020  0.7952700E+02  0.7818608E-02  0.1330399E+00
          1   -1    0    0  501    0  0.00000000000E+00  0.00000000000E+00  0.61139089038E+01  0.61139109811E+01  0.50400000000E-02 0. -1.
         -2   -1    0    0    0  501 -0.00000000000E+00 -0.00000000000E+00 -0.25861291442E+03  0.25861291443E+03  0.25500000000E-02 0.  1.
        -24    2    1    2    0    0  0.00000000000E+00  0.00000000000E+00 -0.25249900552E+03  0.26472682541E+03  0.79527003633E+02 0.  0.
         66    2    3    3    0    0  0.35025482243E+02 -0.10248759349E+02 -0.17867758161E+03  0.18237735507E+03  0.19999992891E+01 0.  0.
         13    1    3    3    0    0 -0.35025482243E+02  0.10248759349E+02 -0.73821423905E+02  0.82349470344E+02  0.10566000000E+00 0. -1.
         13    1    4    4    0    0  0.46036982638E+01 -0.13205034236E+01 -0.20569570307E+02  0.21120041516E+02  0.10566000000E+00 0. -1.
        -13    1    4    4    0    0  0.10521539208E+02 -0.30554863801E+01 -0.56433298131E+02  0.57487103652E+02  0.10566000000E+00 0.  1.
         14    1    4    4    0    0  0.19900244772E+02 -0.58727695451E+01 -0.10167471317E+03  0.10377020990E+03  0.00000000000E+00 0. -1.
<mgrwt>
<rscale>  0 0.79527004E+02</rscale>
<asrwt>0</asrwt>
<pdfrwt beam="1">  1        1 0.94060173E-03 0.79527004E+02</pdfrwt>
<pdfrwt beam="2">  1       -2 0.39786594E-01 0.79527004E+02</pdfrwt>
<totfact> 0.77035037E+04</totfact>
</mgrwt>
</event>
<event>
 8    1  0.1319619E-020  0.7502713E+02  0.7818608E-02  0.1343787E+00
         -2   -1    0    0    0  501 -0.00000000000E+00  0.00000000000E+00  0.94996874887E+01  0.94996878310E+01  0.25500000000E-02 0.  1.
          1   -1    0    0  501    0  0.00000000000E+00 -0.00000000000E+00 -0.14813828097E+03  0.14813828106E+03  0.50400000000E-02 0. -1.
        -24    2    1    2    0    0  0.00000000000E+00  0.00000000000E+00 -0.13863859348E+03  0.15763796889E+03  0.75027125977E+02 0.  0.
         66    2    3    3    0    0 -0.13036305593E+02 -0.24365845555E+02 -0.16147491373E+02  0.32068382788E+02  0.20000009710E+01 0.  0.
         13    1    3    3    0    0  0.13036305593E+02  0.24365845555E+02 -0.12249110211E+03  0.12556958610E+03  0.10566000000E+00 0. -1.
         13    1    4    4    0    0 -0.32381229330E+00 -0.10477811758E+01 -0.85044151754E+00  0.13918026455E+01  0.10566000000E+00 0. -1.
        -13    1    4    4    0    0 -0.11573121049E+02 -0.20866598501E+02 -0.14137913662E+02  0.27735245277E+02  0.10566000000E+00 0.  1.
         14    1    4    4    0    0 -0.11393722507E+01 -0.24514658780E+01 -0.11591361927E+01  0.29413348653E+01  0.00000000000E+00 0. -1.
<mgrwt>
<rscale>  0 0.75027126E+02</rscale>
<asrwt>0</asrwt>
<pdfrwt beam="1">  1        1 0.22790503E-01 0.75027126E+02</pdfrwt>
<pdfrwt beam="2">  1       -2 0.14614905E-02 0.75027126E+02</pdfrwt>
<totfact> 0.18687218E+05</totfact>
</mgrwt>
</event>
<event>
 8    1  0.1319619E-020  0.7507656E+02  0.7818608E-02  0.1343634E+00
         -2   -1    0    0    0  501 -0.00000000000E+00  0.00000000000E+00  0.47978983657E+03  0.47978983658E+03  0.25500000000E-02 0.  1.
          1   -1    0    0  501    0  0.00000000000E+00 -0.00000000000E+00 -0.29369556408E+01  0.29369599653E+01  0.50400000000E-02 0. -1.
        -24    2    1    2    0    0  0.00000000000E+00  0.00000000000E+00  0.47685288093E+03  0.48272679654E+03  0.75076561251E+02 0.  0.
         66    2    3    3    0    0 -0.10212526543E+02  0.30375522257E+02  0.36395958986E+03  0.36537316693E+03  0.20000025585E+01 0.  0.
         13    1    3    3    0    0  0.10212526543E+02 -0.30375522257E+02  0.11289329107E+03  0.11735362961E+03  0.10566000000E+00 0. -1.
         13    1    4    4    0    0 -0.36021331359E+01  0.95106043988E+01  0.12403085799E+03  0.12444714483E+03  0.10566000000E+00 0. -1.
        -13    1    4    4    0    0 -0.44740656497E+01  0.14542967041E+02  0.17001481600E+03  0.17069435836E+03  0.10566000000E+00 0.  1.
        -14    1    4    4    0    0 -0.21363277569E+01  0.63219508176E+01  0.69913915871E+02  0.70231663734E+02  0.00000000000E+00 0.  1.
<mgrwt>
<rscale>  0 0.75076561E+02</rscale>
<asrwt>0</asrwt>
<pdfrwt beam="1">  1        1 0.45183968E-03 0.75076561E+02</pdfrwt>
<pdfrwt beam="2">  1       -2 0.73813819E-01 0.75076561E+02</pdfrwt>
<totfact> 0.61230835E+04</totfact>
</mgrwt>
</event>
<event>
 8    1  0.1319619E-020  0.8239078E+02  0.7818608E-02  0.1322400E+00
          1   -1    0    0  501    0  0.00000000000E+00  0.00000000000E+00  0.59137777229E+03  0.59137777231E+03  0.50400000000E-02 0. -1.
         -2   -1    0    0    0  501 -0.00000000000E+00 -0.00000000000E+00 -0.28696713866E+01  0.28696725195E+01  0.25500000000E-02 0.  1.
        -24    2    1    2    0    0  0.00000000000E+00  0.00000000000E+00  0.58850810090E+03  0.59424744483E+03  0.82390781397E+02 0.  0.
         66    2    3    3    0    0 -0.20588709071E+02  0.29893179674E+02  0.43457291891E+03  0.43609072334E+03  0.20000010800E+01 0.  0.
         13    1    3    3    0    0  0.20588709071E+02 -0.29893179674E+02  0.15393518199E+03  0.15815672149E+03  0.10566000000E+00 0. -1.
         13    1    4    4    0    0 -0.60631619217E+01  0.90945210899E+01  0.12314902524E+03  0.12363319064E+03  0.10566000000E+00 0. -1.
        -13    1    4    4    0    0 -0.12876623003E+02  0.18367158922E+02  0.27955787776E+03  0.28045637473E+03  0.10566000000E+00 0.  1.
        -14    1    4    4    0    0 -0.16489241466E+01  0.24314996617E+01  0.31866015907E+02  0.32001157967E+02  0.00000000000E+00 0.  1.
<mgrwt>
<rscale>  0 0.82390781E+02</rscale>
<asrwt>0</asrwt>
<pdfrwt beam="1">  1        1 0.90981300E-01 0.82390781E+02</pdfrwt>
<pdfrwt beam="2">  1       -2 0.44148749E-03 0.82390781E+02</pdfrwt>
<totfact> 0.18438441E+05</totfact>
</mgrwt>
</event>
<event>
 8    1  0.1319619E-020  0.7991122E+02  0.7818608E-02  0.1329304E+00
         -2   -1    0    0    0  501 -0.00000000000E+00  0.00000000000E+00  0.59937702995E+01  0.59937708419E+01  0.25500000000E-02 0.  1.
          1   -1    0    0  501    0  0.00000000000E+00 -0.00000000000E+00 -0.26635164017E+03  0.26635164022E+03  0.50400000000E-02 0. -1.
        -24    2    1    2    0    0  0.00000000000E+00  0.00000000000E+00 -0.26035786987E+03  0.27234541106E+03  0.79911216495E+02 0.  0.
         66    2    3    3    0    0  0.36197129320E+02 -0.57796839360E+01 -0.76286366475E+02  0.84659592619E+02  0.19999987538E+01 0.  0.
         13    1    3    3    0    0 -0.36197129320E+02  0.57796839360E+01 -0.18407150339E+03  0.18768581844E+03  0.10566000000E+00 0. -1.
         13    1    4    4    0    0  0.39498113736E+01 -0.12080978187E+01 -0.90757417162E+01  0.99719988950E+01  0.10566000000E+00 0. -1.
        -13    1    4    4    0    0  0.25053606818E+02 -0.36946823747E+01 -0.52468189111E+02  0.58260243092E+02  0.10566000000E+00 0.  1.
        -14    1    4    4    0    0  0.71937111282E+01 -0.87690374252E+00 -0.14742435648E+02  0.16427350632E+02  0.00000000000E+00 0.  1.
<mgrwt>
<rscale>  0 0.79911216E+02</rscale>
<asrwt>0</asrwt>
<pdfrwt beam="1">  1        1 0.40977166E-01 0.79911216E+02</pdfrwt>
<pdfrwt beam="2">  1       -2 0.92211876E-03 0.79911216E+02</pdfrwt>
<totfact> 0.17683742E+05</totfact>
</mgrwt>
</event>
<event>
 8    1  0.1319619E-020  0.7990029E+02  0.7818608E-02  0.1329335E+00
         -2   -1    0    0    0  501 -0.00000000000E+00  0.00000000000E+00  0.16375182909E+02  0.16375183107E+02  0.25500000000E-02 0.  1.
          1   -1    0    0  501    0  0.00000000000E+00 -0.00000000000E+00 -0.97465431394E+02  0.97465431524E+02  0.50400000000E-02 0. -1.
        -24    2    1    2    0    0  0.00000000000E+00  0.00000000000E+00 -0.81090248485E+02  0.11384061463E+03  0.79900294995E+02 0.  0.
         66    2    3    3    0    0 -0.16761373744E+02 -0.17019753801E+02  0.50091111926E+01  0.24488913080E+02  0.19999999080E+01 0.  0.
         13    1    3    3    0    0  0.16761373744E+02  0.17019753801E+02 -0.86099359678E+02  0.89351701552E+02  0.10566000000E+00 0. -1.
         13    1    4    4    0    0 -0.27625292185E+01 -0.26629143569E+01  0.12782569673E+01  0.40457119849E+01  0.10566000000E+00 0. -1.
        -13    1    4    4    0    0 -0.12530314405E+02 -0.13390323888E+02  0.33079120462E+01  0.18634993937E+02  0.10566000000E+00 0.  1.
         14    1    4    4    0    0 -0.14685301208E+01 -0.96651555682E+00  0.42294217916E+00  0.18082071574E+01  0.00000000000E+00 0. -1.
<mgrwt>
<rscale>  0 0.79900295E+02</rscale>
<asrwt>0</asrwt>
<pdfrwt beam="1">  1        1 0.14994682E-01 0.79900295E+02</pdfrwt>
<pdfrwt beam="2">  1       -2 0.25192590E-02 0.79900295E+02</pdfrwt>
<totfact> 0.14685409E+05</totfact>
</mgrwt>
</event>
<event>
 8    1  0.1319619E-020  0.7673295E+02  0.7818608E-02  0.1338587E+00
         -2   -1    0    0    0  501 -0.00000000000E+00  0.00000000000E+00  0.95089490594E+01  0.95089494014E+01  0.25500000000E-02 0.  1.
          1   -1    0    0  501    0  0.00000000000E+00 -0.00000000000E+00 -0.15480011820E+03  0.15480011828E+03  0.50400000000E-02 0. -1.
        -24    2    1    2    0    0  0.00000000000E+00  0.00000000000E+00 -0.14529116914E+03  0.16430906768E+03  0.76732951805E+02 0.  0.
         66    2    3    3    0    0  0.37852713571E+02 -0.51670611744E+01 -0.65771001198E+02  0.76087784993E+02  0.19999951751E+01 0.  0.
         13    1    3    3    0    0 -0.37852713571E+02  0.51670611744E+01 -0.79520167940E+02  0.88221282688E+02  0.10566000000E+00 0. -1.
         13    1    4    4    0    0  0.27540676538E+02 -0.40036516104E+01 -0.49137074418E+02  0.56471066369E+02  0.10566000000E+00 0. -1.
        -13    1    4    4    0    0  0.92596497165E+01 -0.87483386769E+00 -0.15080204399E+02  0.17718074837E+02  0.10566000000E+00 0.  1.
         14    1    4    4    0    0  0.10523873160E+01 -0.28857569629E+00 -0.15537223803E+01  0.18986437871E+01  0.00000000000E+00 0. -1.
<mgrwt>
<rscale>  0 0.76732952E+02</rscale>
<asrwt>0</asrwt>
<pdfrwt beam="1">  1        1 0.23815401E-01 0.76732952E+02</pdfrwt>
<pdfrwt beam="2">  1       -2 0.14629154E-02 0.76732952E+02</pdfrwt>
<totfact> 0.17746129E+05</totfact>
</mgrwt>
</event>
<event>
 8    1  0.1319619E-020  0.7981586E+02  0.7818608E-02  0.1329575E+00
          1   -1    0    0  501    0  0.00000000000E+00  0.00000000000E+00  0.16609534329E+01  0.16609610795E+01  0.50400000000E-02 0. -1.
         -2   -1    0    0    0  501 -0.00000000000E+00 -0.00000000000E+00 -0.95887048865E+03  0.95887048865E+03  0.25500000000E-02 0.  1.
        -24    2    1    2    0    0  0.17763568394E-14  0.35527136788E-14 -0.95720953521E+03  0.96053144973E+03  0.79815860676E+02 0.  0.
         66    2    3    3    0    0  0.10990245945E+02  0.17573418094E+02 -0.88896086799E+03  0.88920472072E+03  0.20000007127E+01 0.  0.
         13    1    3    3    0    0 -0.10990245945E+02 -0.17573418094E+02 -0.68248667226E+02  0.71326729013E+02  0.10566000000E+00 0. -1.
         13    1    4    4    0    0  0.69089453282E+01  0.11851695246E+02 -0.55750167909E+03  0.55767044889E+03  0.10566000000E+00 0. -1.
        -13    1    4    4    0    0  0.40947971230E+01  0.57042914965E+01 -0.32877960710E+03  0.32885459935E+03  0.10566000000E+00 0.  1.
         14    1    4    4    0    0 -0.13496506515E-01  0.17431351668E-01 -0.26795817961E+01  0.26796724818E+01  0.00000000000E+00 0. -1.
<mgrwt>
<rscale>  0 0.79815861E+02</rscale>
<asrwt>0</asrwt>
<pdfrwt beam="1">  1        1 0.25553265E-03 0.79815861E+02</pdfrwt>
<pdfrwt beam="2">  1       -2 0.14751809E+00 0.79815861E+02</pdfrwt>
<totfact> 0.27528402E+04</totfact>
</mgrwt>
</event>
<event>
 8    1  0.1319619E-020  0.8477248E+02  0.7818608E-02  0.1316029E+00
          1   -1    0    0  501    0  0.00000000000E+00  0.00000000000E+00  0.57272133412E+02  0.57272133634E+02  0.50400000000E-02 0. -1.
         -2   -1    0    0    0  501 -0.00000000000E+00 -0.00000000000E+00 -0.31369417388E+02  0.31369417492E+02  0.25500000000E-02 0.  1.
        -24    2    1    2    0    0  0.00000000000E+00  0.00000000000E+00  0.25902716023E+02  0.88641551126E+02  0.84772483086E+02 0.  0.
         66    2    3    3    0    0 -0.28251229659E+02 -0.15518929864E+02 -0.15784576643E+02  0.35946098805E+02  0.19999995290E+01 0.  0.
         13    1    3    3    0    0  0.28251229659E+02  0.15518929864E+02  0.41687292667E+02  0.52695452321E+02  0.10566000000E+00 0. -1.
         13    1    4    4    0    0 -0.12705865380E+02 -0.61872233410E+01 -0.63896533956E+01  0.15509983310E+02  0.10566000000E+00 0. -1.
        -13    1    4    4    0    0 -0.12871153504E+02 -0.78301481331E+01 -0.81171085490E+01  0.17113632798E+02  0.10566000000E+00 0.  1.
        -14    1    4    4    0    0 -0.26742107752E+01 -0.15015583895E+01 -0.12778146987E+01  0.33224826969E+01  0.00000000000E+00 0.  1.
<mgrwt>
<rscale>  0 0.84772483E+02</rscale>
<asrwt>0</asrwt>
<pdfrwt beam="1">  1        1 0.88110975E-02 0.84772483E+02</pdfrwt>
<pdfrwt beam="2">  1       -2 0.48260642E-02 0.84772483E+02</pdfrwt>
<totfact> 0.11443205E+05</totfact>
</mgrwt>
</event>
<event>
 8    1  0.1319619E-020  0.8019465E+02  0.7818608E-02  0.1328500E+00
          1   -1    0    0  501    0  0.00000000000E+00  0.00000000000E+00  0.24080520111E+01  0.24080572854E+01  0.50400000000E-02 0. -1.
         -2   -1    0    0    0  501 -0.00000000000E+00 -0.00000000000E+00 -0.66767400550E+03  0.66767400550E+03  0.25500000000E-02 0.  1.
        -24    2    1    2    0    0  0.00000000000E+00  0.00000000000E+00 -0.66526595348E+03  0.67008206279E+03  0.80194650705E+02 0.  0.
         66    2    3    3    0    0 -0.11058455171E+01  0.34959564525E+02 -0.49623457960E+03  0.49746974988E+03  0.20000017069E+01 0.  0.
         13    1    3    3    0    0  0.11058455171E+01 -0.34959564525E+02 -0.16903137388E+03  0.17261231291E+03  0.10566000000E+00 0. -1.
         13    1    4    4    0    0  0.66060180822E-01  0.11363441148E+02 -0.17149941082E+03  0.17187551087E+03  0.10566000000E+00 0. -1.
        -13    1    4    4    0    0  0.69531740850E-01  0.30254836668E+01 -0.42042814966E+02  0.42151724050E+02  0.10566000000E+00 0.  1.
         14    1    4    4    0    0 -0.12414374388E+01  0.20570639710E+02 -0.28269235381E+03  0.28344251496E+03  0.00000000000E+00 0. -1.
<mgrwt>
<rscale>  0 0.80194651E+02</rscale>
<asrwt>0</asrwt>
<pdfrwt beam="1">  1        1 0.37047048E-03 0.80194651E+02</pdfrwt>
<pdfrwt beam="2">  1       -2 0.10271893E+00 0.80194651E+02</pdfrwt>
<totfact> 0.39295469E+04</totfact>
</mgrwt>
</event>
<event>
 8    1  0.1319619E-020  0.7892252E+02  0.7818608E-02  0.1332137E+00
          1   -1    0    0  501    0  0.00000000000E+00  0.00000000000E+00  0.74717616700E+02  0.74717616870E+02  0.50400000000E-02 0. -1.
         -2   -1    0    0    0  501 -0.00000000000E+00 -0.00000000000E+00 -0.20841013564E+02  0.20841013720E+02  0.25500000000E-02 0.  1.
        -24    2    1    2    0    0  0.00000000000E+00  0.00000000000E+00  0.53876603136E+02  0.95558630590E+02  0.78922515893E+02 0.  0.
         66    2    3    3    0    0  0.10540406885E+01  0.34808854056E+02  0.45504117657E+01  0.35177742541E+02  0.20000001525E+01 0.  0.
         13    1    3    3    0    0 -0.10540406885E+01 -0.34808854056E+02  0.49326191370E+02  0.60380888049E+02  0.10566000000E+00 0. -1.
         13    1    4    4    0    0 -0.26761591264E+00  0.25361301628E+01  0.65062250656E+00  0.26340174944E+01  0.10566000000E+00 0. -1.
        -13    1    4    4    0    0  0.55714019380E+00  0.75437725687E+01  0.11132928283E+01  0.76465348179E+01  0.10566000000E+00 0.  1.
        -14    1    4    4    0    0  0.76451640739E+00  0.24728951324E+02  0.27864964308E+01  0.24897190229E+02  0.00000000000E+00 0.  1.
<mgrwt>
<rscale>  0 0.78922516E+02</rscale>
<asrwt>0</asrwt>
<pdfrwt beam="1">  1        1 0.11495018E-01 0.78922516E+02</pdfrwt>
<pdfrwt beam="2">  1       -2 0.32063098E-02 0.78922516E+02</pdfrwt>
<totfact> 0.14543298E+05</totfact>
</mgrwt>
</event>
<event>
 8    1  0.1319619E-020  0.7853709E+02  0.7818608E-02  0.1333255E+00
          1   -1    0    0  501    0  0.00000000000E+00  0.00000000000E+00  0.56604547255E+01  0.56604569692E+01  0.50400000000E-02 0. -1.
         -2   -1    0    0    0  501 -0.00000000000E+00 -0.00000000000E+00 -0.27241950588E+03  0.27241950589E+03  0.25500000000E-02 0.  1.
        -24    2    1    2    0    0  0.00000000000E+00  0.00000000000E+00 -0.26675905115E+03  0.27807996286E+03  0.78537089149E+02 0.  0.
         66    2    3    3    0    0 -0.21544831205E+02  0.50770302132E+01 -0.24820224748E+03  0.24919532830E+03  0.20000003311E+01 0.  0.
         13    1    3    3    0    0  0.21544831205E+02 -0.50770302132E+01 -0.18556803671E+02  0.28884634565E+02  0.10566000000E+00 0. -1.
         13    1    4    4    0    0 -0.62146726829E+01  0.17930308129E+01 -0.76458966900E+02  0.76732143848E+02  0.10566000000E+00 0. -1.
        -13    1    4    4    0    0 -0.69944242579E+01  0.16032432889E+01 -0.86245387891E+02  0.86543459928E+02  0.10566000000E+00 0.  1.
        -14    1    4    4    0    0 -0.83357342640E+01  0.16807561114E+01 -0.85497892691E+02  0.85919724519E+02  0.00000000000E+00 0.  1.
<mgrwt>
<rscale>  0 0.78537089E+02</rscale>
<asrwt>0</asrwt>
<pdfrwt beam="1">  1        1 0.87083958E-03 0.78537089E+02</pdfrwt>
<pdfrwt beam="2">  1       -2 0.41910683E-01 0.78537089E+02</pdfrwt>
<totfact> 0.77530447E+04</totfact>
</mgrwt>
</event>
<event>
 8    1  0.1319619E-020  0.7962801E+02  0.7818608E-02  0.1330110E+00
         -2   -1    0    0    0  501 -0.00000000000E+00  0.00000000000E+00  0.82554521146E+02  0.82554521185E+02  0.25500000000E-02 0.  1.
          1   -1    0    0  501    0  0.00000000000E+00 -0.00000000000E+00 -0.19201309730E+02  0.19201310392E+02  0.50400000000E-02 0. -1.
        -24    2    1    2    0    0  0.00000000000E+00  0.00000000000E+00  0.63353211415E+02  0.10175583158E+03  0.79628009289E+02 0.  0.
         66    2    3    3    0    0 -0.21705833565E+02  0.26686134547E+02  0.57249763766E+02  0.66819371752E+02  0.20000005755E+01 0.  0.
         13    1    3    3    0    0  0.21705833565E+02 -0.26686134547E+02  0.61034476495E+01  0.34936459825E+02  0.10566000000E+00 0. -1.
         13    1    4    4    0    0 -0.11064600406E+02  0.13814621433E+02  0.28835679303E+02  0.33834549094E+02  0.10566000000E+00 0.  1.
        -13    1    4    4    0    0 -0.67470584466E+01  0.83044477595E+01  0.16957494854E+02  0.20051295370E+02  0.10566000000E+00 0. -1.
         14    1    4    4    0    0 -0.38941747126E+01  0.45670653542E+01  0.11456589609E+02  0.12933527288E+02  0.00000000000E+00 0. -1.
<mgrwt>
<rscale>  0 0.79628009E+02</rscale>
<asrwt>0</asrwt>
<pdfrwt beam="1">  1        1 0.29540477E-02 0.79628009E+02</pdfrwt>
<pdfrwt beam="2">  1       -2 0.12700696E-01 0.79628009E+02</pdfrwt>
<totfact> 0.11232399E+05</totfact>
</mgrwt>
</event>
<event>
 8    1  0.1319619E-020  0.7998697E+02  0.7818608E-02  0.1329088E+00
          1   -1    0    0  501    0  0.00000000000E+00  0.00000000000E+00  0.11947436617E+03  0.11947436628E+03  0.50400000000E-02 0. -1.
         -2   -1    0    0    0  501 -0.00000000000E+00 -0.00000000000E+00 -0.13387630928E+02  0.13387631171E+02  0.25500000000E-02 0.  1.
        -24    2    1    2    0    0  0.00000000000E+00 -0.35527136788E-14  0.10608673525E+03  0.13286199745E+03  0.79986967511E+02 0.  0.
         66    2    3    3    0    0  0.26318026371E+02 -0.23093928065E+02  0.21060641497E+02  0.40908662505E+02  0.20000055418E+01 0.  0.
         13    1    3    3    0    0 -0.26318026371E+02  0.23093928065E+02  0.85026093750E+02  0.91953334947E+02  0.10566000000E+00 0. -1.
         13    1    4    4    0    0  0.10888538927E+02 -0.94845278063E+01  0.85602724491E+01  0.16787077652E+02  0.10566000000E+00 0.  1.
        -13    1    4    4    0    0  0.14961996114E+02 -0.13246368431E+02  0.11810675301E+02  0.23212729685E+02  0.10566000000E+00 0. -1.
         14    1    4    4    0    0  0.46749132955E+00 -0.36303182773E+00  0.68969374659E+00  0.90885516735E+00  0.00000000000E+00 0. -1.
<mgrwt>
<rscale>  0 0.79986968E+02</rscale>
<asrwt>0</asrwt>
<pdfrwt beam="1">  1        1 0.18380672E-01 0.79986968E+02</pdfrwt>
<pdfrwt beam="2">  1       -2 0.20596355E-02 0.79986968E+02</pdfrwt>
<totfact> 0.15161385E+05</totfact>
</mgrwt>
</event>
<event>
 8    1  0.1319619E-020  0.7831239E+02  0.7818608E-02  0.1333910E+00
          1   -1    0    0  501    0  0.00000000000E+00  0.00000000000E+00  0.61543289653E+01  0.61543310290E+01  0.50400000000E-02 0. -1.
         -2   -1    0    0    0  501 -0.00000000000E+00 -0.00000000000E+00 -0.24912666522E+03  0.24912666523E+03  0.25500000000E-02 0.  1.
        -24    2    1    2    0    0  0.00000000000E+00  0.00000000000E+00 -0.24297233625E+03  0.25528099626E+03  0.78312392809E+02 0.  0.
         66    2    3    3    0    0  0.33958632199E+02  0.18420637108E+02 -0.14184252038E+03  0.14702315869E+03  0.20000080043E+01 0.  0.
         13    1    3    3    0    0 -0.33958632199E+02 -0.18420637108E+02 -0.10112981588E+03  0.10825783757E+03  0.10566000000E+00 0. -1.
         13    1    4    4    0    0  0.65640428908E+01  0.33818654492E+01 -0.28050905337E+02  0.29006691078E+02  0.10566000000E+00 0. -1.
        -13    1    4    4    0    0  0.10922346971E+02  0.64084704729E+01 -0.48841630520E+02  0.50456735854E+02  0.10566000000E+00 0.  1.
         14    1    4    4    0    0  0.16472242337E+02  0.86303011859E+01 -0.64949984521E+02  0.67559731760E+02  0.00000000000E+00 0. -1.
<mgrwt>
<rscale>  0 0.78312393E+02</rscale>
<asrwt>0</asrwt>
<pdfrwt beam="1">  1        1 0.94682019E-03 0.78312393E+02</pdfrwt>
<pdfrwt beam="2">  1       -2 0.38327172E-01 0.78312393E+02</pdfrwt>
<totfact> 0.81612751E+04</totfact>
</mgrwt>
</event>
<event>
 8    1  0.1319619E-020  0.8439780E+02  0.7818608E-02  0.1317015E+00
         -2   -1    0    0    0  501 -0.00000000000E+00  0.00000000000E+00  0.93690014724E+01  0.93690018195E+01  0.25500000000E-02 0.  1.
          1   -1    0    0  501    0  0.00000000000E+00 -0.00000000000E+00 -0.19006796641E+03  0.19006796648E+03  0.50400000000E-02 0. -1.
        -24    2    1    2    0    0  0.00000000000E+00  0.00000000000E+00 -0.18069896494E+03  0.19943696830E+03  0.84397798512E+02 0.  0.
         66    2    3    3    0    0 -0.32890619952E+02 -0.15279077032E+02 -0.39525719262E+02  0.53679843138E+02  0.20000000977E+01 0.  0.
         13    1    3    3    0    0  0.32890619952E+02  0.15279077032E+02 -0.14117324568E+03  0.14575712516E+03  0.10566000000E+00 0. -1.
         13    1    4    4    0    0 -0.19009663047E+01 -0.11560061363E+01 -0.25247412606E+01  0.33668242525E+01  0.10566000000E+00 0.  1.
        -13    1    4    4    0    0 -0.23464109742E+02 -0.11341089249E+02 -0.28755891404E+02  0.38808468223E+02  0.10566000000E+00 0.  1.
        -14    1    4    4    0    0 -0.75255439055E+01 -0.27819816467E+01 -0.82450865974E+01  0.11504550663E+02  0.00000000000E+00 0.  1.
<mgrwt>
<rscale>  0 0.84397799E+02</rscale>
<asrwt>0</asrwt>
<pdfrwt beam="1">  1        1 0.29241223E-01 0.84397799E+02</pdfrwt>
<pdfrwt beam="2">  1       -2 0.14413850E-02 0.84397799E+02</pdfrwt>
<totfact> 0.14315222E+05</totfact>
</mgrwt>
</event>
<event>
 8    1  0.1319619E-020  0.7731330E+02  0.7818608E-02  0.1336854E+00
          1   -1    0    0  501    0  0.00000000000E+00  0.00000000000E+00  0.44137609769E+01  0.44137638545E+01  0.50400000000E-02 0. -1.
         -2   -1    0    0    0  501 -0.00000000000E+00 -0.00000000000E+00 -0.33856298555E+03  0.33856298556E+03  0.25500000000E-02 0.  1.
        -24    2    1    2    0    0  0.00000000000E+00 -0.55511151231E-16 -0.33414922457E+03  0.34297674942E+03  0.77313299994E+02 0.  0.
         66    2    3    3    0    0 -0.14585276648E+02 -0.35684215186E+00 -0.32586757311E+03  0.32620014230E+03  0.20000001869E+01 0.  0.
         13    1    3    3    0    0  0.14585276648E+02  0.35684215186E+00 -0.82816514600E+01  0.16776607111E+02  0.10566000000E+00 0. -1.
         13    1    4    4    0    0 -0.13397689767E+01  0.35235870814E+00 -0.40382658097E+02  0.40406551159E+02  0.10566000000E+00 0. -1.
        -13    1    4    4    0    0 -0.73173779195E+01 -0.14556186510E+00 -0.15356323587E+03  0.15373758090E+03  0.10566000000E+00 0.  1.
        -14    1    4    4    0    0 -0.59281297516E+01 -0.56363899489E+00 -0.13192167915E+03  0.13205601024E+03  0.00000000000E+00 0.  1.
<mgrwt>
<rscale>  0 0.77313300E+02</rscale>
<asrwt>0</asrwt>
<pdfrwt beam="1">  1        1 0.67904064E-03 0.77313300E+02</pdfrwt>
<pdfrwt beam="2">  1       -2 0.52086593E-01 0.77313300E+02</pdfrwt>
<totfact> 0.71654058E+04</totfact>
</mgrwt>
</event>
<event>
 8    1  0.1319619E-020  0.8106647E+02  0.7818608E-02  0.1326052E+00
         -2   -1    0    0    0  501 -0.00000000000E+00  0.00000000000E+00  0.22090497549E+02  0.22090497696E+02  0.25500000000E-02 0.  1.
          1   -1    0    0  501    0  0.00000000000E+00 -0.00000000000E+00 -0.74373300659E+02  0.74373300830E+02  0.50400000000E-02 0. -1.
        -24    2    1    2    0    0  0.00000000000E+00  0.00000000000E+00 -0.52282803110E+02  0.96463798526E+02  0.81066472262E+02 0.  0.
         66    2    3    3    0    0  0.20511323368E+01  0.40360069876E+02 -0.29479694639E+02  0.50061909510E+02  0.20000008943E+01 0.  0.
         13    1    3    3    0    0 -0.20511323368E+01 -0.40360069876E+02 -0.22803108471E+02  0.46401889016E+02  0.10566000000E+00 0. -1.
         13    1    4    4    0    0  0.35155832696E+00  0.65714489005E+01 -0.41075073859E+01  0.77582417383E+01  0.10566000000E+00 0. -1.
        -13    1    4    4    0    0  0.15337587891E+01  0.26266567767E+02 -0.20248426474E+02  0.33200827354E+02  0.10566000000E+00 0.  1.
        -14    1    4    4    0    0  0.16581522066E+00  0.75220532085E+01 -0.51237607792E+01  0.91028404183E+01  0.00000000000E+00 0.  1.
<mgrwt>
<rscale>  0 0.81066472E+02</rscale>
<asrwt>0</asrwt>
<pdfrwt beam="1">  1        1 0.11442046E-01 0.81066472E+02</pdfrwt>
<pdfrwt beam="2">  1       -2 0.33985381E-02 0.81066472E+02</pdfrwt>
<totfact> 0.13506770E+05</totfact>
</mgrwt>
</event>
<event>
 8    1  0.1319619E-020  0.8052351E+02  0.7818608E-02  0.1327572E+00
          1   -1    0    0  501    0  0.00000000000E+00  0.00000000000E+00  0.46345349391E+01  0.46345376796E+01  0.50400000000E-02 0. -1.
         -2   -1    0    0    0  501 -0.00000000000E+00 -0.00000000000E+00 -0.34976725125E+03  0.34976725126E+03  0.25500000000E-02 0.  1.
        -24    2    1    2    0    0  0.17763568394E-14  0.35527136788E-14 -0.34513271631E+03  0.35440178894E+03  0.80523512933E+02 0.  0.
         66    2    3    3    0    0  0.13938827215E+02  0.29072360773E+02 -0.27862326696E+03  0.28048960400E+03  0.19999993467E+01 0.  0.
         13    1    3    3    0    0 -0.13938827215E+02 -0.29072360773E+02 -0.66509449356E+02  0.73912184941E+02  0.10566000000E+00 0. -1.
         13    1    4    4    0    0  0.51250073370E+01  0.11355294200E+02 -0.11018006266E+03  0.11088221579E+03  0.10566000000E+00 0.  1.
        -13    1    4    4    0    0  0.83261540894E+01  0.16121360786E+02 -0.15172209423E+03  0.15280323347E+03  0.10566000000E+00 0. -1.
         14    1    4    4    0    0  0.48766578854E+00  0.15957057873E+01 -0.16721110065E+02  0.16804154745E+02  0.00000000000E+00 0. -1.
<mgrwt>
<rscale>  0 0.80523513E+02</rscale>
<asrwt>0</asrwt>
<pdfrwt beam="1">  1        1 0.71300587E-03 0.80523513E+02</pdfrwt>
<pdfrwt beam="2">  1       -2 0.53810325E-01 0.80523513E+02</pdfrwt>
<totfact> 0.63264756E+04</totfact>
</mgrwt>
</event>
<event>
 8    1  0.1319619E-020  0.8221211E+02  0.7818608E-02  0.1322888E+00
          1   -1    0    0  501    0  0.00000000000E+00  0.00000000000E+00  0.57483836315E+02  0.57483836536E+02  0.50400000000E-02 0. -1.
         -2   -1    0    0    0  501 -0.00000000000E+00 -0.00000000000E+00 -0.29394486368E+02  0.29394486479E+02  0.25500000000E-02 0.  1.
        -24    2    1    2    0    0 -0.44408920985E-15  0.00000000000E+00  0.28089349946E+02  0.86878323015E+02  0.82212112425E+02 0.  0.
         66    2    3    3    0    0 -0.26108458230E+01  0.34608482535E+02 -0.91750354563E+01  0.35954761054E+02  0.19999968833E+01 0.  0.
         13    1    3    3    0    0  0.26108458230E+01 -0.34608482535E+02  0.37264385403E+02  0.50923561961E+02  0.10566000000E+00 0. -1.
         13    1    4    4    0    0 -0.89756647548E+00  0.15551967851E+02 -0.37334145866E+01  0.16019328267E+02  0.10566000000E+00 0. -1.
        -13    1    4    4    0    0 -0.31297878642E+00  0.20405541592E+01 -0.20667190908E+00  0.20774249231E+01  0.10566000000E+00 0.  1.
         14    1    4    4    0    0 -0.14003005611E+01  0.17015960524E+02 -0.52349489607E+01  0.17858007863E+02  0.00000000000E+00 0. -1.
<mgrwt>
<rscale>  0 0.82212112E+02</rscale>
<asrwt>0</asrwt>
<pdfrwt beam="1">  1        1 0.88436671E-02 0.82212112E+02</pdfrwt>
<pdfrwt beam="2">  1       -2 0.45222287E-02 0.82212112E+02</pdfrwt>
<totfact> 0.12469875E+05</totfact>
</mgrwt>
</event>
<event>
 8    1  0.1319619E-020  0.7960816E+02  0.7818608E-02  0.1330167E+00
          1   -1    0    0  501    0  0.00000000000E+00  0.00000000000E+00  0.14764203190E+02  0.14764204051E+02  0.50400000000E-02 0. -1.
         -2   -1    0    0    0  501 -0.00000000000E+00 -0.00000000000E+00 -0.10731123423E+03  0.10731123426E+03  0.25500000000E-02 0.  1.
        -24    2    1    2    0    0 -0.35527136788E-14  0.00000000000E+00 -0.92547031040E+02  0.12207543831E+03  0.79608163429E+02 0.  0.
         66    2    3    3    0    0  0.16564597792E+02 -0.35733125893E+02 -0.54856753217E+02  0.67561124663E+02  0.20000015267E+01 0.  0.
         13    1    3    3    0    0 -0.16564597792E+02  0.35733125893E+02 -0.37690277823E+02  0.54514313648E+02  0.10566000000E+00 0. -1.
         13    1    4    4    0    0  0.80130268660E+00 -0.26146499312E+01 -0.37750790766E+01  0.46627101913E+01  0.10566000000E+00 0. -1.
        -13    1    4    4    0    0  0.14735709994E+01 -0.34425067751E+01 -0.46641545736E+01  0.59822877153E+01  0.10566000000E+00 0.  1.
        -14    1    4    4    0    0  0.14289724106E+02 -0.29675969187E+02 -0.46417519567E+02  0.56916126756E+02  0.00000000000E+00 0.  1.
<mgrwt>
<rscale>  0 0.79608163E+02</rscale>
<asrwt>0</asrwt>
<pdfrwt beam="1">  1        1 0.22714160E-02 0.79608163E+02</pdfrwt>
<pdfrwt beam="2">  1       -2 0.16509420E-01 0.79608163E+02</pdfrwt>
<totfact> 0.10556196E+05</totfact>
</mgrwt>
</event>
<event>
 8    1  0.1319619E-020  0.7945609E+02  0.7818608E-02  0.1330602E+00
          1   -1    0    0  501    0  0.00000000000E+00  0.00000000000E+00  0.15155998602E+02  0.15155999440E+02  0.50400000000E-02 0. -1.
         -2   -1    0    0    0  501 -0.00000000000E+00 -0.00000000000E+00 -0.10413813992E+03  0.10413813995E+03  0.25500000000E-02 0.  1.
        -24    2    1    2    0    0  0.00000000000E+00  0.00000000000E+00 -0.88982141318E+02  0.11929413939E+03  0.79456089883E+02 0.  0.
         66    2    3    3    0    0 -0.24859434893E+02 -0.30434671757E+02 -0.53019172253E+02  0.66024945140E+02  0.20000015222E+01 0.  0.
         13    1    3    3    0    0  0.24859434893E+02  0.30434671757E+02 -0.35962969065E+02  0.53269194251E+02  0.10566000000E+00 0. -1.
         13    1    4    4    0    0 -0.15274977665E+02 -0.18662301136E+02 -0.33267178924E+02  0.41089205200E+02  0.10566000000E+00 0.  1.
        -13    1    4    4    0    0 -0.23350494191E+01 -0.34972738328E+01 -0.50248185954E+01  0.65531172738E+01  0.10566000000E+00 0. -1.
         14    1    4    4    0    0 -0.72494078090E+01 -0.82750967886E+01 -0.14727174734E+02  0.18382622666E+02  0.00000000000E+00 0. -1.
<mgrwt>
<rscale>  0 0.79456090E+02</rscale>
<asrwt>0</asrwt>
<pdfrwt beam="1">  1        1 0.23316922E-02 0.79456090E+02</pdfrwt>
<pdfrwt beam="2">  1       -2 0.16021252E-01 0.79456090E+02</pdfrwt>
<totfact> 0.10690215E+05</totfact>
</mgrwt>
</event>
<event>
 8    1  0.1319619E-020  0.8041653E+02  0.7818608E-02  0.1327874E+00
          1   -1    0    0  501    0  0.00000000000E+00  0.00000000000E+00  0.46288313076E+02  0.46288313350E+02  0.50400000000E-02 0. -1.
         -2   -1    0    0    0  501 -0.00000000000E+00 -0.00000000000E+00 -0.34926843826E+02  0.34926843919E+02  0.25500000000E-02 0.  1.
        -24    2    1    2    0    0  0.35527136788E-14 -0.35527136788E-14  0.11361469250E+02  0.81215157269E+02  0.80416533043E+02 0.  0.
         66    2    3    3    0    0 -0.26009144882E+02  0.30628011641E+02  0.52943776496E+01  0.40578087012E+02  0.19999990660E+01 0.  0.
         13    1    3    3    0    0  0.26009144882E+02 -0.30628011641E+02  0.60670916003E+01  0.40637070257E+02  0.10566000000E+00 0. -1.
         13    1    4    4    0    0 -0.10530523459E+01  0.16178501342E+01  0.16085784200E+00  0.19399478294E+01  0.10566000000E+00 0. -1.
        -13    1    4    4    0    0 -0.14632974069E+02  0.18104477248E+02  0.31376030342E+01  0.23489396402E+02  0.10566000000E+00 0.  1.
        -14    1    4    4    0    0 -0.10323118467E+02  0.10905684259E+02  0.19959167734E+01  0.15148742780E+02  0.00000000000E+00 0.  1.
<mgrwt>
<rscale>  0 0.80416533E+02</rscale>
<asrwt>0</asrwt>
<pdfrwt beam="1">  1        1 0.71212790E-02 0.80416533E+02</pdfrwt>
<pdfrwt beam="2">  1       -2 0.53733606E-02 0.80416533E+02</pdfrwt>
<totfact> 0.12810693E+05</totfact>
</mgrwt>
</event>
<event>
 8    1  0.1319619E-020  0.7987905E+02  0.7818608E-02  0.1329395E+00
          1   -1    0    0  501    0  0.00000000000E+00  0.00000000000E+00  0.97843561491E+02  0.97843561621E+02  0.50400000000E-02 0. -1.
         -2   -1    0    0    0  501 -0.00000000000E+00 -0.00000000000E+00 -0.16303224243E+02  0.16303224443E+02  0.25500000000E-02 0.  1.
        -24    2    1    2    0    0 -0.35527136788E-14  0.00000000000E+00  0.81540337248E+02  0.11414678606E+03  0.79879047129E+02 0.  0.
         66    2    3    3    0    0  0.27277375692E+02 -0.19230093501E+02  0.95104843738E+01  0.34760624865E+02  0.20000018248E+01 0.  0.
         13    1    3    3    0    0 -0.27277375692E+02  0.19230093501E+02  0.72029852874E+02  0.79386161198E+02  0.10566000000E+00 0. -1.
         13    1    4    4    0    0  0.79950873584E+01 -0.63138733239E+01  0.25664417337E+01  0.10506388791E+02  0.10566000000E+00 0. -1.
        -13    1    4    4    0    0  0.14016482204E+02 -0.10010515962E+02  0.51104334146E+01  0.17966632877E+02  0.10566000000E+00 0.  1.
        -14    1    4    4    0    0  0.52658061298E+01 -0.29057042150E+01  0.18336092255E+01  0.62876031979E+01  0.00000000000E+00 0.  1.
<mgrwt>
<rscale>  0 0.79879047E+02</rscale>
<asrwt>0</asrwt>
<pdfrwt beam="1">  1        1 0.15052856E-01 0.79879047E+02</pdfrwt>
<pdfrwt beam="2">  1       -2 0.25081884E-02 0.79879047E+02</pdfrwt>
<totfact> 0.14705494E+05</totfact>
</mgrwt>
</event>
<event>
 8    1  0.1319619E-020  0.8268964E+02  0.7818608E-02  0.1321587E+00
          1   -1    0    0  501    0  0.00000000000E+00  0.00000000000E+00  0.81630322305E+02  0.81630322461E+02  0.50400000000E-02 0. -1.
         -2   -1    0    0    0  501 -0.00000000000E+00 -0.00000000000E+00 -0.20940675652E+02  0.20940675807E+02  0.25500000000E-02 0.  1.
        -24    2    1    2    0    0  0.35527136788E-14  0.00000000000E+00  0.60689646653E+02  0.10257099827E+03  0.82689639464E+02 0.  0.
         66    2    3    3    0    0 -0.24729304183E+02  0.15575436978E+02 -0.58712225877E+01  0.29876478525E+02  0.19999979857E+01 0.  0.
         13    1    3    3    0    0  0.24729304183E+02 -0.15575436978E+02  0.66560869241E+02  0.72694519743E+02  0.10566000000E+00 0. -1.
         13    1    4    4    0    0 -0.16534138573E+01  0.12495242145E+01 -0.59729876838E+00  0.21594022322E+01  0.10566000000E+00 0. -1.
        -13    1    4    4    0    0 -0.85658013927E+01  0.61677727585E+01 -0.17071939125E+01  0.10692990666E+02  0.10566000000E+00 0.  1.
        -14    1    4    4    0    0 -0.14510088933E+02  0.81581400047E+01 -0.35667299068E+01  0.17024085626E+02  0.00000000000E+00 0.  1.
<mgrwt>
<rscale>  0 0.82689639E+02</rscale>
<asrwt>0</asrwt>
<pdfrwt beam="1">  1        1 0.12558511E-01 0.82689639E+02</pdfrwt>
<pdfrwt beam="2">  1       -2 0.32216424E-02 0.82689639E+02</pdfrwt>
<totfact> 0.12989277E+05</totfact>
</mgrwt>
</event>
<event>
 8    1  0.1319619E-020  0.8097379E+02  0.7818608E-02  0.1326310E+00
          1   -1    0    0  501    0  0.00000000000E+00  0.00000000000E+00  0.39156965752E+03  0.39156965755E+03  0.50400000000E-02 0. -1.
         -2   -1    0    0    0  501 -0.00000000000E+00 -0.00000000000E+00 -0.41861991971E+01  0.41861999737E+01  0.25500000000E-02 0.  1.
        -24    2    1    2    0    0  0.00000000000E+00  0.00000000000E+00  0.38738345832E+03  0.39575585753E+03  0.80973791958E+02 0.  0.
         66    2    3    3    0    0  0.23508131331E+02  0.32750674767E+02  0.17691787830E+03  0.18146397603E+03  0.19999995802E+01 0.  0.
         13    1    3    3    0    0 -0.23508131331E+02 -0.32750674767E+02  0.21046558003E+03  0.21429188150E+03  0.10566000000E+00 0. -1.
         13    1    4    4    0    0  0.10960262984E+02  0.16669896429E+02  0.87329795777E+02  0.89579669603E+02  0.10566000000E+00 0.  1.
        -13    1    4    4    0    0  0.99308635188E+01  0.12551910127E+02  0.71665271830E+02  0.73430884841E+02  0.10566000000E+00 0. -1.
         14    1    4    4    0    0  0.26170048288E+01  0.35288682113E+01  0.17922810689E+02  0.18453421583E+02  0.00000000000E+00 0. -1.
<mgrwt>
<rscale>  0 0.80973792E+02</rscale>
<asrwt>0</asrwt>
<pdfrwt beam="1">  1        1 0.60241494E-01 0.80973792E+02</pdfrwt>
<pdfrwt beam="2">  1       -2 0.64403062E-03 0.80973792E+02</pdfrwt>
<totfact> 0.18334375E+05</totfact>
</mgrwt>
</event>
<event>
 8    1  0.1687541E-020  0.7516521E+02  0.7818608E-02  0.1343360E+00
          1   -1    0    0  501    0  0.00000000000E+00  0.00000000000E+00  0.66982312118E+03  0.66982312120E+03  0.50400000000E-02 0. -1.
         -2   -1    0    0    0  501 -0.00000000000E+00 -0.00000000000E+00 -0.21086932953E+01  0.21086948371E+01  0.25500000000E-02 0.  1.
        -24    2    1    2    0    0  0.00000000000E+00 -0.35527136788E-14  0.66771442788E+03  0.67193181603E+03  0.75165206021E+02 0.  0.
         66    2    3    3    0    0 -0.13336973189E+02 -0.31158923250E+02  0.47870517241E+03  0.47990769471E+03  0.19999994605E+01 0.  0.
         13    1    3    3    0    0  0.13336973189E+02  0.31158923250E+02  0.18900925548E+03  0.19202412133E+03  0.10566000000E+00 0. -1.
         13    1    4    4    0    0 -0.27006037896E+00 -0.13938123487E+01  0.21813433534E+02  0.21859841996E+02  0.10566000000E+00 0. -1.
        -13    1    4    4    0    0 -0.14469531761E+01 -0.39331973971E+01  0.61941949632E+02  0.62083653271E+02  0.10566000000E+00 0.  1.
        -14    1    4    4    0    0 -0.11619959634E+02 -0.25831913504E+02  0.39494978924E+03  0.39596419944E+03  0.00000000000E+00 0.  1.
<mgrwt>
<rscale>  0 0.75165206E+02</rscale>
<asrwt>0</asrwt>
<pdfrwt beam="1">  1        1 0.10304964E+00 0.75165206E+02</pdfrwt>
<pdfrwt beam="2">  1       -2 0.32441469E-03 0.75165206E+02</pdfrwt>
<totfact> 0.23549143E+05</totfact>
</mgrwt>
</event>
<event>
 8    1  0.1319619E-020  0.7954311E+02  0.7818608E-02  0.1330353E+00
          1   -1    0    0  501    0  0.00000000000E+00  0.00000000000E+00  0.51445743552E+02  0.51445743799E+02  0.50400000000E-02 0. -1.
         -2   -1    0    0    0  501 -0.00000000000E+00 -0.00000000000E+00 -0.30746498780E+02  0.30746498886E+02  0.25500000000E-02 0.  1.
        -24    2    1    2    0    0  0.00000000000E+00  0.00000000000E+00  0.20699244771E+02  0.82192242685E+02  0.79543107957E+02 0.  0.
         66    2    3    3    0    0 -0.24580331368E+02  0.54357262224E+01 -0.21425845965E+02  0.33118071848E+02  0.19999994775E+01 0.  0.
         13    1    3    3    0    0  0.24580331368E+02 -0.54357262224E+01  0.42125090737E+02  0.49074170837E+02  0.10566000000E+00 0. -1.
         13    1    4    4    0    0 -0.79249873510E+01  0.13168646929E+01 -0.74144058033E+01  0.10932709389E+02  0.10566000000E+00 0. -1.
        -13    1    4    4    0    0 -0.12139647548E+02  0.25166133524E+01 -0.10459760503E+02  0.16221040015E+02  0.10566000000E+00 0.  1.
         14    1    4    4    0    0 -0.45156964687E+01  0.16022481771E+01 -0.35516796591E+01  0.59643224443E+01  0.00000000000E+00 0. -1.
<mgrwt>
<rscale>  0 0.79543108E+02</rscale>
<asrwt>0</asrwt>
<pdfrwt beam="1">  1        1 0.79147298E-02 0.79543108E+02</pdfrwt>
<pdfrwt beam="2">  1       -2 0.47302306E-02 0.79543108E+02</pdfrwt>
<totfact> 0.13427992E+05</totfact>
</mgrwt>
</event>
<event>
 8    1  0.1319619E-020  0.8061311E+02  0.7818608E-02  0.1327320E+00
         -2   -1    0    0    0  501 -0.00000000000E+00  0.00000000000E+00  0.15126116659E+02  0.15126116874E+02  0.25500000000E-02 0.  1.
          1   -1    0    0  501    0  0.00000000000E+00 -0.00000000000E+00 -0.10740485459E+03  0.10740485471E+03  0.50400000000E-02 0. -1.
        -24    2    1    2    0    0  0.00000000000E+00 -0.35527136788E-14 -0.92278737930E+02  0.12253097158E+03  0.80613110116E+02 0.  0.
         66    2    3    3    0    0  0.22133088814E+02  0.27521911056E+02 -0.75613285269E+02  0.83478728559E+02  0.20000010009E+01 0.  0.
         13    1    3    3    0    0 -0.22133088814E+02 -0.27521911056E+02 -0.16665452661E+02  0.39052243022E+02  0.10566000000E+00 0. -1.
         13    1    4    4    0    0  0.18709796403E+01  0.29225652258E+01 -0.65605182086E+01  0.74225006241E+01  0.10566000000E+00 0. -1.
        -13    1    4    4    0    0  0.14955374693E+02  0.18516205942E+02 -0.50997764907E+02  0.56278737585E+02  0.10566000000E+00 0.  1.
         14    1    4    4    0    0  0.53067344803E+01  0.60831398889E+01 -0.18055002153E+02  0.19777490349E+02  0.00000000000E+00 0. -1.
<mgrwt>
<rscale>  0 0.80613110E+02</rscale>
<asrwt>0</asrwt>
<pdfrwt beam="1">  1        1 0.16523823E-01 0.80613110E+02</pdfrwt>
<pdfrwt beam="2">  1       -2 0.23270950E-02 0.80613110E+02</pdfrwt>
<totfact> 0.14574864E+05</totfact>
</mgrwt>
</event>
<event>
 8    1  0.1319619E-020  0.8061429E+02  0.7818608E-02  0.1327317E+00
          1   -1    0    0  501    0  0.00000000000E+00  0.00000000000E+00  0.20926691164E+03  0.20926691170E+03  0.50400000000E-02 0. -1.
         -2   -1    0    0    0  501 -0.00000000000E+00 -0.00000000000E+00 -0.77636064410E+01  0.77636068598E+01  0.25500000000E-02 0.  1.
        -24    2    1    2    0    0  0.00000000000E+00  0.35527136788E-14  0.20150330520E+03  0.21703051856E+03  0.80614291417E+02 0.  0.
         66    2    3    3    0    0  0.24403239784E+02  0.26331651140E+02  0.51627265410E+02  0.62914612728E+02  0.19999993233E+01 0.  0.
         13    1    3    3    0    0 -0.24403239784E+02 -0.26331651140E+02  0.14987603979E+03  0.15411590584E+03  0.10566000000E+00 0. -1.
         13    1    4    4    0    0  0.24898743586E+01  0.29125774106E+01  0.56364741307E+01  0.68164203330E+01  0.10566000000E+00 0.  1.
        -13    1    4    4    0    0  0.14863558516E+02  0.15476413876E+02  0.32127996082E+02  0.38635010735E+02  0.10566000000E+00 0.  1.
        -14    1    4    4    0    0  0.70498069091E+01  0.79426598536E+01  0.13862795197E+02  0.17463181660E+02  0.00000000000E+00 0.  1.
<mgrwt>
<rscale>  0 0.80614291E+02</rscale>
<asrwt>0</asrwt>
<pdfrwt beam="1">  1        1 0.32194907E-01 0.80614291E+02</pdfrwt>
<pdfrwt beam="2">  1       -2 0.11944011E-02 0.80614291E+02</pdfrwt>
<totfact> 0.16483371E+05</totfact>
</mgrwt>
</event>
<event>
 8    1  0.1319619E-020  0.8053023E+02  0.7818608E-02  0.1327553E+00
          1   -1    0    0  501    0  0.00000000000E+00  0.00000000000E+00  0.17087120535E+03  0.17087120542E+03  0.50400000000E-02 0. -1.
         -2   -1    0    0    0  501 -0.00000000000E+00 -0.00000000000E+00 -0.94883128552E+01  0.94883131979E+01  0.25500000000E-02 0.  1.
        -24    2    1    2    0    0  0.00000000000E+00  0.00000000000E+00  0.16138289249E+03  0.18035951862E+03  0.80530230148E+02 0.  0.
         66    2    3    3    0    0 -0.30690770738E+02 -0.11853933883E+02  0.28849044437E+02  0.43803042386E+02  0.20000000965E+01 0.  0.
         13    1    3    3    0    0  0.30690770738E+02  0.11853933883E+02  0.13253384806E+03  0.13655647624E+03  0.10566000000E+00 0. -1.
         13    1    4    4    0    0 -0.78507165982E+01 -0.30956655616E+01  0.82291755892E+01  0.11787594805E+02  0.10566000000E+00 0. -1.
        -13    1    4    4    0    0 -0.16609870864E+02 -0.66701371203E+01  0.15659371956E+02  0.23782464831E+02  0.10566000000E+00 0.  1.
        -14    1    4    4    0    0 -0.62301832753E+01 -0.20881312006E+01  0.49604968915E+01  0.82329827502E+01  0.00000000000E+00 0.  1.
<mgrwt>
<rscale>  0 0.80530230E+02</rscale>
<asrwt>0</asrwt>
<pdfrwt beam="1">  1        1 0.26287878E-01 0.80530230E+02</pdfrwt>
<pdfrwt beam="2">  1       -2 0.14597405E-02 0.80530230E+02</pdfrwt>
<totfact> 0.15895136E+05</totfact>
</mgrwt>
</event>
<event>
 8    1  0.1319619E-020  0.7967879E+02  0.7818608E-02  0.1329965E+00
          1   -1    0    0  501    0  0.00000000000E+00  0.00000000000E+00  0.12573305969E+03  0.12573305979E+03  0.50400000000E-02 0. -1.
         -2   -1    0    0    0  501 -0.00000000000E+00 -0.00000000000E+00 -0.12623388324E+02  0.12623388581E+02  0.25500000000E-02 0.  1.
        -24    2    1    2    0    0  0.00000000000E+00  0.00000000000E+00  0.11310967136E+03  0.13835644837E+03  0.79678786697E+02 0.  0.
         66    2    3    3    0    0 -0.12129273234E+02  0.15596587004E+02 -0.34307675843E+01  0.20152988735E+02  0.19999983440E+01 0.  0.
         13    1    3    3    0    0  0.12129273234E+02 -0.15596587004E+02  0.11654043895E+03  0.11820345963E+03  0.10566000000E+00 0. -1.
         13    1    4    4    0    0 -0.16300763336E+01  0.27074197396E+01 -0.10709598374E+01  0.33384711334E+01  0.10566000000E+00 0. -1.
        -13    1    4    4    0    0 -0.58177068256E+01  0.64650558983E+01 -0.11301754385E+01  0.87710387660E+01  0.10566000000E+00 0.  1.
        -14    1    4    4    0    0 -0.46814900749E+01  0.64241113664E+01 -0.12296323084E+01  0.80434788359E+01  0.00000000000E+00 0.  1.
<mgrwt>
<rscale>  0 0.79678787E+02</rscale>
<asrwt>0</asrwt>
<pdfrwt beam="1">  1        1 0.19343547E-01 0.79678787E+02</pdfrwt>
<pdfrwt beam="2">  1       -2 0.19420598E-02 0.79678787E+02</pdfrwt>
<totfact> 0.15457831E+05</totfact>
</mgrwt>
</event>
<event>
 8    1  0.1319619E-020  0.7957115E+02  0.7818608E-02  0.1330273E+00
          1   -1    0    0  501    0  0.00000000000E+00  0.00000000000E+00  0.54638776136E+02  0.54638776369E+02  0.50400000000E-02 0. -1.
         -2   -1    0    0    0  501 -0.00000000000E+00 -0.00000000000E+00 -0.28970120062E+02  0.28970120175E+02  0.25500000000E-02 0.  1.
        -24    2    1    2    0    0  0.00000000000E+00 -0.35527136788E-14  0.25668656074E+02  0.83608896543E+02  0.79571148519E+02 0.  0.
         66    2    3    3    0    0 -0.30042414989E+02 -0.22998505461E+02  0.25685968913E+02  0.45773867594E+02  0.20000009245E+01 0.  0.
         13    1    3    3    0    0  0.30042414989E+02  0.22998505461E+02 -0.17312838899E-01  0.37835028949E+02  0.10566000000E+00 0. -1.
         13    1    4    4    0    0 -0.16907171375E+01 -0.12055712557E+01  0.15962609305E+01  0.26212858458E+01  0.10566000000E+00 0. -1.
        -13    1    4    4    0    0 -0.24620169232E+01 -0.13381931924E+01  0.17277787658E+01  0.32937322067E+01  0.10566000000E+00 0.  1.
        -14    1    4    4    0    0 -0.25889680928E+02 -0.20454741013E+02  0.22361929217E+02  0.39858849542E+02  0.00000000000E+00 0.  1.
<mgrwt>
<rscale>  0 0.79571149E+02</rscale>
<asrwt>0</asrwt>
<pdfrwt beam="1">  1        1 0.84059655E-02 0.79571149E+02</pdfrwt>
<pdfrwt beam="2">  1       -2 0.44569416E-02 0.79571149E+02</pdfrwt>
<totfact> 0.13541500E+05</totfact>
</mgrwt>
</event>
<event>
 8    1  0.1319619E-020  0.7801101E+02  0.7818608E-02  0.1334793E+00
         -2   -1    0    0    0  501 -0.00000000000E+00  0.00000000000E+00  0.69003491299E+02  0.69003491346E+02  0.25500000000E-02 0.  1.
          1   -1    0    0  501    0  0.00000000000E+00 -0.00000000000E+00 -0.22048587630E+02  0.22048588206E+02  0.50400000000E-02 0. -1.
        -24    2    1    2    0    0  0.00000000000E+00  0.00000000000E+00  0.46954903668E+02  0.91052079552E+02  0.78011013404E+02 0.  0.
         66    2    3    3    0    0 -0.11404385655E+02 -0.29616253634E+01  0.66860585383E+02  0.67920314260E+02  0.19999936051E+01 0.  0.
         13    1    3    3    0    0  0.11404385655E+02  0.29616253634E+01 -0.19905681715E+02  0.23131765292E+02  0.10566000000E+00 0. -1.
         13    1    4    4    0    0 -0.92528997552E+00  0.15750208184E-01  0.59222932253E+01  0.59950922169E+01  0.10566000000E+00 0. -1.
        -13    1    4    4    0    0 -0.33748460872E+01 -0.11079738871E+01  0.24217149034E+02  0.24476492061E+02  0.10566000000E+00 0.  1.
         14    1    4    4    0    0 -0.71042495923E+01 -0.18694016845E+01  0.36721143124E+02  0.37448729982E+02  0.00000000000E+00 0. -1.
<mgrwt>
<rscale>  0 0.78011013E+02</rscale>
<asrwt>0</asrwt>
<pdfrwt beam="1">  1        1 0.33920906E-02 0.78011013E+02</pdfrwt>
<pdfrwt beam="2">  1       -2 0.10615921E-01 0.78011013E+02</pdfrwt>
<totfact> 0.12284700E+05</totfact>
</mgrwt>
</event>
<event>
 8    1  0.1319619E-020  0.8027871E+02  0.7818608E-02  0.1328262E+00
          1   -1    0    0  501    0  0.00000000000E+00  0.00000000000E+00  0.28229168321E+02  0.28229168771E+02  0.50400000000E-02 0. -1.
         -2   -1    0    0    0  501 -0.00000000000E+00 -0.00000000000E+00 -0.57074571939E+02  0.57074571996E+02  0.25500000000E-02 0.  1.
        -24    2    1    2    0    0 -0.35527136788E-14 -0.17763568394E-14 -0.28845403618E+02  0.85303740767E+02  0.80278707507E+02 0.  0.
         66    2    3    3    0    0 -0.28708700715E+02 -0.14980659485E+02 -0.39589626923E+02  0.51185429646E+02  0.19999981957E+01 0.  0.
         13    1    3    3    0    0  0.28708700715E+02  0.14980659485E+02  0.10744223305E+02  0.34118311121E+02  0.10566000000E+00 0. -1.
         13    1    4    4    0    0 -0.82363739245E+00 -0.71355478064E+00 -0.17064923752E+01  0.20275155342E+01  0.10566000000E+00 0. -1.
        -13    1    4    4    0    0 -0.87690825420E+01 -0.45690278757E+01 -0.11649965778E+02  0.15280893004E+02  0.10566000000E+00 0.  1.
         14    1    4    4    0    0 -0.19115980780E+02 -0.96980768282E+01 -0.26233168770E+02  0.33877021107E+02  0.00000000000E+00 0. -1.
<mgrwt>
<rscale>  0 0.80278708E+02</rscale>
<asrwt>0</asrwt>
<pdfrwt beam="1">  1        1 0.43429490E-02 0.80278708E+02</pdfrwt>
<pdfrwt beam="2">  1       -2 0.87807034E-02 0.80278708E+02</pdfrwt>
<totfact> 0.11844040E+05</totfact>
</mgrwt>
</event>
<event>
 8    1  0.1319619E-020  0.8032109E+02  0.7818608E-02  0.1328143E+00
          1   -1    0    0  501    0  0.00000000000E+00  0.00000000000E+00  0.16309576972E+03  0.16309576979E+03  0.50400000000E-02 0. -1.
         -2   -1    0    0    0  501 -0.00000000000E+00 -0.00000000000E+00 -0.98890936963E+01  0.98890940250E+01  0.25500000000E-02 0.  1.
        -24    2    1    2    0    0  0.00000000000E+00 -0.71054273576E-14  0.15320667602E+03  0.17298486382E+03  0.80321090215E+02 0.  0.
         66    2    3    3    0    0  0.16376781872E+02 -0.36465422509E+02  0.84397435633E+02  0.93406922467E+02  0.19999999982E+01 0.  0.
         13    1    3    3    0    0 -0.16376781872E+02  0.36465422509E+02  0.68809240386E+02  0.79577941351E+02  0.10566000000E+00 0. -1.
         13    1    4    4    0    0  0.50580318830E+01 -0.11745941400E+02  0.25636679377E+02  0.28649630354E+02  0.10566000000E+00 0.  1.
        -13    1    4    4    0    0  0.15158445040E+01 -0.40379803808E+01  0.10096150421E+02  0.10979366442E+02  0.10566000000E+00 0. -1.
        -14    1    4    4    0    0  0.98029054849E+01 -0.20681500728E+02  0.48664605836E+02  0.53777925671E+02  0.00000000000E+00 0.  1.
<mgrwt>
<rscale>  0 0.80321090E+02</rscale>
<asrwt>0</asrwt>
<pdfrwt beam="1">  1        1 0.25091654E-01 0.80321090E+02</pdfrwt>
<pdfrwt beam="2">  1       -2 0.15213992E-02 0.80321090E+02</pdfrwt>
<totfact> 0.15865788E+05</totfact>
</mgrwt>
</event>
<event>
 8    1  0.1319619E-020  0.7369709E+02  0.7818608E-02  0.1347954E+00
          1   -1    0    0  501    0  0.00000000000E+00  0.00000000000E+00  0.21981408785E+03  0.21981408790E+03  0.50400000000E-02 0. -1.
         -2   -1    0    0    0  501 -0.00000000000E+00 -0.00000000000E+00 -0.61771077182E+01  0.61771082446E+01  0.25500000000E-02 0.  1.
        -24    2    1    2    0    0  0.00000000000E+00  0.00000000000E+00  0.21363698013E+03  0.22599119615E+03  0.73697092605E+02 0.  0.
         66    2    3    3    0    0  0.32494352820E+02  0.16497649067E+02  0.90741723414E+02  0.97806522038E+02  0.19999987983E+01 0.  0.
         13    1    3    3    0    0 -0.32494352820E+02 -0.16497649067E+02  0.12289525671E+03  0.12818467411E+03  0.10566000000E+00 0. -1.
         13    1    4    4    0    0  0.47174808100E+01  0.28944467159E+01  0.13753973956E+02  0.14826173161E+02  0.10566000000E+00 0. -1.
        -13    1    4    4    0    0  0.27649775000E+02  0.13592161503E+02  0.76393061576E+02  0.82372130802E+02  0.10566000000E+00 0.  1.
        -14    1    4    4    0    0  0.12709700951E+00  0.11040848377E-01  0.59468788115E+00  0.60821807449E+00  0.00000000000E+00 0.  1.
<mgrwt>
<rscale>  0 0.73697093E+02</rscale>
<asrwt>0</asrwt>
<pdfrwt beam="1">  1        1 0.33817548E-01 0.73697093E+02</pdfrwt>
<pdfrwt beam="2">  1       -2 0.95032444E-03 0.73697093E+02</pdfrwt>
<totfact> 0.21087006E+05</totfact>
</mgrwt>
</event>
<event>
 8    1  0.1319619E-020  0.8596880E+02  0.7818608E-02  0.1312918E+00
          1   -1    0    0  501    0  0.00000000000E+00  0.00000000000E+00  0.35836228431E+02  0.35836228785E+02  0.50400000000E-02 0. -1.
         -2   -1    0    0    0  501 -0.00000000000E+00 -0.00000000000E+00 -0.51558396689E+02  0.51558396752E+02  0.25500000000E-02 0.  1.
        -24    2    1    2    0    0  0.35527136788E-14  0.00000000000E+00 -0.15722168258E+02  0.87394625537E+02  0.85968796654E+02 0.  0.
         66    2    3    3    0    0  0.25222647302E+02 -0.24879691313E+02 -0.32567986161E+02  0.48164869973E+02  0.20000000480E+01 0.  0.
         13    1    3    3    0    0 -0.25222647302E+02  0.24879691313E+02  0.16845817903E+02  0.39229755564E+02  0.10566000000E+00 0. -1.
         13    1    4    4    0    0  0.16376919517E+02 -0.17015991611E+02 -0.21161476206E+02  0.31710671746E+02  0.10566000000E+00 0. -1.
        -13    1    4    4    0    0  0.41822410004E+01 -0.33599425471E+01 -0.48322606057E+01  0.72209597909E+01  0.10566000000E+00 0.  1.
        -14    1    4    4    0    0  0.46634867848E+01 -0.45037571556E+01 -0.65742493496E+01  0.92332384362E+01  0.00000000000E+00 0.  1.
<mgrwt>
<rscale>  0 0.85968797E+02</rscale>
<asrwt>0</asrwt>
<pdfrwt beam="1">  1        1 0.55132660E-02 0.85968797E+02</pdfrwt>
<pdfrwt beam="2">  1       -2 0.79320610E-02 0.85968797E+02</pdfrwt>
<totfact> 0.10151261E+05</totfact>
</mgrwt>
</event>
<event>
 8    1  0.1319619E-020  0.8069094E+02  0.7818608E-02  0.1327102E+00
         -2   -1    0    0    0  501 -0.00000000000E+00  0.00000000000E+00  0.15092805476E+02  0.15092805691E+02  0.25500000000E-02 0.  1.
          1   -1    0    0  501    0  0.00000000000E+00 -0.00000000000E+00 -0.10784985687E+03  0.10784985699E+03  0.50400000000E-02 0. -1.
        -24    2    1    2    0    0  0.44408920985E-15  0.00000000000E+00 -0.92757051393E+02  0.12294266268E+03  0.80690939536E+02 0.  0.
         66    2    3    3    0    0 -0.24696221411E+01 -0.20564534247E+02  0.63014909859E+01  0.21741847046E+02  0.20000054981E+01 0.  0.
         13    1    3    3    0    0  0.24696221411E+01  0.20564534247E+02 -0.99058542379E+02  0.10120081563E+03  0.10566000000E+00 0. -1.
         13    1    4    4    0    0 -0.12321728807E+00 -0.23673213604E+01  0.31688058425E+00  0.23939444989E+01  0.10566000000E+00 0.  1.
        -13    1    4    4    0    0 -0.33223965666E+00 -0.42172074104E+01  0.19452848037E+01  0.46573080782E+01  0.10566000000E+00 0.  1.
        -14    1    4    4    0    0 -0.20141651964E+01 -0.13980005476E+02  0.40393255979E+01  0.14690594469E+02  0.00000000000E+00 0.  1.
<mgrwt>
<rscale>  0 0.80690940E+02</rscale>
<asrwt>0</asrwt>
<pdfrwt beam="1">  1        1 0.16592285E-01 0.80690940E+02</pdfrwt>
<pdfrwt beam="2">  1       -2 0.23219702E-02 0.80690940E+02</pdfrwt>
<totfact> 0.14547266E+05</totfact>
</mgrwt>
</event>
<event>
 8    1  0.1319619E-020  0.8146429E+02  0.7818608E-02  0.1324947E+00
          1   -1    0    0  501    0  0.00000000000E+00  0.00000000000E+00  0.13544562327E+02  0.13544563265E+02  0.50400000000E-02 0. -1.
         -2   -1    0    0    0  501 -0.00000000000E+00 -0.00000000000E+00 -0.12249253251E+03  0.12249253254E+03  0.25500000000E-02 0.  1.
        -24    2    1    2    0    0  0.00000000000E+00  0.00000000000E+00 -0.10894797019E+03  0.13603709580E+03  0.81464294187E+02 0.  0.
         66    2    3    3    0    0  0.26484522586E+02  0.95110468409E+01 -0.10362595559E+03  0.10739752611E+03  0.19999989491E+01 0.  0.
         13    1    3    3    0    0 -0.26484522586E+02 -0.95110468409E+01 -0.53220146005E+01  0.28639569691E+02  0.10566000000E+00 0. -1.
         13    1    4    4    0    0  0.34297351181E+01  0.14563109348E+01 -0.16085324852E+02  0.16511594840E+02  0.10566000000E+00 0. -1.
        -13    1    4    4    0    0  0.17922231563E+02  0.65293689840E+01 -0.67861205921E+02  0.70491087923E+02  0.10566000000E+00 0.  1.
         14    1    4    4    0    0  0.51325559048E+01  0.15253669221E+01 -0.19679424812E+02  0.20394843351E+02  0.00000000000E+00 0. -1.
<mgrwt>
<rscale>  0 0.81464294E+02</rscale>
<asrwt>0</asrwt>
<pdfrwt beam="1">  1        1 0.20837790E-02 0.81464294E+02</pdfrwt>
<pdfrwt beam="2">  1       -2 0.18845004E-01 0.81464294E+02</pdfrwt>
<totfact> 0.95982095E+04</totfact>
</mgrwt>
</event>
<event>
 8    1  0.1319619E-020  0.8028142E+02  0.7818608E-02  0.1328255E+00
         -2   -1    0    0    0  501 -0.00000000000E+00  0.00000000000E+00  0.21059372620E+02  0.21059372775E+02  0.25500000000E-02 0.  1.
          1   -1    0    0  501    0  0.00000000000E+00 -0.00000000000E+00 -0.76511148261E+02  0.76511148427E+02  0.50400000000E-02 0. -1.
        -24    2    1    2    0    0  0.00000000000E+00  0.00000000000E+00 -0.55451775641E+02  0.97570521202E+02  0.80281424912E+02 0.  0.
         66    2    3    3    0    0 -0.25648235892E+02  0.22339580773E+02 -0.53592816453E+02  0.63506526035E+02  0.20000000516E+01 0.  0.
         13    1    3    3    0    0  0.25648235892E+02 -0.22339580773E+02 -0.18589591884E+01  0.34063995167E+02  0.10566000000E+00 0. -1.
         13    1    4    4    0    0 -0.22516437803E+01  0.16855589031E+01 -0.50825358437E+01  0.58098488076E+01  0.10566000000E+00 0. -1.
        -13    1    4    4    0    0 -0.66264324016E+01  0.61506686512E+01 -0.15052457289E+02  0.17559270079E+02  0.10566000000E+00 0.  1.
         14    1    4    4    0    0 -0.16770159710E+02  0.14503353219E+02 -0.33457823320E+02  0.40137407149E+02  0.00000000000E+00 0. -1.
<mgrwt>
<rscale>  0 0.80281425E+02</rscale>
<asrwt>0</asrwt>
<pdfrwt beam="1">  1        1 0.11770946E-01 0.80281425E+02</pdfrwt>
<pdfrwt beam="2">  1       -2 0.32399035E-02 0.80281425E+02</pdfrwt>
<totfact> 0.13934126E+05</totfact>
</mgrwt>
</event>
<event>
 8    1  0.1319619E-020  0.7745238E+02  0.7818608E-02  0.1336441E+00
          1   -1    0    0  501    0  0.00000000000E+00  0.00000000000E+00  0.21291531825E+03  0.21291531831E+03  0.50400000000E-02 0. -1.
         -2   -1    0    0    0  501 -0.00000000000E+00 -0.00000000000E+00 -0.70437283389E+01  0.70437288005E+01  0.25500000000E-02 0.  1.
        -24    2    1    2    0    0  0.35527136788E-14  0.35527136788E-14  0.20587158991E+03  0.21995904711E+03  0.77452378098E+02 0.  0.
         66    2    3    3    0    0 -0.31761253173E+02 -0.17847781650E+02  0.65933433706E+02  0.75356076051E+02  0.20000011470E+01 0.  0.
         13    1    3    3    0    0  0.31761253173E+02  0.17847781650E+02  0.13993815620E+03  0.14460297106E+03  0.10566000000E+00 0. -1.
         13    1    4    4    0    0 -0.69702509078E+01 -0.44375960058E+01  0.14623478518E+02  0.16796843276E+02  0.10566000000E+00 0. -1.
        -13    1    4    4    0    0 -0.10252004066E+02 -0.63381915712E+01  0.21728668793E+02  0.24847987268E+02  0.10566000000E+00 0.  1.
         14    1    4    4    0    0 -0.14538998200E+02 -0.70719940734E+01  0.29581286396E+02  0.33711245507E+02  0.00000000000E+00 0. -1.
<mgrwt>
<rscale>  0 0.77452378E+02</rscale>
<asrwt>0</asrwt>
<pdfrwt beam="1">  1        1 0.32756203E-01 0.77452378E+02</pdfrwt>
<pdfrwt beam="2">  1       -2 0.10836506E-02 0.77452378E+02</pdfrwt>
<totfact> 0.18387814E+05</totfact>
</mgrwt>
</event>
<event>
 8    1  0.1319619E-020  0.8058816E+02  0.7818608E-02  0.1327391E+00
          1   -1    0    0  501    0  0.00000000000E+00  0.00000000000E+00  0.36429346286E+03  0.36429346289E+03  0.50400000000E-02 0. -1.
         -2   -1    0    0    0  501 -0.00000000000E+00 -0.00000000000E+00 -0.44568815814E+01  0.44568823109E+01  0.25500000000E-02 0.  1.
        -24    2    1    2    0    0 -0.71054273576E-14  0.00000000000E+00  0.35983658127E+03  0.36875034520E+03  0.80588162052E+02 0.  0.
         66    2    3    3    0    0  0.34143102211E+02  0.18248234827E+02  0.12931060191E+03  0.13499622689E+03  0.20000011465E+01 0.  0.
         13    1    3    3    0    0 -0.34143102211E+02 -0.18248234827E+02  0.23052597937E+03  0.23375411831E+03  0.10566000000E+00 0. -1.
         13    1    4    4    0    0  0.23708469784E+02  0.12709238155E+02  0.87915733628E+02  0.91939130175E+02  0.10566000000E+00 0. -1.
        -13    1    4    4    0    0  0.79131559626E+01  0.44270090477E+01  0.30532471620E+02  0.31850579801E+02  0.10566000000E+00 0.  1.
         14    1    4    4    0    0  0.25214764643E+01  0.11119876240E+01  0.10862396662E+02  0.11206516911E+02  0.00000000000E+00 0. -1.
<mgrwt>
<rscale>  0 0.80588162E+02</rscale>
<asrwt>0</asrwt>
<pdfrwt beam="1">  1        1 0.56045146E-01 0.80588162E+02</pdfrwt>
<pdfrwt beam="2">  1       -2 0.68567417E-03 0.80588162E+02</pdfrwt>
<totfact> 0.18337998E+05</totfact>
</mgrwt>
</event>
<event>
 8    1  0.1319619E-020  0.7924392E+02  0.7818608E-02  0.1331211E+00
          1   -1    0    0  501    0  0.00000000000E+00  0.00000000000E+00  0.40226577066E+01  0.40226608639E+01  0.50400000000E-02 0. -1.
         -2   -1    0    0    0  501 -0.00000000000E+00 -0.00000000000E+00 -0.39026415334E+03  0.39026415335E+03  0.25500000000E-02 0.  1.
        -24    2    1    2    0    0  0.00000000000E+00  0.00000000000E+00 -0.38624149563E+03  0.39428681421E+03  0.79243920350E+02 0.  0.
         66    2    3    3    0    0 -0.10813915804E+02  0.31258935746E+02 -0.30155101737E+03  0.30336624387E+03  0.20000008639E+01 0.  0.
         13    1    3    3    0    0  0.10813915804E+02 -0.31258935746E+02 -0.84690478261E+02  0.90920570341E+02  0.10566000000E+00 0. -1.
         13    1    4    4    0    0 -0.20888190864E+01  0.77589128751E+01 -0.76053920935E+02  0.76477277330E+02  0.10566000000E+00 0. -1.
        -13    1    4    4    0    0 -0.10368088145E+01  0.19241565159E+01 -0.19528269764E+02  0.19650491975E+02  0.10566000000E+00 0.  1.
        -14    1    4    4    0    0 -0.76882879029E+01  0.21575866355E+02 -0.20596882667E+03  0.20723847457E+03  0.00000000000E+00 0.  1.
<mgrwt>
<rscale>  0 0.79243920E+02</rscale>
<asrwt>0</asrwt>
<pdfrwt beam="1">  1        1 0.61887097E-03 0.79243920E+02</pdfrwt>
<pdfrwt beam="2">  1       -2 0.60040609E-01 0.79243920E+02</pdfrwt>
<totfact> 0.61549800E+04</totfact>
</mgrwt>
</event>
<event>
 8    1  0.1319619E-020  0.7756282E+02  0.7818608E-02  0.1336114E+00
          1   -1    0    0  501    0  0.00000000000E+00  0.00000000000E+00  0.34933058363E+03  0.34933058367E+03  0.50400000000E-02 0. -1.
         -2   -1    0    0    0  501 -0.00000000000E+00 -0.00000000000E+00 -0.43053701921E+01  0.43053709472E+01  0.25500000000E-02 0.  1.
        -24    2    1    2    0    0  0.00000000000E+00  0.00000000000E+00  0.34502521344E+03  0.35363595462E+03  0.77562816398E+02 0.  0.
         66    2    3    3    0    0  0.14337468259E+02  0.33451001256E+02  0.23336399099E+03  0.23619332077E+03  0.20000013791E+01 0.  0.
         13    1    3    3    0    0 -0.14337468259E+02 -0.33451001256E+02  0.11166122245E+03  0.11744263385E+03  0.10566000000E+00 0. -1.
         13    1    4    4    0    0  0.63458360742E+00  0.21676261007E+01  0.13812061233E+02  0.13995910074E+02  0.10566000000E+00 0. -1.
        -13    1    4    4    0    0  0.39425574674E+01  0.75598419835E+01  0.56546384273E+02  0.57185659991E+02  0.10566000000E+00 0.  1.
        -14    1    4    4    0    0  0.97603271837E+01  0.23723533172E+02  0.16300554548E+03  0.16501175070E+03  0.00000000000E+00 0.  1.
<mgrwt>
<rscale>  0 0.77562816E+02</rscale>
<asrwt>0</asrwt>
<pdfrwt beam="1">  1        1 0.53743187E-01 0.77562816E+02</pdfrwt>
<pdfrwt beam="2">  1       -2 0.66236446E-03 0.77562816E+02</pdfrwt>
<totfact> 0.20127954E+05</totfact>
</mgrwt>
</event>
<event>
 8    1  0.1319619E-020  0.8066107E+02  0.7818608E-02  0.1327186E+00
          1   -1    0    0  501    0  0.00000000000E+00  0.00000000000E+00  0.65964460763E+02  0.65964460955E+02  0.50400000000E-02 0. -1.
         -2   -1    0    0    0  501 -0.00000000000E+00 -0.00000000000E+00 -0.24658005614E+02  0.24658005746E+02  0.25500000000E-02 0.  1.
        -24    2    1    2    0    0 -0.33306690739E-15 -0.71054273576E-14  0.41306455149E+02  0.90622466701E+02  0.80661070127E+02 0.  0.
         66    2    3    3    0    0 -0.62496418191E+00 -0.38218475329E+02  0.62998537960E+01  0.38790857243E+02  0.20000027723E+01 0.  0.
         13    1    3    3    0    0  0.62496418191E+00  0.38218475329E+02  0.35006601353E+02  0.51831609458E+02  0.10566000000E+00 0. -1.
         13    1    4    4    0    0 -0.39802007944E+00 -0.25862298080E+02  0.36498283527E+01  0.26121816418E+02  0.10566000000E+00 0.  1.
        -13    1    4    4    0    0  0.29054252251E+00 -0.71898186509E+01  0.15129815863E+01  0.73537870861E+01  0.10566000000E+00 0. -1.
        -14    1    4    4    0    0 -0.51748662498E+00 -0.51663585986E+01  0.11370438570E+01  0.53152537389E+01  0.00000000000E+00 0.  1.
<mgrwt>
<rscale>  0 0.80661070E+02</rscale>
<asrwt>0</asrwt>
<pdfrwt beam="1">  1        1 0.10148378E-01 0.80661070E+02</pdfrwt>
<pdfrwt beam="2">  1       -2 0.37935394E-02 0.80661070E+02</pdfrwt>
<totfact> 0.13434165E+05</totfact>
</mgrwt>
</event>
<event>
 8    1  0.1319619E-020  0.7990179E+02  0.7818608E-02  0.1329330E+00
         -2   -1    0    0    0  501 -0.00000000000E+00  0.00000000000E+00  0.12349163778E+02  0.12349164041E+02  0.25500000000E-02 0.  1.
          1   -1    0    0  501    0  0.00000000000E+00 -0.00000000000E+00 -0.12924549524E+03  0.12924549534E+03  0.50400000000E-02 0. -1.
        -24    2    1    2    0    0  0.00000000000E+00  0.00000000000E+00 -0.11689633147E+03  0.14159465938E+03  0.79901785060E+02 0.  0.
         66    2    3    3    0    0 -0.26736470272E+02 -0.33516162262E+01 -0.62751963880E+01  0.27738966228E+02  0.19999959422E+01 0.  0.
         13    1    3    3    0    0  0.26736470272E+02  0.33516162262E+01 -0.11062113508E+03  0.11385569316E+03  0.10566000000E+00 0. -1.
         13    1    4    4    0    0 -0.88398053390E+01 -0.10667427208E+01 -0.14693153643E+01  0.90249736919E+01  0.10566000000E+00 0. -1.
        -13    1    4    4    0    0 -0.28076183812E+01 -0.29669569867E+00 -0.29767067412E+00  0.28408662724E+01  0.10566000000E+00 0.  1.
        -14    1    4    4    0    0 -0.15089046552E+02 -0.19881778068E+01 -0.45082103495E+01  0.15873126264E+02  0.00000000000E+00 0.  1.
<mgrwt>
<rscale>  0 0.79901785E+02</rscale>
<asrwt>0</asrwt>
<pdfrwt beam="1">  1        1 0.19883921E-01 0.79901785E+02</pdfrwt>
<pdfrwt beam="2">  1       -2 0.18998715E-02 0.79901785E+02</pdfrwt>
<totfact> 0.15417789E+05</totfact>
</mgrwt>
</event>
<event>
 8    1  0.1319619E-020  0.8074230E+02  0.7818608E-02  0.1326958E+00
         -2   -1    0    0    0  501 -0.00000000000E+00  0.00000000000E+00  0.97165248138E+01  0.97165251484E+01  0.25500000000E-02 0.  1.
          1   -1    0    0  501    0  0.00000000000E+00 -0.00000000000E+00 -0.16773794087E+03  0.16773794094E+03  0.50400000000E-02 0. -1.
        -24    2    1    2    0    0  0.00000000000E+00  0.00000000000E+00 -0.15802141605E+03  0.17745446609E+03  0.80742303684E+02 0.  0.
         66    2    3    3    0    0  0.34273407887E+02 -0.16030001730E+02 -0.48274521577E+02  0.61368207409E+02  0.20000008532E+01 0.  0.
         13    1    3    3    0    0 -0.34273407887E+02  0.16030001730E+02 -0.10974689448E+03  0.11608625868E+03  0.10566000000E+00 0. -1.
         13    1    4    4    0    0  0.17439666480E+02 -0.86981600770E+01 -0.23793804757E+02  0.30756402009E+02  0.10566000000E+00 0.  1.
        -13    1    4    4    0    0  0.16485556569E+02 -0.72119101965E+01 -0.24150646097E+02  0.30117272370E+02  0.10566000000E+00 0. -1.
         14    1    4    4    0    0  0.34818483853E+00 -0.11993145616E+00 -0.33007072337E+00  0.49453303063E+00  0.00000000000E+00 0. -1.
<mgrwt>
<rscale>  0 0.80742304E+02</rscale>
<asrwt>0</asrwt>
<pdfrwt beam="1">  1        1 0.25805835E-01 0.80742304E+02</pdfrwt>
<pdfrwt beam="2">  1       -2 0.14948501E-02 0.80742304E+02</pdfrwt>
<totfact> 0.15728856E+05</totfact>
</mgrwt>
</event>
<event>
 8    1  0.1319619E-020  0.7884369E+02  0.7818608E-02  0.1332365E+00
         -2   -1    0    0    0  501 -0.00000000000E+00  0.00000000000E+00  0.44791050691E+01  0.44791057950E+01  0.25500000000E-02 0.  1.
          1   -1    0    0  501    0  0.00000000000E+00 -0.00000000000E+00 -0.34696251093E+03  0.34696251096E+03  0.50400000000E-02 0. -1.
        -24    2    1    2    0    0  0.00000000000E+00 -0.17763568394E-14 -0.34248340586E+03  0.35144161676E+03  0.78843685238E+02 0.  0.
         66    2    3    3    0    0  0.35414048313E+02  0.12466175066E+02 -0.11813846804E+03  0.12397684449E+03  0.19999994934E+01 0.  0.
         13    1    3    3    0    0 -0.35414048313E+02 -0.12466175066E+02 -0.22434493781E+03  0.22746477227E+03  0.10566000000E+00 0. -1.
         13    1    4    4    0    0  0.10774578450E+02  0.36648021653E+01 -0.34046722648E+02  0.35898646253E+02  0.10566000000E+00 0. -1.
        -13    1    4    4    0    0  0.14464894329E+02  0.55119041676E+01 -0.47818976745E+02  0.50262112535E+02  0.10566000000E+00 0.  1.
         14    1    4    4    0    0  0.10174575535E+02  0.32894687330E+01 -0.36272768652E+02  0.37816085698E+02  0.00000000000E+00 0. -1.
<mgrwt>
<rscale>  0 0.78843685E+02</rscale>
<asrwt>0</asrwt>
<pdfrwt beam="1">  1        1 0.53378827E-01 0.78843685E+02</pdfrwt>
<pdfrwt beam="2">  1       -2 0.68909342E-03 0.78843685E+02</pdfrwt>
<totfact> 0.19257636E+05</totfact>
</mgrwt>
</event>
<event>
 8    1  0.1319619E-020  0.7879410E+02  0.7818608E-02  0.1332509E+00
         -2   -1    0    0    0  501 -0.00000000000E+00  0.00000000000E+00  0.18983360308E+03  0.18983360309E+03  0.25500000000E-02 0.  1.
          1   -1    0    0  501    0  0.00000000000E+00 -0.00000000000E+00 -0.81762526591E+01  0.81762542124E+01  0.50400000000E-02 0. -1.
        -24    2    1    2    0    0  0.00000000000E+00  0.00000000000E+00  0.18165735042E+03  0.19800985731E+03  0.78794102759E+02 0.  0.
         66    2    3    3    0    0  0.14915391951E+02  0.15144060547E+02  0.17416992473E+03  0.17547357114E+03  0.19999996099E+01 0.  0.
         13    1    3    3    0    0 -0.14915391951E+02 -0.15144060547E+02  0.74874256816E+01  0.22536286168E+02  0.10566000000E+00 0. -1.
         13    1    4    4    0    0  0.82872954407E+01  0.73612619356E+01  0.92404641329E+02  0.93067160407E+02  0.10566000000E+00 0. -1.
        -13    1    4    4    0    0  0.61260640216E+01  0.68625060996E+01  0.74508014137E+02  0.75073816907E+02  0.10566000000E+00 0.  1.
         14    1    4    4    0    0  0.50203248851E+00  0.92029251156E+00  0.72572692696E+01  0.73325938234E+01  0.00000000000E+00 0. -1.
<mgrwt>
<rscale>  0 0.78794103E+02</rscale>
<asrwt>0</asrwt>
<pdfrwt beam="1">  1        1 0.12578852E-02 0.78794103E+02</pdfrwt>
<pdfrwt beam="2">  1       -2 0.29205168E-01 0.78794103E+02</pdfrwt>
<totfact> 0.90329124E+04</totfact>
</mgrwt>
</event>
<event>
 8    1  0.1319619E-020  0.7908360E+02  0.7818608E-02  0.1331672E+00
          1   -1    0    0  501    0  0.00000000000E+00  0.00000000000E+00  0.16320717867E+03  0.16320717875E+03  0.50400000000E-02 0. -1.
         -2   -1    0    0    0  501 -0.00000000000E+00 -0.00000000000E+00 -0.95801780394E+01  0.95801783788E+01  0.25500000000E-02 0.  1.
        -24    2    1    2    0    0  0.00000000000E+00  0.00000000000E+00  0.15362700063E+03  0.17278735713E+03  0.79083597921E+02 0.  0.
         66    2    3    3    0    0  0.18396393239E+02 -0.19882365913E+02  0.13999983567E+02  0.30557083216E+02  0.20000090785E+01 0.  0.
         13    1    3    3    0    0 -0.18396393239E+02  0.19882365913E+02  0.13962701707E+03  0.14223027391E+03  0.10566000000E+00 0. -1.
         13    1    4    4    0    0  0.49017745104E+01 -0.49189434078E+01  0.37986347639E+01  0.79160714818E+01  0.10566000000E+00 0. -1.
        -13    1    4    4    0    0  0.96610038027E+01 -0.11685533714E+02  0.74093744957E+01  0.16875920334E+02  0.10566000000E+00 0.  1.
        -14    1    4    4    0    0  0.38336149257E+01 -0.32778887915E+01  0.27919743074E+01  0.57650914010E+01  0.00000000000E+00 0.  1.
<mgrwt>
<rscale>  0 0.79083598E+02</rscale>
<asrwt>0</asrwt>
<pdfrwt beam="1">  1        1 0.25108797E-01 0.79083598E+02</pdfrwt>
<pdfrwt beam="2">  1       -2 0.14738736E-02 0.79083598E+02</pdfrwt>
<totfact> 0.16538351E+05</totfact>
</mgrwt>
</event>
<event>
 8    1  0.1319619E-020  0.8204309E+02  0.7818608E-02  0.1323351E+00
          1   -1    0    0  501    0  0.00000000000E+00  0.00000000000E+00  0.14730158540E+03  0.14730158549E+03  0.50400000000E-02 0. -1.
         -2   -1    0    0    0  501 -0.00000000000E+00 -0.00000000000E+00 -0.11423957992E+02  0.11423958277E+02  0.25500000000E-02 0.  1.
        -24    2    1    2    0    0  0.00000000000E+00  0.00000000000E+00  0.13587762741E+03  0.15872554376E+03  0.82043089977E+02 0.  0.
         66    2    3    3    0    0 -0.35281858568E+02  0.10076333155E+02  0.10335851965E+03  0.10969651596E+03  0.19999989606E+01 0.  0.
         13    1    3    3    0    0  0.35281858568E+02 -0.10076333155E+02  0.32519107757E+02  0.49029027802E+02  0.10566000000E+00 0. -1.
         13    1    4    4    0    0 -0.68824821079E+01  0.24266092351E+01  0.19673906705E+02  0.20984059698E+02  0.10566000000E+00 0. -1.
        -13    1    4    4    0    0 -0.16171426881E+02  0.40241071333E+01  0.45690520369E+02  0.48634795170E+02  0.10566000000E+00 0.  1.
        -14    1    4    4    0    0 -0.12227949579E+02  0.36256167863E+01  0.37994092577E+02  0.40077661094E+02  0.00000000000E+00 0.  1.
<mgrwt>
<rscale>  0 0.82043090E+02</rscale>
<asrwt>0</asrwt>
<pdfrwt beam="1">  1        1 0.22661782E-01 0.82043090E+02</pdfrwt>
<pdfrwt beam="2">  1       -2 0.17575321E-02 0.82043090E+02</pdfrwt>
<totfact> 0.14708419E+05</totfact>
</mgrwt>
</event>
<event>
 8    1  0.1319619E-020  0.7983152E+02  0.7818608E-02  0.1329530E+00
         -2   -1    0    0    0  501 -0.00000000000E+00  0.00000000000E+00  0.84789301863E+03  0.84789301863E+03  0.25500000000E-02 0.  1.
          1   -1    0    0  501    0  0.00000000000E+00 -0.00000000000E+00 -0.18790875189E+01  0.18790942779E+01  0.50400000000E-02 0. -1.
        -24    2    1    2    0    0  0.35527136788E-14  0.00000000000E+00  0.84601393111E+03  0.84977211291E+03  0.79831524152E+02 0.  0.
         66    2    3    3    0    0  0.31104442999E+02 -0.61773245198E+01  0.68086530197E+03  0.68160634177E+03  0.20000004313E+01 0.  0.
         13    1    3    3    0    0 -0.31104442999E+02  0.61773245198E+01  0.16514862914E+03  0.16816577114E+03  0.10566000000E+00 0. -1.
         13    1    4    4    0    0  0.86424393115E+01 -0.99467101358E+00  0.17977917762E+03  0.17998956913E+03  0.10566000000E+00 0. -1.
        -13    1    4    4    0    0  0.34859482765E+01 -0.10901368216E+01  0.78057126299E+02  0.78142602746E+02  0.10566000000E+00 0.  1.
         14    1    4    4    0    0  0.18976055411E+02 -0.40925166846E+01  0.42302899806E+03  0.42347416990E+03  0.00000000000E+00 0. -1.
<mgrwt>
<rscale>  0 0.79831524E+02</rscale>
<asrwt>0</asrwt>
<pdfrwt beam="1">  1        1 0.28909116E-03 0.79831524E+02</pdfrwt>
<pdfrwt beam="2">  1       -2 0.13044497E+00 0.79831524E+02</pdfrwt>
<totfact> 0.31462066E+04</totfact>
</mgrwt>
</event>
<event>
 8    1  0.1319619E-020  0.7959535E+02  0.7818608E-02  0.1330204E+00
         -2   -1    0    0    0  501 -0.00000000000E+00  0.00000000000E+00  0.18513834506E+02  0.18513834681E+02  0.25500000000E-02 0.  1.
          1   -1    0    0  501    0  0.00000000000E+00 -0.00000000000E+00 -0.85549802921E+02  0.85549803069E+02  0.50400000000E-02 0. -1.
        -24    2    1    2    0    0  0.00000000000E+00  0.00000000000E+00 -0.67035968415E+02  0.10406363775E+03  0.79595349365E+02 0.  0.
         66    2    3    3    0    0 -0.26787315538E+02 -0.20860963124E+02 -0.64561618487E+01  0.34618233411E+02  0.20000006179E+01 0.  0.
         13    1    3    3    0    0  0.26787315538E+02  0.20860963124E+02 -0.60579806566E+02  0.69445404340E+02  0.10566000000E+00 0. -1.
         13    1    4    4    0    0 -0.65068872166E+01 -0.47464318370E+01 -0.16116820622E+01  0.82144311756E+01  0.10566000000E+00 0.  1.
        -13    1    4    4    0    0 -0.12195679643E+02 -0.86538880332E+01 -0.28062012922E+01  0.15215462851E+02  0.10566000000E+00 0.  1.
        -14    1    4    4    0    0 -0.80847486790E+01 -0.74606432541E+01 -0.20382784943E+01  0.11188339385E+02  0.00000000000E+00 0.  1.
<mgrwt>
<rscale>  0 0.79595349E+02</rscale>
<asrwt>0</asrwt>
<pdfrwt beam="1">  1        1 0.13161508E-01 0.79595349E+02</pdfrwt>
<pdfrwt beam="2">  1       -2 0.28482823E-02 0.79595349E+02</pdfrwt>
<totfact> 0.14522890E+05</totfact>
</mgrwt>
</event>
<event>
 8    1  0.1319619E-020  0.8068509E+02  0.7818608E-02  0.1327118E+00
         -2   -1    0    0    0  501 -0.00000000000E+00  0.00000000000E+00  0.37555819856E+02  0.37555819943E+02  0.25500000000E-02 0.  1.
          1   -1    0    0  501    0  0.00000000000E+00 -0.00000000000E+00 -0.43336047506E+02  0.43336047799E+02  0.50400000000E-02 0. -1.
        -24    2    1    2    0    0 -0.17763568394E-14  0.17763568394E-14 -0.57802276500E+01  0.80891867742E+02  0.80685086820E+02 0.  0.
         66    2    3    3    0    0 -0.12670214364E+02 -0.91851714936E+01  0.34359957090E+02  0.37808839733E+02  0.20000008319E+01 0.  0.
         13    1    3    3    0    0  0.12670214364E+02  0.91851714936E+01 -0.40140184740E+02  0.43083028009E+02  0.10566000000E+00 0. -1.
         13    1    4    4    0    0 -0.40087436384E+01 -0.21629262649E+01  0.91775077960E+01  0.10246271955E+02  0.10566000000E+00 0.  1.
        -13    1    4    4    0    0 -0.72485487576E+01 -0.53326992603E+01  0.19996547392E+02  0.21928342667E+02  0.10566000000E+00 0. -1.
         14    1    4    4    0    0 -0.14129219684E+01 -0.16895459684E+01  0.51859019018E+01  0.56342251111E+01  0.00000000000E+00 0. -1.
<mgrwt>
<rscale>  0 0.80685087E+02</rscale>
<asrwt>0</asrwt>
<pdfrwt beam="1">  1        1 0.66670843E-02 0.80685087E+02</pdfrwt>
<pdfrwt beam="2">  1       -2 0.57778185E-02 0.80685087E+02</pdfrwt>
<totfact> 0.12558303E+05</totfact>
</mgrwt>
</event>
<event>
 8    1  0.1319619E-020  0.8211921E+02  0.7818608E-02  0.1323143E+00
         -2   -1    0    0    0  501 -0.00000000000E+00  0.00000000000E+00  0.17399240776E+02  0.17399240963E+02  0.25500000000E-02 0.  1.
          1   -1    0    0  501    0  0.00000000000E+00 -0.00000000000E+00 -0.96894521678E+02  0.96894521809E+02  0.50400000000E-02 0. -1.
        -24    2    1    2    0    0 -0.35527136788E-14  0.17763568394E-14 -0.79495280902E+02  0.11429376277E+03  0.82119209220E+02 0.  0.
         66    2    3    3    0    0  0.23432941996E+02  0.13070460712E+02  0.34408342965E+01  0.27125247344E+02  0.19999972387E+01 0.  0.
         13    1    3    3    0    0 -0.23432941996E+02 -0.13070460712E+02 -0.82936115198E+02  0.87168515429E+02  0.10566000000E+00 0. -1.
         13    1    4    4    0    0  0.19355724785E+01  0.10913829433E+01  0.34377773278E+00  0.22509786124E+01  0.10566000000E+00 0. -1.
        -13    1    4    4    0    0  0.39828009239E+01  0.22259145281E+01 -0.14821682588E+00  0.45662381617E+01  0.10566000000E+00 0.  1.
        -14    1    4    4    0    0  0.17514568594E+02  0.97531632409E+01  0.32452733896E+01  0.20308030569E+02  0.00000000000E+00 0.  1.
<mgrwt>
<rscale>  0 0.82119209E+02</rscale>
<asrwt>0</asrwt>
<pdfrwt beam="1">  1        1 0.14906849E-01 0.82119209E+02</pdfrwt>
<pdfrwt beam="2">  1       -2 0.26768064E-02 0.82119209E+02</pdfrwt>
<totfact> 0.13621414E+05</totfact>
</mgrwt>
</event>
<event>
 8    1  0.1319619E-020  0.7821318E+02  0.7818608E-02  0.1334200E+00
          1   -1    0    0  501    0  0.00000000000E+00  0.00000000000E+00  0.40061928541E+02  0.40061928858E+02  0.50400000000E-02 0. -1.
         -2   -1    0    0    0  501 -0.00000000000E+00 -0.00000000000E+00 -0.38174036202E+02  0.38174036288E+02  0.25500000000E-02 0.  1.
        -24    2    1    2    0    0  0.35527136788E-14  0.35527136788E-14  0.18878923388E+01  0.78235965146E+02  0.78213183702E+02 0.  0.
         66    2    3    3    0    0 -0.24034608096E+02 -0.16826309525E+02 -0.24880268699E+02  0.38520317248E+02  0.19999979317E+01 0.  0.
         13    1    3    3    0    0  0.24034608096E+02  0.16826309525E+02  0.26768161038E+02  0.39715647898E+02  0.10566000000E+00 0. -1.
         13    1    4    4    0    0 -0.58872409222E+00 -0.12564266478E+00 -0.45985355933E+00  0.76486042360E+00  0.10566000000E+00 0. -1.
        -13    1    4    4    0    0 -0.93602944056E+01 -0.65286233892E+01 -0.92697685805E+01  0.14702986373E+02  0.10566000000E+00 0.  1.
         14    1    4    4    0    0 -0.14085589598E+02 -0.10172043471E+02 -0.15150646560E+02  0.23052470451E+02  0.00000000000E+00 0. -1.
<mgrwt>
<rscale>  0 0.78213184E+02</rscale>
<asrwt>0</asrwt>
<pdfrwt beam="1">  1        1 0.61633736E-02 0.78213184E+02</pdfrwt>
<pdfrwt beam="2">  1       -2 0.58729287E-02 0.78213184E+02</pdfrwt>
<totfact> 0.13533342E+05</totfact>
</mgrwt>
</event>
<event>
 8    1  0.1319619E-020  0.7973730E+02  0.7818608E-02  0.1329799E+00
          1   -1    0    0  501    0  0.00000000000E+00  0.00000000000E+00  0.76990387220E+02  0.76990387385E+02  0.50400000000E-02 0. -1.
         -2   -1    0    0    0  501 -0.00000000000E+00 -0.00000000000E+00 -0.20645555270E+02  0.20645555427E+02  0.25500000000E-02 0.  1.
        -24    2    1    2    0    0  0.17763568394E-14  0.17763568394E-14  0.56344831950E+02  0.97635942812E+02  0.79737301442E+02 0.  0.
         66    2    3    3    0    0  0.15452881800E+02 -0.15705953310E+02 -0.12458551708E+02  0.25390629524E+02  0.20000079205E+01 0.  0.
         13    1    3    3    0    0 -0.15452881800E+02  0.15705953310E+02  0.68803383658E+02  0.72245313288E+02  0.10566000000E+00 0. -1.
         13    1    4    4    0    0  0.57178588849E+00 -0.38429024820E+00 -0.56241413530E+00  0.89559577507E+00  0.10566000000E+00 0. -1.
        -13    1    4    4    0    0  0.69721631560E+01 -0.61351236526E+01 -0.49723830968E+01  0.10535015852E+02  0.10566000000E+00 0.  1.
         14    1    4    4    0    0  0.79089327554E+01 -0.91865394092E+01 -0.69237544755E+01  0.13960017897E+02  0.00000000000E+00 0. -1.
<mgrwt>
<rscale>  0 0.79737301E+02</rscale>
<asrwt>0</asrwt>
<pdfrwt beam="1">  1        1 0.11844675E-01 0.79737301E+02</pdfrwt>
<pdfrwt beam="2">  1       -2 0.31762393E-02 0.79737301E+02</pdfrwt>
<totfact> 0.14209268E+05</totfact>
</mgrwt>
</event>
<event>
 8    1  0.1319619E-020  0.7896619E+02  0.7818608E-02  0.1332011E+00
          1   -1    0    0  501    0  0.00000000000E+00  0.00000000000E+00  0.25506742504E+03  0.25506742509E+03  0.50400000000E-02 0. -1.
         -2   -1    0    0    0  501 -0.00000000000E+00 -0.00000000000E+00 -0.61117749978E+01  0.61117755298E+01  0.25500000000E-02 0.  1.
        -24    2    1    2    0    0  0.00000000000E+00  0.00000000000E+00  0.24895565004E+03  0.26117920062E+03  0.78966189907E+02 0.  0.
         66    2    3    3    0    0  0.38618618132E+02  0.29604267133E+01  0.99641764248E+02  0.10692353801E+03  0.20000012264E+01 0.  0.
         13    1    3    3    0    0 -0.38618618132E+02 -0.29604267133E+01  0.14931388580E+03  0.15425566261E+03  0.10566000000E+00 0. -1.
         13    1    4    4    0    0  0.29945156592E+02  0.16883215459E+01  0.77434863040E+02  0.83040544380E+02  0.10566000000E+00 0. -1.
        -13    1    4    4    0    0  0.70161898559E+01  0.79415119927E+00  0.17610495108E+02  0.18973621115E+02  0.10566000000E+00 0.  1.
         14    1    4    4    0    0  0.16572716845E+01  0.47795396817E+00  0.45964060994E+01  0.49093725121E+01  0.00000000000E+00 0. -1.
<mgrwt>
<rscale>  0 0.78966190E+02</rscale>
<asrwt>0</asrwt>
<pdfrwt beam="1">  1        1 0.39241148E-01 0.78966190E+02</pdfrwt>
<pdfrwt beam="2">  1       -2 0.94027298E-03 0.78966190E+02</pdfrwt>
<totfact> 0.18094481E+05</totfact>
</mgrwt>
</event>
<event>
 8    1  0.1319619E-020  0.8149252E+02  0.7818608E-02  0.1324868E+00
         -2   -1    0    0    0  501 -0.00000000000E+00  0.00000000000E+00  0.28385203780E+02  0.28385203895E+02  0.25500000000E-02 0.  1.
          1   -1    0    0  501    0  0.00000000000E+00 -0.00000000000E+00 -0.58490254838E+02  0.58490255055E+02  0.50400000000E-02 0. -1.
        -24    2    1    2    0    0 -0.71054273576E-14 -0.88817841970E-15 -0.30105051057E+02  0.86875458950E+02  0.81492522777E+02 0.  0.
         66    2    3    3    0    0  0.34997186611E+02  0.63570666923E+01  0.60731441407E+01  0.36139984778E+02  0.20000130983E+01 0.  0.
         13    1    3    3    0    0 -0.34997186611E+02 -0.63570666923E+01 -0.36178195198E+02  0.50735474172E+02  0.10566000000E+00 0. -1.
         13    1    4    4    0    0  0.98622813522E+01  0.19440978999E+01  0.19031726922E+01  0.10231194478E+02  0.10566000000E+00 0. -1.
        -13    1    4    4    0    0  0.12911169950E+02  0.30747626805E+01  0.23084956229E+01  0.13471926036E+02  0.10566000000E+00 0.  1.
         14    1    4    4    0    0  0.12223735308E+02  0.13382061119E+01  0.18614758256E+01  0.12436864265E+02  0.00000000000E+00 0. -1.
<mgrwt>
<rscale>  0 0.81492523E+02</rscale>
<asrwt>0</asrwt>
<pdfrwt beam="1">  1        1 0.89985008E-02 0.81492523E+02</pdfrwt>
<pdfrwt beam="2">  1       -2 0.43669545E-02 0.81492523E+02</pdfrwt>
<totfact> 0.12812899E+05</totfact>
</mgrwt>
</event>
<event>
 8    1  0.1319619E-020  0.7042987E+02  0.7818608E-02  0.1358637E+00
          1   -1    0    0  501    0  0.00000000000E+00  0.00000000000E+00  0.14649913366E+03  0.14649913374E+03  0.50400000000E-02 0. -1.
         -2   -1    0    0    0  501 -0.00000000000E+00 -0.00000000000E+00 -0.84648400981E+01  0.84648404822E+01  0.25500000000E-02 0.  1.
        -24    2    1    2    0    0  0.00000000000E+00  0.00000000000E+00  0.13803429356E+03  0.15496397423E+03  0.70429873701E+02 0.  0.
         66    2    3    3    0    0  0.83545712299E+01 -0.20353874806E+02  0.86552802070E+01  0.23727472672E+02  0.20000009746E+01 0.  0.
         13    1    3    3    0    0 -0.83545712299E+01  0.20353874806E+02  0.12937901335E+03  0.13123650155E+03  0.10566000000E+00 0. -1.
         13    1    4    4    0    0  0.53231641749E+01 -0.13570615261E+02  0.55725296433E+01  0.15606470647E+02  0.10566000000E+00 0. -1.
        -13    1    4    4    0    0  0.21037975374E+01 -0.41492852857E+01  0.13945355735E+01  0.48578211126E+01  0.10566000000E+00 0.  1.
         14    1    4    4    0    0  0.92760951765E+00 -0.26339742595E+01  0.16882149903E+01  0.32631809129E+01  0.00000000000E+00 0. -1.
<mgrwt>
<rscale>  0 0.70429874E+02</rscale>
<asrwt>0</asrwt>
<pdfrwt beam="1">  1        1 0.22538326E-01 0.70429874E+02</pdfrwt>
<pdfrwt beam="2">  1       -2 0.13022832E-02 0.70429874E+02</pdfrwt>
<totfact> 0.22036169E+05</totfact>
</mgrwt>
</event>
<event>
 8    1  0.1319619E-020  0.7994897E+02  0.7818608E-02  0.1329196E+00
         -2   -1    0    0    0  501 -0.00000000000E+00  0.00000000000E+00  0.15297053614E+02  0.15297053826E+02  0.25500000000E-02 0.  1.
          1   -1    0    0  501    0  0.00000000000E+00 -0.00000000000E+00 -0.10446191486E+03  0.10446191498E+03  0.50400000000E-02 0. -1.
        -24    2    1    2    0    0  0.00000000000E+00 -0.35527136788E-14 -0.89164861242E+02  0.11975896880E+03  0.79948972029E+02 0.  0.
         66    2    3    3    0    0 -0.91511077945E+01 -0.18157498144E+02  0.69006160300E+01  0.21565157388E+02  0.19999997140E+01 0.  0.
         13    1    3    3    0    0  0.91511077945E+01  0.18157498144E+02 -0.96065477272E+02  0.98193811415E+02  0.10566000000E+00 0. -1.
         13    1    4    4    0    0 -0.41364112300E+01 -0.91794277145E+01  0.38478350416E+01  0.10779090387E+02  0.10566000000E+00 0. -1.
        -13    1    4    4    0    0 -0.46455506481E+01 -0.77575666016E+01  0.29273008283E+01  0.95048006069E+01  0.10566000000E+00 0.  1.
         14    1    4    4    0    0 -0.36914591638E+00 -0.12205038283E+01  0.12548016006E+00  0.12812663942E+01  0.00000000000E+00 0. -1.
<mgrwt>
<rscale>  0 0.79948972E+02</rscale>
<asrwt>0</asrwt>
<pdfrwt beam="1">  1        1 0.16071063E-01 0.79948972E+02</pdfrwt>
<pdfrwt beam="2">  1       -2 0.23533930E-02 0.79948972E+02</pdfrwt>
<totfact> 0.14833475E+05</totfact>
</mgrwt>
</event>
<event>
 8    1  0.1319619E-020  0.7971326E+02  0.7818608E-02  0.1329867E+00
          1   -1    0    0  501    0  0.00000000000E+00  0.00000000000E+00  0.11348639590E+02  0.11348640709E+02  0.50400000000E-02 0. -1.
         -2   -1    0    0    0  501 -0.00000000000E+00 -0.00000000000E+00 -0.13997720543E+03  0.13997720545E+03  0.25500000000E-02 0.  1.
        -24    2    1    2    0    0  0.00000000000E+00  0.17763568394E-14 -0.12862856584E+03  0.15132584616E+03  0.79713259667E+02 0.  0.
         66    2    3    3    0    0 -0.33765112547E+02 -0.81024337387E+01 -0.10140044428E+03  0.10719973116E+03  0.20000005439E+01 0.  0.
         13    1    3    3    0    0  0.33765112547E+02  0.81024337387E+01 -0.27228121561E+02  0.44126115006E+02  0.10566000000E+00 0. -1.
         13    1    4    4    0    0 -0.15532341240E+02 -0.41107985916E+01 -0.44651707852E+02  0.47454593746E+02  0.10566000000E+00 0. -1.
        -13    1    4    4    0    0 -0.17266161882E+02 -0.39552753485E+01 -0.54007671127E+02  0.56838404744E+02  0.10566000000E+00 0.  1.
         14    1    4    4    0    0 -0.96660942454E+00 -0.36359798557E-01 -0.27410652998E+01  0.29067326662E+01  0.00000000000E+00 0. -1.
<mgrwt>
<rscale>  0 0.79713260E+02</rscale>
<asrwt>0</asrwt>
<pdfrwt beam="1">  1        1 0.17459447E-02 0.79713260E+02</pdfrwt>
<pdfrwt beam="2">  1       -2 0.21534953E-01 0.79713260E+02</pdfrwt>
<totfact> 0.97526013E+04</totfact>
</mgrwt>
</event>
<event>
 8    1  0.1319619E-020  0.8203530E+02  0.7818608E-02  0.1323373E+00
         -2   -1    0    0    0  501 -0.00000000000E+00  0.00000000000E+00  0.17699498221E+02  0.17699498405E+02  0.25500000000E-02 0.  1.
          1   -1    0    0  501    0  0.00000000000E+00 -0.00000000000E+00 -0.95056239999E+02  0.95056240133E+02  0.50400000000E-02 0. -1.
        -24    2    1    2    0    0  0.00000000000E+00  0.35527136788E-14 -0.77356741778E+02  0.11275573854E+03  0.82035303831E+02 0.  0.
         66    2    3    3    0    0 -0.34362232589E+02  0.17771519231E+02 -0.57338169209E+02  0.69197222309E+02  0.20000006774E+01 0.  0.
         13    1    3    3    0    0  0.34362232589E+02 -0.17771519231E+02 -0.20018572569E+02  0.43558516229E+02  0.10566000000E+00 0. -1.
         13    1    4    4    0    0 -0.61648837235E+01  0.38776609988E+01 -0.11004588375E+02  0.13196748671E+02  0.10566000000E+00 0. -1.
        -13    1    4    4    0    0 -0.23775305645E+02  0.11599359597E+02 -0.39634082822E+02  0.47651673493E+02  0.10566000000E+00 0.  1.
         14    1    4    4    0    0 -0.44220432206E+01  0.22944986351E+01 -0.66994980122E+01  0.83488001441E+01  0.00000000000E+00 0. -1.
<mgrwt>
<rscale>  0 0.82035304E+02</rscale>
<asrwt>0</asrwt>
<pdfrwt beam="1">  1        1 0.14624037E-01 0.82035304E+02</pdfrwt>
<pdfrwt beam="2">  1       -2 0.27229998E-02 0.82035304E+02</pdfrwt>
<totfact> 0.13615125E+05</totfact>
</mgrwt>
</event>
<event>
 8    1  0.1319619E-020  0.7970239E+02  0.7818608E-02  0.1329898E+00
         -2   -1    0    0    0  501 -0.00000000000E+00  0.00000000000E+00  0.17113325057E+02  0.17113325247E+02  0.25500000000E-02 0.  1.
          1   -1    0    0  501    0  0.00000000000E+00 -0.00000000000E+00 -0.92800060871E+02  0.92800061008E+02  0.50400000000E-02 0. -1.
        -24    2    1    2    0    0  0.00000000000E+00  0.35527136788E-14 -0.75686735814E+02  0.10991338625E+03  0.79702387039E+02 0.  0.
         66    2    3    3    0    0 -0.27718572031E+02  0.27704610312E+02 -0.47642622688E+02  0.61722639082E+02  0.20000026682E+01 0.  0.
         13    1    3    3    0    0  0.27718572031E+02 -0.27704610312E+02 -0.28044113126E+02  0.48190747172E+02  0.10566000000E+00 0. -1.
         13    1    4    4    0    0 -0.11233125493E+02  0.10648018115E+02 -0.19532465364E+02  0.24921712729E+02  0.10566000000E+00 0. -1.
        -13    1    4    4    0    0 -0.10960194132E+02  0.11886959772E+02 -0.19766737841E+02  0.25537438339E+02  0.10566000000E+00 0.  1.
         14    1    4    4    0    0 -0.55252524056E+01  0.51696324257E+01 -0.83434194837E+01  0.11263488014E+02  0.00000000000E+00 0. -1.
<mgrwt>
<rscale>  0 0.79702387E+02</rscale>
<asrwt>0</asrwt>
<pdfrwt beam="1">  1        1 0.14276932E-01 0.79702387E+02</pdfrwt>
<pdfrwt beam="2">  1       -2 0.26328193E-02 0.79702387E+02</pdfrwt>
<totfact> 0.14664259E+05</totfact>
</mgrwt>
</event>
<event>
 8    1  0.1319619E-020  0.8075608E+02  0.7818608E-02  0.1326919E+00
          1   -1    0    0  501    0  0.00000000000E+00  0.00000000000E+00  0.41231493290E+02  0.41231493598E+02  0.50400000000E-02 0. -1.
         -2   -1    0    0    0  501 -0.00000000000E+00 -0.00000000000E+00 -0.39542253626E+02  0.39542253708E+02  0.25500000000E-02 0.  1.
        -24    2    1    2    0    0  0.00000000000E+00  0.35527136788E-14  0.16892396636E+01  0.80773747306E+02  0.80756081649E+02 0.  0.
         66    2    3    3    0    0 -0.52206249540E+01  0.27540295263E+02 -0.28189793020E+02  0.39804361831E+02  0.20000005333E+01 0.  0.
         13    1    3    3    0    0  0.52206249540E+01 -0.27540295263E+02  0.29879032684E+02  0.40969385476E+02  0.10566000000E+00 0. -1.
         13    1    4    4    0    0 -0.12209075963E+01  0.79093940798E+01 -0.78531653608E+01  0.11213050445E+02  0.10566000000E+00 0. -1.
        -13    1    4    4    0    0 -0.41303806433E+01  0.18827925830E+02 -0.19352951336E+02  0.27314807793E+02  0.10566000000E+00 0.  1.
        -14    1    4    4    0    0  0.13066328558E+00  0.80297535368E+00 -0.98367632355E+00  0.12765035928E+01  0.00000000000E+00 0.  1.
<mgrwt>
<rscale>  0 0.80756082E+02</rscale>
<asrwt>0</asrwt>
<pdfrwt beam="1">  1        1 0.63433067E-02 0.80756082E+02</pdfrwt>
<pdfrwt beam="2">  1       -2 0.60834237E-02 0.80756082E+02</pdfrwt>
<totfact> 0.12426634E+05</totfact>
</mgrwt>
</event>
<event>
 8    1  0.1319619E-020  0.8006940E+02  0.7818608E-02  0.1328855E+00
         -2   -1    0    0    0  501 -0.00000000000E+00  0.00000000000E+00  0.10341035578E+03  0.10341035581E+03  0.25500000000E-02 0.  1.
          1   -1    0    0  501    0  0.00000000000E+00 -0.00000000000E+00 -0.15499194391E+02  0.15499195211E+02  0.50400000000E-02 0. -1.
        -24    2    1    2    0    0 -0.22204460493E-15 -0.35527136788E-14  0.87911161392E+02  0.11890955103E+03  0.80069401321E+02 0.  0.
         66    2    3    3    0    0 -0.51390934934E+00 -0.22674629541E+02  0.92931375386E+02  0.95679901002E+02  0.19999991990E+01 0.  0.
         13    1    3    3    0    0  0.51390934934E+00  0.22674629541E+02 -0.50202139945E+01  0.23229650024E+02  0.10566000000E+00 0. -1.
         13    1    4    4    0    0 -0.93644213935E-01 -0.66402046920E+01  0.24269041881E+02  0.25161451577E+02  0.10566000000E+00 0. -1.
        -13    1    4    4    0    0  0.16316896622E+00 -0.10578538027E+02  0.46081984483E+02  0.47280995641E+02  0.10566000000E+00 0.  1.
        -14    1    4    4    0    0 -0.58343410163E+00 -0.54558868228E+01  0.22580349023E+02  0.23237453784E+02  0.00000000000E+00 0.  1.
<mgrwt>
<rscale>  0 0.80069401E+02</rscale>
<asrwt>0</asrwt>
<pdfrwt beam="1">  1        1 0.23844915E-02 0.80069401E+02</pdfrwt>
<pdfrwt beam="2">  1       -2 0.15909286E-01 0.80069401E+02</pdfrwt>
<totfact> 0.10500476E+05</totfact>
</mgrwt>
</event>
<event>
 8    1  0.1319619E-020  0.8109584E+02  0.7818608E-02  0.1325970E+00
          1   -1    0    0  501    0  0.00000000000E+00  0.00000000000E+00  0.10057925184E+03  0.10057925196E+03  0.50400000000E-02 0. -1.
         -2   -1    0    0    0  501 -0.00000000000E+00 -0.00000000000E+00 -0.16346650560E+02  0.16346650759E+02  0.25500000000E-02 0.  1.
        -24    2    1    2    0    0  0.00000000000E+00  0.00000000000E+00  0.84232601275E+02  0.11692590272E+03  0.81095842123E+02 0.  0.
         66    2    3    3    0    0 -0.50662377529E+01  0.34440285201E+02  0.12232120913E+02  0.36951654703E+02  0.19999983928E+01 0.  0.
         13    1    3    3    0    0  0.50662377529E+01 -0.34440285201E+02  0.72000480363E+02  0.79974248019E+02  0.10566000000E+00 0. -1.
         13    1    4    4    0    0 -0.24843606913E+00  0.31064807516E+01  0.14628581535E+01  0.34442794825E+01  0.10566000000E+00 0. -1.
        -13    1    4    4    0    0 -0.95353242792E+00  0.99977516565E+01  0.36147993253E+01  0.10674371198E+02  0.10566000000E+00 0.  1.
        -14    1    4    4    0    0 -0.38642692559E+01  0.21336052793E+02  0.71544634339E+01  0.22833004022E+02  0.00000000000E+00 0.  1.
<mgrwt>
<rscale>  0 0.81095842E+02</rscale>
<asrwt>0</asrwt>
<pdfrwt beam="1">  1        1 0.15473731E-01 0.81095842E+02</pdfrwt>
<pdfrwt beam="2">  1       -2 0.25148694E-02 0.81095842E+02</pdfrwt>
<totfact> 0.14181865E+05</totfact>
</mgrwt>
</event>
<event>
 8    1  0.1319619E-020  0.7214765E+02  0.7818608E-02  0.1352938E+00
         -2   -1    0    0    0  501 -0.00000000000E+00  0.00000000000E+00  0.76730222504E+02  0.76730222546E+02  0.25500000000E-02 0.  1.
          1   -1    0    0  501    0  0.00000000000E+00 -0.00000000000E+00 -0.16959692138E+02  0.16959692887E+02  0.50400000000E-02 0. -1.
        -24    2    1    2    0    0 -0.88817841970E-15  0.17763568394E-14  0.59770530366E+02  0.93689915434E+02  0.72147653834E+02 0.  0.
         66    2    3    3    0    0  0.28977446132E+01 -0.14567253520E+02  0.72558640890E+02  0.74090202839E+02  0.19999975190E+01 0.  0.
         13    1    3    3    0    0 -0.28977446132E+01  0.14567253520E+02 -0.12788110524E+02  0.19599712594E+02  0.10566000000E+00 0. -1.
         13    1    4    4    0    0 -0.39606827111E-01 -0.35345779546E+00  0.14349641070E+01  0.14821562461E+01  0.10566000000E+00 0.  1.
        -13    1    4    4    0    0  0.24363717270E+01 -0.12816788824E+02  0.65822286877E+02  0.67102835982E+02  0.10566000000E+00 0.  1.
        -14    1    4    4    0    0  0.50097971332E+00 -0.13970069004E+01  0.53013899052E+01  0.55052106118E+01  0.00000000000E+00 0.  1.
<mgrwt>
<rscale>  0 0.72147654E+02</rscale>
<asrwt>0</asrwt>
<pdfrwt beam="1">  1        1 0.26091835E-02 0.72147654E+02</pdfrwt>
<pdfrwt beam="2">  1       -2 0.11804650E-01 0.72147654E+02</pdfrwt>
<totfact> 0.14658064E+05</totfact>
</mgrwt>
</event>
<event>
 8    1  0.1319619E-020  0.8057212E+02  0.7818608E-02  0.1327436E+00
         -2   -1    0    0    0  501 -0.00000000000E+00  0.00000000000E+00  0.24257904358E+03  0.24257904359E+03  0.25500000000E-02 0.  1.
          1   -1    0    0  501    0  0.00000000000E+00 -0.00000000000E+00 -0.66904639448E+01  0.66904658431E+01  0.50400000000E-02 0. -1.
        -24    2    1    2    0    0  0.00000000000E+00  0.00000000000E+00  0.23588857963E+03  0.24926950943E+03  0.80572118827E+02 0.  0.
         66    2    3    3    0    0 -0.20239908911E+02  0.33148877459E+02  0.15082498033E+03  0.15575839202E+03  0.20000009171E+01 0.  0.
         13    1    3    3    0    0  0.20239908911E+02 -0.33148877459E+02  0.85063599297E+02  0.93511117408E+02  0.10566000000E+00 0. -1.
         13    1    4    4    0    0 -0.15925130506E+01  0.30081682840E+01  0.12000809602E+02  0.12474604979E+02  0.10566000000E+00 0. -1.
        -13    1    4    4    0    0 -0.11045611024E+02  0.19117291433E+02  0.86570558707E+02  0.89341754815E+02  0.10566000000E+00 0.  1.
         14    1    4    4    0    0 -0.76017848367E+01  0.11023417742E+02  0.52253612026E+02  0.53942032231E+02  0.00000000000E+00 0. -1.
<mgrwt>
<rscale>  0 0.80572119E+02</rscale>
<asrwt>0</asrwt>
<pdfrwt beam="1">  1        1 0.10293022E-02 0.80572119E+02</pdfrwt>
<pdfrwt beam="2">  1       -2 0.37319856E-01 0.80572119E+02</pdfrwt>
<totfact> 0.76792424E+04</totfact>
</mgrwt>
</event>
<event>
 8    1  0.1319619E-020  0.7994893E+02  0.7818608E-02  0.1329196E+00
         -2   -1    0    0    0  501 -0.00000000000E+00  0.00000000000E+00  0.25238388764E+02  0.25238388893E+02  0.25500000000E-02 0.  1.
          1   -1    0    0  501    0  0.00000000000E+00 -0.00000000000E+00 -0.63314570298E+02  0.63314570499E+02  0.50400000000E-02 0. -1.
        -24    2    1    2    0    0 -0.35527136788E-14 -0.88817841970E-15 -0.38076181534E+02  0.88552959392E+02  0.79948927553E+02 0.  0.
         66    2    3    3    0    0  0.22524960787E+02  0.44845116614E+01  0.17155250467E+02  0.28736515598E+02  0.20000017086E+01 0.  0.
         13    1    3    3    0    0 -0.22524960787E+02 -0.44845116614E+01 -0.55231432001E+02  0.59816443794E+02  0.10566000000E+00 0. -1.
         13    1    4    4    0    0  0.15843429628E+02  0.30973574144E+01  0.12987871429E+02  0.20719648974E+02  0.10566000000E+00 0. -1.
        -13    1    4    4    0    0  0.30784249396E+01  0.53073385845E+00  0.22093229699E+01  0.38276168249E+01  0.10566000000E+00 0.  1.
         14    1    4    4    0    0  0.36031062200E+01  0.85642038858E+00  0.19580560680E+01  0.41892497992E+01  0.00000000000E+00 0. -1.
<mgrwt>
<rscale>  0 0.79948928E+02</rscale>
<asrwt>0</asrwt>
<pdfrwt beam="1">  1        1 0.97407031E-02 0.79948928E+02</pdfrwt>
<pdfrwt beam="2">  1       -2 0.38828291E-02 0.79948928E+02</pdfrwt>
<totfact> 0.13677021E+05</totfact>
</mgrwt>
</event>
<event>
 8    1  0.1319619E-020  0.7882470E+02  0.7818608E-02  0.1332420E+00
          1   -1    0    0  501    0  0.00000000000E+00  0.00000000000E+00  0.12475088299E+03  0.12475088310E+03  0.50400000000E-02 0. -1.
         -2   -1    0    0    0  501 -0.00000000000E+00 -0.00000000000E+00 -0.12451481175E+02  0.12451481436E+02  0.25500000000E-02 0.  1.
        -24    2    1    2    0    0  0.44408920985E-15 -0.35527136788E-14  0.11229940182E+03  0.13720236453E+03  0.78824699075E+02 0.  0.
         66    2    3    3    0    0 -0.20747150709E+01  0.25604661110E+02  0.42170616468E+01  0.26109131011E+02  0.19999999976E+01 0.  0.
         13    1    3    3    0    0  0.20747150709E+01 -0.25604661110E+02  0.10808234017E+03  0.11109323352E+03  0.10566000000E+00 0. -1.
         13    1    4    4    0    0 -0.10600241021E+01  0.56613499269E+01  0.12712921651E+01  0.58993119850E+01  0.10566000000E+00 0. -1.
        -13    1    4    4    0    0  0.57310063893E-01  0.64509182054E+01  0.12018509045E+01  0.65630206284E+01  0.10566000000E+00 0.  1.
         14    1    4    4    0    0 -0.10720010327E+01  0.13492392978E+02  0.17439185772E+01  0.13646798397E+02  0.00000000000E+00 0. -1.
<mgrwt>
<rscale>  0 0.78824699E+02</rscale>
<asrwt>0</asrwt>
<pdfrwt beam="1">  1        1 0.19192443E-01 0.78824699E+02</pdfrwt>
<pdfrwt beam="2">  1       -2 0.19156126E-02 0.78824699E+02</pdfrwt>
<totfact> 0.15888988E+05</totfact>
</mgrwt>
</event>
<event>
 8    1  0.1319619E-020  0.7957657E+02  0.7818608E-02  0.1330257E+00
         -2   -1    0    0    0  501 -0.00000000000E+00  0.00000000000E+00  0.94502708323E+01  0.94502711764E+01  0.25500000000E-02 0.  1.
          1   -1    0    0  501    0  0.00000000000E+00 -0.00000000000E+00 -0.16751979719E+03  0.16751979726E+03  0.50400000000E-02 0. -1.
        -24    2    1    2    0    0  0.71054273576E-14  0.35527136788E-14 -0.15806952635E+03  0.17697006844E+03  0.79576566660E+02 0.  0.
         66    2    3    3    0    0 -0.34806492208E+02 -0.11764590680E+02 -0.11289984985E+03  0.11874457288E+03  0.19999995333E+01 0.  0.
         13    1    3    3    0    0  0.34806492208E+02  0.11764590680E+02 -0.45169676500E+02  0.58225495556E+02  0.10566000000E+00 0. -1.
         13    1    4    4    0    0 -0.47192163179E+00 -0.22642572465E+00 -0.21783660214E+01  0.22428600479E+01  0.10566000000E+00 0. -1.
        -13    1    4    4    0    0 -0.98497906137E+01 -0.31652882633E+01 -0.30006178704E+02  0.31739870028E+02  0.10566000000E+00 0.  1.
         14    1    4    4    0    0 -0.24484779962E+02 -0.83728766921E+01 -0.80715305128E+02  0.84761842806E+02  0.00000000000E+00 0. -1.
<mgrwt>
<rscale>  0 0.79576567E+02</rscale>
<asrwt>0</asrwt>
<pdfrwt beam="1">  1        1 0.25772274E-01 0.79576567E+02</pdfrwt>
<pdfrwt beam="2">  1       -2 0.14538880E-02 0.79576567E+02</pdfrwt>
<totfact> 0.16346605E+05</totfact>
</mgrwt>
</event>
<event>
 8    1  0.1319619E-020  0.7936452E+02  0.7818608E-02  0.1330865E+00
         -2   -1    0    0    0  501 -0.00000000000E+00  0.00000000000E+00  0.17331493133E+03  0.17331493135E+03  0.25500000000E-02 0.  1.
          1   -1    0    0  501    0  0.00000000000E+00 -0.00000000000E+00 -0.90856654826E+01  0.90856668805E+01  0.50400000000E-02 0. -1.
        -24    2    1    2    0    0  0.00000000000E+00 -0.44408920985E-15  0.16422926585E+03  0.18240059823E+03  0.79364516464E+02 0.  0.
         66    2    3    3    0    0  0.10365994006E+02 -0.21196494628E+01  0.17000512117E+03  0.17034578946E+03  0.20000042205E+01 0.  0.
         13    1    3    3    0    0 -0.10365994006E+02  0.21196494628E+01 -0.57758553270E+01  0.12054808766E+02  0.10566000000E+00 0. -1.
         13    1    4    4    0    0  0.99673511396E+00 -0.52462649757E-01  0.23578547375E+02  0.23599900287E+02  0.10566000000E+00 0. -1.
        -13    1    4    4    0    0  0.23522048066E+01 -0.34728660227E+00  0.44482804671E+02  0.44546431405E+02  0.10566000000E+00 0.  1.
        -14    1    4    4    0    0  0.70170540856E+01 -0.17199002108E+01  0.10194376913E+03  0.10219945777E+03  0.00000000000E+00 0.  1.
<mgrwt>
<rscale>  0 0.79364516E+02</rscale>
<asrwt>0</asrwt>
<pdfrwt beam="1">  1        1 0.13977948E-02 0.79364516E+02</pdfrwt>
<pdfrwt beam="2">  1       -2 0.26663837E-01 0.79364516E+02</pdfrwt>
<totfact> 0.91766197E+04</totfact>
</mgrwt>
</event>
<event>
 8    1  0.1319619E-020  0.7938186E+02  0.7818608E-02  0.1330815E+00
         -2   -1    0    0    0  501 -0.00000000000E+00  0.00000000000E+00  0.89514584919E+02  0.89514584955E+02  0.25500000000E-02 0.  1.
          1   -1    0    0  501    0  0.00000000000E+00 -0.00000000000E+00 -0.17599031252E+02  0.17599031973E+02  0.50400000000E-02 0. -1.
        -24    2    1    2    0    0  0.00000000000E+00  0.00000000000E+00  0.71915553667E+02  0.10711361693E+03  0.79381862363E+02 0.  0.
         66    2    3    3    0    0  0.15109089410E+02  0.33544914247E+02  0.55986351135E+02  0.67022514275E+02  0.20000128988E+01 0.  0.
         13    1    3    3    0    0 -0.15109089410E+02 -0.33544914247E+02  0.15929202532E+02  0.40091102653E+02  0.10566000000E+00 0. -1.
         13    1    4    4    0    0  0.23870069269E+01  0.53438571853E+01  0.10052061147E+02  0.11632270158E+02  0.10566000000E+00 0. -1.
        -13    1    4    4    0    0  0.23719757650E+01  0.55676165685E+01  0.83591053539E+01  0.10320389025E+02  0.10566000000E+00 0.  1.
         14    1    4    4    0    0  0.10350106718E+02  0.22633440493E+02  0.37575184634E+02  0.45069855091E+02  0.00000000000E+00 0. -1.
<mgrwt>
<rscale>  0 0.79381862E+02</rscale>
<asrwt>0</asrwt>
<pdfrwt beam="1">  1        1 0.27075434E-02 0.79381862E+02</pdfrwt>
<pdfrwt beam="2">  1       -2 0.13771474E-01 0.79381862E+02</pdfrwt>
<totfact> 0.11116562E+05</totfact>
</mgrwt>
</event>
<event>
 8    1  0.1319619E-020  0.8006730E+02  0.7818608E-02  0.1328861E+00
          1   -1    0    0  501    0  0.00000000000E+00  0.00000000000E+00  0.92624997416E+01  0.92625011128E+01  0.50400000000E-02 0. -1.
         -2   -1    0    0    0  501 -0.00000000000E+00 -0.00000000000E+00 -0.17303029616E+03  0.17303029618E+03  0.25500000000E-02 0.  1.
        -24    2    1    2    0    0  0.00000000000E+00  0.88817841970E-15 -0.16376779642E+03  0.18229279729E+03  0.80067301694E+02 0.  0.
         66    2    3    3    0    0 -0.12194551525E+02  0.70271483621E+01 -0.16720190652E+03  0.16780514126E+03  0.19999967719E+01 0.  0.
         13    1    3    3    0    0  0.12194551525E+02 -0.70271483621E+01  0.34341101062E+01  0.14487656031E+02  0.10566000000E+00 0. -1.
         13    1    4    4    0    0 -0.17424669671E+01  0.16125304100E+01 -0.28335707865E+02  0.28435188582E+02  0.10566000000E+00 0.  1.
        -13    1    4    4    0    0 -0.89471232338E+01  0.41257962168E+01 -0.11414946408E+03  0.11457392601E+03  0.10566000000E+00 0. -1.
         14    1    4    4    0    0 -0.15049613245E+01  0.12888217353E+01 -0.24716734581E+02  0.24796026665E+02  0.00000000000E+00 0. -1.
<mgrwt>
<rscale>  0 0.80067302E+02</rscale>
<asrwt>0</asrwt>
<pdfrwt beam="1">  1        1 0.14250002E-02 0.80067302E+02</pdfrwt>
<pdfrwt beam="2">  1       -2 0.26620043E-01 0.80067302E+02</pdfrwt>
<totfact> 0.89758930E+04</totfact>
</mgrwt>
</event>
<event>
 8    1  0.1319619E-020  0.8110521E+02  0.7818608E-02  0.1325944E+00
          1   -1    0    0  501    0  0.00000000000E+00  0.00000000000E+00  0.26728189542E+03  0.26728189547E+03  0.50400000000E-02 0. -1.
         -2   -1    0    0    0  501 -0.00000000000E+00 -0.00000000000E+00 -0.61527310120E+01  0.61527315404E+01  0.25500000000E-02 0.  1.
        -24    2    1    2    0    0  0.44408920985E-15 -0.71054273576E-14  0.26112916441E+03  0.27343462701E+03  0.81105207864E+02 0.  0.
         66    2    3    3    0    0 -0.29966923201E+01  0.37948641847E+02  0.83755322956E+02  0.92021919684E+02  0.19999990238E+01 0.  0.
         13    1    3    3    0    0  0.29966923201E+01 -0.37948641847E+02  0.17737384146E+03  0.18141270733E+03  0.10566000000E+00 0. -1.
         13    1    4    4    0    0 -0.15938615269E+01  0.23311426000E+02  0.50652935307E+02  0.55782559963E+02  0.10566000000E+00 0.  1.
        -13    1    4    4    0    0  0.42659136144E-01  0.40345499940E+01  0.84326637898E+01  0.93488178976E+01  0.10566000000E+00 0. -1.
        -14    1    4    4    0    0 -0.14454899294E+01  0.10602665853E+02  0.24669723859E+02  0.26890541824E+02  0.00000000000E+00 0.  1.
<mgrwt>
<rscale>  0 0.81105208E+02</rscale>
<asrwt>0</asrwt>
<pdfrwt beam="1">  1        1 0.41120287E-01 0.81105208E+02</pdfrwt>
<pdfrwt beam="2">  1       -2 0.94657416E-03 0.81105208E+02</pdfrwt>
<totfact> 0.17015599E+05</totfact>
</mgrwt>
</event>
<event>
 8    1  0.1319619E-020  0.7894857E+02  0.7818608E-02  0.1332062E+00
          1   -1    0    0  501    0  0.00000000000E+00  0.00000000000E+00  0.36815611141E+01  0.36815645640E+01  0.50400000000E-02 0. -1.
         -2   -1    0    0    0  501 -0.00000000000E+00 -0.00000000000E+00 -0.42324940054E+03  0.42324940055E+03  0.25500000000E-02 0.  1.
        -24    2    1    2    0    0  0.00000000000E+00  0.00000000000E+00 -0.41956783942E+03  0.42693096511E+03  0.78948572442E+02 0.  0.
         66    2    3    3    0    0  0.19054319032E+02 -0.12743435095E+02 -0.38353447261E+03  0.38422409330E+03  0.19999951031E+01 0.  0.
         13    1    3    3    0    0 -0.19054319032E+02  0.12743435095E+02 -0.36033366817E+02  0.42706871812E+02  0.10566000000E+00 0. -1.
         13    1    4    4    0    0  0.44943901432E+00 -0.32733190047E+00 -0.71652485556E+01  0.71875651301E+01  0.10566000000E+00 0. -1.
        -13    1    4    4    0    0  0.13006340200E+02 -0.95207706403E+01 -0.26979637908E+03  0.27027746352E+03  0.10566000000E+00 0.  1.
        -14    1    4    4    0    0  0.55985398177E+01 -0.28953325541E+01 -0.10657284497E+03  0.10675906465E+03  0.00000000000E+00 0.  1.
<mgrwt>
<rscale>  0 0.78948572E+02</rscale>
<asrwt>0</asrwt>
<pdfrwt beam="1">  1        1 0.56639462E-03 0.78948572E+02</pdfrwt>
<pdfrwt beam="2">  1       -2 0.65115254E-01 0.78948572E+02</pdfrwt>
<totfact> 0.58857884E+04</totfact>
</mgrwt>
</event>
<event>
 8    1  0.1319619E-020  0.7895830E+02  0.7818608E-02  0.1332034E+00
          1   -1    0    0  501    0  0.00000000000E+00  0.00000000000E+00  0.22066784370E+02  0.22066784945E+02  0.50400000000E-02 0. -1.
         -2   -1    0    0    0  501 -0.00000000000E+00 -0.00000000000E+00 -0.70631198941E+02  0.70631198987E+02  0.25500000000E-02 0.  1.
        -24    2    1    2    0    0 -0.71054273576E-14 -0.35527136788E-14 -0.48564414571E+02  0.92697983932E+02  0.78958304582E+02 0.  0.
         66    2    3    3    0    0  0.32910937498E+02  0.17501060828E+02 -0.39477565663E+02  0.54331345766E+02  0.20000012255E+01 0.  0.
         13    1    3    3    0    0 -0.32910937498E+02 -0.17501060828E+02 -0.90868489079E+01  0.38366638167E+02  0.10566000000E+00 0. -1.
         13    1    4    4    0    0  0.14337460703E+02  0.80739040344E+01 -0.16249086878E+02  0.23125628514E+02  0.10566000000E+00 0. -1.
        -13    1    4    4    0    0  0.17687552296E+02  0.88327979109E+01 -0.22098949411E+02  0.29652024455E+02  0.10566000000E+00 0.  1.
        -14    1    4    4    0    0  0.88592449867E+00  0.59435888314E+00 -0.11295293748E+01  0.15536927971E+01  0.00000000000E+00 0.  1.
<mgrwt>
<rscale>  0 0.78958305E+02</rscale>
<asrwt>0</asrwt>
<pdfrwt beam="1">  1        1 0.33948900E-02 0.78958305E+02</pdfrwt>
<pdfrwt beam="2">  1       -2 0.10866338E-01 0.78958305E+02</pdfrwt>
<totfact> 0.11858715E+05</totfact>
</mgrwt>
</event>
<event>
 8    1  0.1319619E-020  0.8116505E+02  0.7818608E-02  0.1325777E+00
         -2   -1    0    0    0  501 -0.00000000000E+00  0.00000000000E+00  0.94447450018E+01  0.94447453461E+01  0.25500000000E-02 0.  1.
          1   -1    0    0  501    0  0.00000000000E+00 -0.00000000000E+00 -0.17437646125E+03  0.17437646132E+03  0.50400000000E-02 0. -1.
        -24    2    1    2    0    0 -0.17763568394E-14  0.35527136788E-14 -0.16493171625E+03  0.18382120667E+03  0.81165047876E+02 0.  0.
         66    2    3    3    0    0 -0.14969279292E+02  0.24343725377E+02 -0.17337245806E+02  0.33485465220E+02  0.20000002846E+01 0.  0.
         13    1    3    3    0    0  0.14969279292E+02 -0.24343725377E+02 -0.14759447044E+03  0.15033574145E+03  0.10566000000E+00 0. -1.
         13    1    4    4    0    0 -0.15118043284E+00  0.76723326868E+00 -0.35625134647E+00  0.86578373126E+00  0.10566000000E+00 0. -1.
        -13    1    4    4    0    0 -0.12116233167E+01  0.19131203222E+01 -0.12704652653E+01  0.25987124609E+01  0.10566000000E+00 0.  1.
        -14    1    4    4    0    0 -0.13606475542E+02  0.21663371786E+02 -0.15710529194E+02  0.30020969028E+02  0.00000000000E+00 0.  1.
<mgrwt>
<rscale>  0 0.81165048E+02</rscale>
<asrwt>0</asrwt>
<pdfrwt beam="1">  1        1 0.26827146E-01 0.81165048E+02</pdfrwt>
<pdfrwt beam="2">  1       -2 0.14530379E-02 0.81165048E+02</pdfrwt>
<totfact> 0.15625935E+05</totfact>
</mgrwt>
</event>
<event>
 8    1  0.1319619E-020  0.7880861E+02  0.7818608E-02  0.1332467E+00
         -2   -1    0    0    0  501 -0.00000000000E+00  0.00000000000E+00  0.67081689045E+01  0.67081693892E+01  0.25500000000E-02 0.  1.
          1   -1    0    0  501    0  0.00000000000E+00 -0.00000000000E+00 -0.23146396178E+03  0.23146396184E+03  0.50400000000E-02 0. -1.
        -24    2    1    2    0    0  0.00000000000E+00  0.00000000000E+00 -0.22475579288E+03  0.23817213122E+03  0.78808614128E+02 0.  0.
         66    2    3    3    0    0  0.33941028898E+02  0.13475824665E+01 -0.52242702282E+02  0.62346686503E+02  0.19999887589E+01 0.  0.
         13    1    3    3    0    0 -0.33941028898E+02 -0.13475824665E+01 -0.17251309059E+03  0.17582544472E+03  0.10566000000E+00 0. -1.
         13    1    4    4    0    0  0.11118028043E+02  0.58887335953E+00 -0.15633203076E+02  0.19192850800E+02  0.10566000000E+00 0. -1.
        -13    1    4    4    0    0  0.12563462952E+02  0.44910502402E+00 -0.20822957601E+02  0.24323836539E+02  0.10566000000E+00 0.  1.
         14    1    4    4    0    0  0.10259537903E+02  0.30960408291E+00 -0.15786541605E+02  0.18829999164E+02  0.00000000000E+00 0. -1.
<mgrwt>
<rscale>  0 0.78808614E+02</rscale>
<asrwt>0</asrwt>
<pdfrwt beam="1">  1        1 0.35609834E-01 0.78808614E+02</pdfrwt>
<pdfrwt beam="2">  1       -2 0.10320262E-02 0.78808614E+02</pdfrwt>
<totfact> 0.17850234E+05</totfact>
</mgrwt>
</event>
<event>
 8    1  0.1319619E-020  0.7912669E+02  0.7818608E-02  0.1331548E+00
          1   -1    0    0  501    0  0.00000000000E+00  0.00000000000E+00  0.94497335834E+01  0.94497349274E+01  0.50400000000E-02 0. -1.
         -2   -1    0    0    0  501 -0.00000000000E+00 -0.00000000000E+00 -0.16564045069E+03  0.16564045071E+03  0.25500000000E-02 0.  1.
        -24    2    1    2    0    0 -0.88817841970E-15  0.00000000000E+00 -0.15619071711E+03  0.17509018564E+03  0.79126689532E+02 0.  0.
         66    2    3    3    0    0  0.42340288123E+01  0.14984315022E+02 -0.15856376241E+03  0.15933902046E+03  0.19999982492E+01 0.  0.
         13    1    3    3    0    0 -0.42340288123E+01 -0.14984315022E+02  0.23730453013E+01  0.15751165185E+02  0.10566000000E+00 0. -1.
         13    1    4    4    0    0  0.66827611291E+00  0.15044212411E+01 -0.18535722349E+02  0.18608977491E+02  0.10566000000E+00 0. -1.
        -13    1    4    4    0    0  0.20317727426E+01  0.10198551445E+02 -0.10682813760E+03  0.10733312955E+03  0.10566000000E+00 0.  1.
        -14    1    4    4    0    0  0.15339799568E+01  0.32813423359E+01 -0.33199902463E+02  0.33396913414E+02  0.00000000000E+00 0.  1.
<mgrwt>
<rscale>  0 0.79126690E+02</rscale>
<asrwt>0</asrwt>
<pdfrwt beam="1">  1        1 0.14538054E-02 0.79126690E+02</pdfrwt>
<pdfrwt beam="2">  1       -2 0.25483144E-01 0.79126690E+02</pdfrwt>
<totfact> 0.93991389E+04</totfact>
</mgrwt>
</event>
<event>
 8    1  0.1319619E-020  0.8238311E+02  0.7818608E-02  0.1322421E+00
         -2   -1    0    0    0  501 -0.00000000000E+00  0.00000000000E+00  0.44378946413E+02  0.44378946487E+02  0.25500000000E-02 0.  1.
          1   -1    0    0  501    0  0.00000000000E+00 -0.00000000000E+00 -0.38233093128E+02  0.38233093460E+02  0.50400000000E-02 0. -1.
        -24    2    1    2    0    0  0.00000000000E+00  0.00000000000E+00  0.61458532850E+01  0.82612039947E+02  0.82383114967E+02 0.  0.
         66    2    3    3    0    0 -0.20441857845E+01 -0.33215928340E+02  0.27375578504E+02  0.43138137329E+02  0.20000007118E+01 0.  0.
         13    1    3    3    0    0  0.20441857845E+01  0.33215928340E+02 -0.21229725219E+02  0.39473902618E+02  0.10566000000E+00 0. -1.
         13    1    4    4    0    0 -0.12757541378E+01 -0.10285284473E+02  0.85337734924E+01  0.13425761779E+02  0.10566000000E+00 0. -1.
        -13    1    4    4    0    0 -0.60519403014E+00 -0.11714219643E+02  0.89214931438E+01  0.14737483014E+02  0.10566000000E+00 0.  1.
        -14    1    4    4    0    0 -0.16323761656E+00 -0.11216424224E+02  0.99203118676E+01  0.14974892536E+02  0.00000000000E+00 0.  1.
<mgrwt>
<rscale>  0 0.82383115E+02</rscale>
<asrwt>0</asrwt>
<pdfrwt beam="1">  1        1 0.58820144E-02 0.82383115E+02</pdfrwt>
<pdfrwt beam="2">  1       -2 0.68275302E-02 0.82383115E+02</pdfrwt>
<totfact> 0.11598098E+05</totfact>
</mgrwt>
</event>
<event>
 8    1  0.1319619E-020  0.8024220E+02  0.7818608E-02  0.1328366E+00
         -2   -1    0    0    0  501 -0.00000000000E+00  0.00000000000E+00  0.79044746213E+01  0.79044750327E+01  0.25500000000E-02 0.  1.
          1   -1    0    0  501    0  0.00000000000E+00 -0.00000000000E+00 -0.20364445558E+03  0.20364445564E+03  0.50400000000E-02 0. -1.
        -24    2    1    2    0    0  0.35527136788E-14  0.00000000000E+00 -0.19573998096E+03  0.21154893067E+03  0.80242195409E+02 0.  0.
         66    2    3    3    0    0  0.22692918249E+02 -0.18089073215E+02 -0.24987436691E+02  0.38347817381E+02  0.19999992573E+01 0.  0.
         13    1    3    3    0    0 -0.22692918249E+02  0.18089073215E+02 -0.17075254427E+03  0.17320111329E+03  0.10566000000E+00 0. -1.
         13    1    4    4    0    0  0.13417172579E+01 -0.11958689759E+01 -0.19843145773E+01  0.26793611524E+01  0.10566000000E+00 0.  1.
        -13    1    4    4    0    0  0.79320004415E+01 -0.61365199680E+01 -0.76430878364E+01  0.12609578265E+02  0.10566000000E+00 0. -1.
        -14    1    4    4    0    0  0.13419200550E+02 -0.10756684272E+02 -0.15360034278E+02  0.23058877963E+02  0.00000000000E+00 0.  1.
<mgrwt>
<rscale>  0 0.80242195E+02</rscale>
<asrwt>0</asrwt>
<pdfrwt beam="1">  1        1 0.31329912E-01 0.80242195E+02</pdfrwt>
<pdfrwt beam="2">  1       -2 0.12160732E-02 0.80242195E+02</pdfrwt>
<totfact> 0.16598775E+05</totfact>
</mgrwt>
</event>
<event>
 8    1  0.1319619E-020  0.8179844E+02  0.7818608E-02  0.1324024E+00
          1   -1    0    0  501    0  0.00000000000E+00  0.00000000000E+00  0.20217224169E+03  0.20217224175E+03  0.50400000000E-02 0. -1.
         -2   -1    0    0    0  501 -0.00000000000E+00 -0.00000000000E+00 -0.82738662450E+01  0.82738666380E+01  0.25500000000E-02 0.  1.
        -24    2    1    2    0    0  0.00000000000E+00  0.00000000000E+00  0.19389837545E+03  0.21044610839E+03  0.81798438473E+02 0.  0.
         66    2    3    3    0    0 -0.35134114723E+02  0.10535135121E+02  0.14341239896E+03  0.14804226176E+03  0.20000001019E+01 0.  0.
         13    1    3    3    0    0  0.35134114723E+02 -0.10535135121E+02  0.50485976484E+02  0.62403846636E+02  0.10566000000E+00 0. -1.
         13    1    4    4    0    0 -0.10806996593E+01  0.32688774794E+00  0.55881567047E+01  0.57020546073E+01  0.10566000000E+00 0. -1.
        -13    1    4    4    0    0 -0.84794515655E+01  0.28204934864E+01  0.32977692440E+02  0.34167172038E+02  0.10566000000E+00 0.  1.
        -14    1    4    4    0    0 -0.25573963498E+02  0.73877538871E+01  0.10484654982E+03  0.10817303511E+03  0.00000000000E+00 0.  1.
<mgrwt>
<rscale>  0 0.81798438E+02</rscale>
<asrwt>0</asrwt>
<pdfrwt beam="1">  1        1 0.31103420E-01 0.81798438E+02</pdfrwt>
<pdfrwt beam="2">  1       -2 0.12729026E-02 0.81798438E+02</pdfrwt>
<totfact> 0.15750279E+05</totfact>
</mgrwt>
</event>
<event>
 8    1  0.1319619E-020  0.8035612E+02  0.7818608E-02  0.1328044E+00
         -2   -1    0    0    0  501 -0.00000000000E+00  0.00000000000E+00  0.21377645791E+02  0.21377645943E+02  0.25500000000E-02 0.  1.
          1   -1    0    0  501    0  0.00000000000E+00 -0.00000000000E+00 -0.75512358740E+02  0.75512358909E+02  0.50400000000E-02 0. -1.
        -24    2    1    2    0    0  0.00000000000E+00  0.00000000000E+00 -0.54134712950E+02  0.96890004851E+02  0.80356119207E+02 0.  0.
         66    2    3    3    0    0 -0.20313720605E+02 -0.13630257794E+01  0.14645702293E+02  0.25159524795E+02  0.20000020417E+01 0.  0.
         13    1    3    3    0    0  0.20313720605E+02  0.13630257794E+01 -0.68780415243E+02  0.71730480056E+02  0.10566000000E+00 0. -1.
         13    1    4    4    0    0 -0.77599105047E+01 -0.12224328370E+01  0.51960497482E+01  0.94191639811E+01  0.10566000000E+00 0. -1.
        -13    1    4    4    0    0 -0.88668557584E+01 -0.47027189079E+00  0.64351728426E+01  0.10966535471E+02  0.10566000000E+00 0.  1.
        -14    1    4    4    0    0 -0.36869543418E+01  0.32967894834E+00  0.30144797023E+01  0.47738253428E+01  0.00000000000E+00 0.  1.
<mgrwt>
<rscale>  0 0.80356119E+02</rscale>
<asrwt>0</asrwt>
<pdfrwt beam="1">  1        1 0.11617286E-01 0.80356119E+02</pdfrwt>
<pdfrwt beam="2">  1       -2 0.32888686E-02 0.80356119E+02</pdfrwt>
<totfact> 0.13869539E+05</totfact>
</mgrwt>
</event>
<event>
 8    1  0.1319619E-020  0.7933111E+02  0.7818608E-02  0.1330960E+00
         -2   -1    0    0    0  501 -0.00000000000E+00  0.00000000000E+00  0.23583090158E+03  0.23583090160E+03  0.25500000000E-02 0.  1.
          1   -1    0    0  501    0  0.00000000000E+00 -0.00000000000E+00 -0.66715428894E+01  0.66715447931E+01  0.50400000000E-02 0. -1.
        -24    2    1    2    0    0  0.00000000000E+00  0.00000000000E+00  0.22915935869E+03  0.24250244639E+03  0.79331108830E+02 0.  0.
         66    2    3    3    0    0 -0.94128989446E+00 -0.37154626493E+02  0.15678780706E+03  0.16114517906E+03  0.19999993089E+01 0.  0.
         13    1    3    3    0    0  0.94128989446E+00  0.37154626493E+02  0.72371551639E+02  0.81357267329E+02  0.10566000000E+00 0. -1.
         13    1    4    4    0    0 -0.40664676092E+00 -0.20014327721E+02  0.83917364504E+02  0.86272092272E+02  0.10566000000E+00 0. -1.
        -13    1    4    4    0    0 -0.33134912675E+00 -0.13144842619E+02  0.53316553044E+02  0.54914139093E+02  0.10566000000E+00 0.  1.
         14    1    4    4    0    0 -0.20329400679E+00 -0.39954561524E+01  0.19553889507E+02  0.19958947697E+02  0.00000000000E+00 0. -1.
<mgrwt>
<rscale>  0 0.79331109E+02</rscale>
<asrwt>0</asrwt>
<pdfrwt beam="1">  1        1 0.10263913E-02 0.79331109E+02</pdfrwt>
<pdfrwt beam="2">  1       -2 0.36281679E-01 0.79331109E+02</pdfrwt>
<totfact> 0.80980727E+04</totfact>
</mgrwt>
</event>
<event>
 8    1  0.1319619E-020  0.7919755E+02  0.7818608E-02  0.1331344E+00
          1   -1    0    0  501    0  0.00000000000E+00  0.00000000000E+00  0.13436459528E+03  0.13436459538E+03  0.50400000000E-02 0. -1.
         -2   -1    0    0    0  501 -0.00000000000E+00 -0.00000000000E+00 -0.11670209360E+02  0.11670209638E+02  0.25500000000E-02 0.  1.
        -24    2    1    2    0    0  0.00000000000E+00 -0.71054273576E-14  0.12269438592E+03  0.14603480502E+03  0.79197550081E+02 0.  0.
         66    2    3    3    0    0 -0.16153430447E+02 -0.33956322393E+02  0.38645755004E+02  0.53957942183E+02  0.19999997713E+01 0.  0.
         13    1    3    3    0    0  0.16153430447E+02  0.33956322393E+02  0.84048630920E+02  0.92076862833E+02  0.10566000000E+00 0. -1.
         13    1    4    4    0    0 -0.78550944568E+01 -0.16275427482E+02  0.18745220129E+02  0.26038173714E+02  0.10566000000E+00 0.  1.
        -13    1    4    4    0    0 -0.81283647329E+01 -0.17551984954E+02  0.19812035263E+02  0.27688813524E+02  0.10566000000E+00 0. -1.
         14    1    4    4    0    0 -0.16997125696E+00 -0.12890995710E+00  0.88499612699E-01  0.23095494513E+00  0.00000000000E+00 0. -1.
<mgrwt>
<rscale>  0 0.79197550E+02</rscale>
<asrwt>0</asrwt>
<pdfrwt beam="1">  1        1 0.20671477E-01 0.79197550E+02</pdfrwt>
<pdfrwt beam="2">  1       -2 0.17954168E-02 0.79197550E+02</pdfrwt>
<totfact> 0.15898012E+05</totfact>
</mgrwt>
</event>
<event>
 8    1  0.1319619E-020  0.7961292E+02  0.7818608E-02  0.1330154E+00
         -2   -1    0    0    0  501 -0.00000000000E+00  0.00000000000E+00  0.11222580095E+03  0.11222580097E+03  0.25500000000E-02 0.  1.
          1   -1    0    0  501    0  0.00000000000E+00 -0.00000000000E+00 -0.14119338482E+02  0.14119339381E+02  0.50400000000E-02 0. -1.
        -24    2    1    2    0    0  0.17763568394E-14  0.00000000000E+00  0.98106462464E+02  0.12634514036E+03  0.79612916755E+02 0.  0.
         66    2    3    3    0    0  0.12010078905E+02 -0.33440573451E+02  0.77474657992E+02  0.85257472280E+02  0.20000001583E+01 0.  0.
         13    1    3    3    0    0 -0.12010078905E+02  0.33440573451E+02  0.20631804473E+02  0.41087668076E+02  0.10566000000E+00 0. -1.
         13    1    4    4    0    0  0.47506387987E+01 -0.12326822650E+02  0.30098215240E+02  0.32869938399E+02  0.10566000000E+00 0. -1.
        -13    1    4    4    0    0  0.51626925101E+01 -0.14972374140E+02  0.32310240791E+02  0.35983165583E+02  0.10566000000E+00 0.  1.
         14    1    4    4    0    0  0.20967475962E+01 -0.61413766614E+01  0.15066201960E+02  0.16404368299E+02  0.00000000000E+00 0. -1.
<mgrwt>
<rscale>  0 0.79612917E+02</rscale>
<asrwt>0</asrwt>
<pdfrwt beam="1">  1        1 0.21722060E-02 0.79612917E+02</pdfrwt>
<pdfrwt beam="2">  1       -2 0.17265508E-01 0.79612917E+02</pdfrwt>
<totfact> 0.10430719E+05</totfact>
</mgrwt>
</event>
<event>
 8    1  0.1319619E-020  0.7456291E+02  0.7818608E-02  0.1345230E+00
          1   -1    0    0  501    0  0.00000000000E+00  0.00000000000E+00  0.16340255783E+03  0.16340255791E+03  0.50400000000E-02 0. -1.
         -2   -1    0    0    0  501 -0.00000000000E+00 -0.00000000000E+00 -0.85060291585E+01  0.85060295408E+01  0.25500000000E-02 0.  1.
        -24    2    1    2    0    0  0.35527136788E-14  0.00000000000E+00  0.15489652867E+03  0.17190858745E+03  0.74562911988E+02 0.  0.
         66    2    3    3    0    0 -0.25749444706E+02 -0.26081837363E+02  0.92902070815E+02  0.99890394526E+02  0.20000034890E+01 0.  0.
         13    1    3    3    0    0  0.25749444706E+02  0.26081837363E+02  0.61994457857E+02  0.72018192923E+02  0.10566000000E+00 0. -1.
         13    1    4    4    0    0 -0.23713937035E+01 -0.23750004779E+01  0.99163177199E+01  0.10469415290E+02  0.10566000000E+00 0.  1.
        -13    1    4    4    0    0 -0.16064217206E+02 -0.16382738089E+02  0.56000940461E+02  0.60519167859E+02  0.10566000000E+00 0.  1.
         14    1    4    4    0    0 -0.73138337963E+01 -0.73240987965E+01  0.26984812633E+02  0.28901811377E+02  0.00000000000E+00 0. -1.
<mgrwt>
<rscale>  0 0.74562912E+02</rscale>
<asrwt>0</asrwt>
<pdfrwt beam="1">  1        1 0.25138854E-01 0.74562912E+02</pdfrwt>
<pdfrwt beam="2">  1       -2 0.13086199E-02 0.74562912E+02</pdfrwt>
<totfact> 0.19337996E+05</totfact>
</mgrwt>
</event>
<event>
 8    1  0.1319619E-020  0.7990688E+02  0.7818608E-02  0.1329316E+00
         -2   -1    0    0    0  501 -0.00000000000E+00  0.00000000000E+00  0.22917158898E+02  0.22917159040E+02  0.25500000000E-02 0.  1.
          1   -1    0    0  501    0  0.00000000000E+00 -0.00000000000E+00 -0.69654247171E+02  0.69654247353E+02  0.50400000000E-02 0. -1.
        -24    2    1    2    0    0  0.00000000000E+00  0.00000000000E+00 -0.46737088273E+02  0.92571406393E+02  0.79906882441E+02 0.  0.
         66    2    3    3    0    0  0.11746428829E+02 -0.37850969631E+02 -0.17755449720E+02  0.43473330775E+02  0.20000004202E+01 0.  0.
         13    1    3    3    0    0 -0.11746428829E+02  0.37850969631E+02 -0.28981638553E+02  0.49098075618E+02  0.10566000000E+00 0. -1.
         13    1    4    4    0    0  0.30533998439E+01 -0.98690623905E+01 -0.51407115201E+01  0.11539485346E+02  0.10566000000E+00 0. -1.
        -13    1    4    4    0    0  0.23453960804E+01 -0.76236729477E+01 -0.27488201501E+01  0.84373247087E+01  0.10566000000E+00 0.  1.
        -14    1    4    4    0    0  0.63476329046E+01 -0.20358234292E+02 -0.98659180498E+01  0.23496520720E+02  0.00000000000E+00 0.  1.
<mgrwt>
<rscale>  0 0.79906882E+02</rscale>
<asrwt>0</asrwt>
<pdfrwt beam="1">  1        1 0.10716038E-01 0.79906882E+02</pdfrwt>
<pdfrwt beam="2">  1       -2 0.35257168E-02 0.79906882E+02</pdfrwt>
<totfact> 0.13904043E+05</totfact>
</mgrwt>
</event>
<event>
 8    1  0.1319619E-020  0.8029772E+02  0.7818608E-02  0.1328209E+00
          1   -1    0    0  501    0  0.00000000000E+00  0.00000000000E+00  0.13529541034E+03  0.13529541043E+03  0.50400000000E-02 0. -1.
         -2   -1    0    0    0  501 -0.00000000000E+00 -0.00000000000E+00 -0.11914159395E+02  0.11914159668E+02  0.25500000000E-02 0.  1.
        -24    2    1    2    0    0 -0.44408920985E-15  0.00000000000E+00  0.12338125094E+03  0.14720957010E+03  0.80297723782E+02 0.  0.
         66    2    3    3    0    0 -0.35074579616E+01  0.31609507105E+02  0.16879926519E+02  0.36060991751E+02  0.20000014897E+01 0.  0.
         13    1    3    3    0    0  0.35074579616E+01 -0.31609507105E+02  0.10650132443E+03  0.11114857835E+03  0.10566000000E+00 0. -1.
         13    1    4    4    0    0 -0.32243866148E+00  0.50800888202E+01  0.25731686603E+01  0.57047024551E+01  0.10566000000E+00 0. -1.
        -13    1    4    4    0    0 -0.20429223946E+01  0.21235394939E+02  0.11919131831E+02  0.24437520287E+02  0.10566000000E+00 0.  1.
         14    1    4    4    0    0 -0.11420969056E+01  0.52940233459E+01  0.23876260278E+01  0.59187690086E+01  0.00000000000E+00 0. -1.
<mgrwt>
<rscale>  0 0.80297724E+02</rscale>
<asrwt>0</asrwt>
<pdfrwt beam="1">  1        1 0.20814679E-01 0.80297724E+02</pdfrwt>
<pdfrwt beam="2">  1       -2 0.18329476E-02 0.80297724E+02</pdfrwt>
<totfact> 0.15340410E+05</totfact>
</mgrwt>
</event>
<event>
 8    1  0.1319619E-020  0.8369706E+02  0.7818608E-02  0.1318875E+00
          1   -1    0    0  501    0  0.00000000000E+00  0.00000000000E+00  0.86053405269E+02  0.86053405416E+02  0.50400000000E-02 0. -1.
         -2   -1    0    0    0  501 -0.00000000000E+00 -0.00000000000E+00 -0.20351309554E+02  0.20351309713E+02  0.25500000000E-02 0.  1.
        -24    2    1    2    0    0  0.00000000000E+00 -0.71054273576E-14  0.65702095715E+02  0.10640471513E+03  0.83697061003E+02 0.  0.
         66    2    3    3    0    0 -0.19251323170E+02  0.34972230760E+02  0.48729239642E+02  0.63025464613E+02  0.20000063598E+01 0.  0.
         13    1    3    3    0    0  0.19251323170E+02 -0.34972230760E+02  0.16972856073E+02  0.43379250517E+02  0.10566000000E+00 0. -1.
         13    1    4    4    0    0 -0.47634636019E+01  0.95669146971E+01  0.14039163735E+02  0.17644424749E+02  0.10566000000E+00 0. -1.
        -13    1    4    4    0    0 -0.34696626193E+01  0.55082452469E+01  0.74425138617E+01  0.98884529128E+01  0.10566000000E+00 0.  1.
        -14    1    4    4    0    0 -0.11018196949E+02  0.19897070816E+02  0.27247562045E+02  0.35492586951E+02  0.00000000000E+00 0.  1.
<mgrwt>
<rscale>  0 0.83697061E+02</rscale>
<asrwt>0</asrwt>
<pdfrwt beam="1">  1        1 0.13238985E-01 0.83697061E+02</pdfrwt>
<pdfrwt beam="2">  1       -2 0.31309707E-02 0.83697061E+02</pdfrwt>
<totfact> 0.12677085E+05</totfact>
</mgrwt>
</event>
<event>
 8    1  0.1319619E-020  0.7906444E+02  0.7818608E-02  0.1331728E+00
         -2   -1    0    0    0  501 -0.00000000000E+00  0.00000000000E+00  0.88263605414E+01  0.88263609097E+01  0.25500000000E-02 0.  1.
          1   -1    0    0  501    0  0.00000000000E+00 -0.00000000000E+00 -0.17706009177E+03  0.17706009184E+03  0.50400000000E-02 0. -1.
        -24    2    1    2    0    0  0.00000000000E+00  0.35527136788E-14 -0.16823373123E+03  0.18588645275E+03  0.79064435705E+02 0.  0.
         66    2    3    3    0    0  0.24931567457E+02  0.30637638353E+02 -0.82437488271E+02  0.91434060460E+02  0.20000000338E+01 0.  0.
         13    1    3    3    0    0 -0.24931567457E+02 -0.30637638353E+02 -0.85796242955E+02  0.94452392288E+02  0.10566000000E+00 0. -1.
         13    1    4    4    0    0  0.71249793096E+00  0.66737150708E+00 -0.16936374017E+01  0.19577052164E+01  0.10566000000E+00 0. -1.
        -13    1    4    4    0    0  0.72879239335E+00  0.72327293566E+00 -0.18538290751E+01  0.21218172324E+01  0.10566000000E+00 0. -1.
        -14    1    4    4    0    0  0.23490277133E+02  0.29246993911E+02 -0.78890021794E+02  0.87354538012E+02  0.00000000000E+00 0.  1.
<mgrwt>
<rscale>  0 0.79064436E+02</rscale>
<asrwt>0</asrwt>
<pdfrwt beam="1">  1        1 0.27240012E-01 0.79064436E+02</pdfrwt>
<pdfrwt beam="2">  1       -2 0.13579018E-02 0.79064436E+02</pdfrwt>
<totfact> 0.16804668E+05</totfact>
</mgrwt>
</event>
<event>
 8    1  0.1319619E-020  0.7745965E+02  0.7818608E-02  0.1336419E+00
         -2   -1    0    0    0  501 -0.00000000000E+00  0.00000000000E+00  0.50063284817E+02  0.50063284882E+02  0.25500000000E-02 0.  1.
          1   -1    0    0  501    0  0.00000000000E+00 -0.00000000000E+00 -0.29962065089E+02  0.29962065513E+02  0.50400000000E-02 0. -1.
        -24    2    1    2    0    0  0.00000000000E+00  0.00000000000E+00  0.20101219728E+02  0.80025350394E+02  0.77459651892E+02 0.  0.
         66    2    3    3    0    0 -0.36090407340E+02  0.67717027404E+01  0.22694419355E+02  0.43213541036E+02  0.19999997536E+01 0.  0.
         13    1    3    3    0    0  0.36090407340E+02 -0.67717027404E+01 -0.25931996275E+01  0.36811809359E+02  0.10566000000E+00 0. -1.
         13    1    4    4    0    0 -0.11399292141E+02  0.22093653779E+01  0.79324014889E+01  0.14062692278E+02  0.10566000000E+00 0. -1.
        -13    1    4    4    0    0 -0.12488100930E+02  0.22900141403E+01  0.67867866526E+01  0.14396821410E+02  0.10566000000E+00 0.  1.
        -14    1    4    4    0    0 -0.12203014268E+02  0.22723232222E+01  0.79752312138E+01  0.14754027348E+02  0.00000000000E+00 0.  1.
<mgrwt>
<rscale>  0 0.77459652E+02</rscale>
<asrwt>0</asrwt>
<pdfrwt beam="1">  1        1 0.46095485E-02 0.77459652E+02</pdfrwt>
<pdfrwt beam="2">  1       -2 0.77020438E-02 0.77459652E+02</pdfrwt>
<totfact> 0.13263094E+05</totfact>
</mgrwt>
</event>
<event>
 8    1  0.1319619E-020  0.8059426E+02  0.7818608E-02  0.1327373E+00
          1   -1    0    0  501    0  0.00000000000E+00  0.00000000000E+00  0.40050352878E+01  0.40050384590E+01  0.50400000000E-02 0. -1.
         -2   -1    0    0    0  501 -0.00000000000E+00 -0.00000000000E+00 -0.40545416424E+03  0.40545416425E+03  0.25500000000E-02 0.  1.
        -24    2    1    2    0    0 -0.35527136788E-14  0.35527136788E-14 -0.40144912895E+03  0.40945920271E+03  0.80594264964E+02 0.  0.
         66    2    3    3    0    0  0.17986858341E+02 -0.27757364434E+02 -0.31757287481E+03  0.31929692941E+03  0.19999904387E+01 0.  0.
         13    1    3    3    0    0 -0.17986858341E+02  0.27757364434E+02 -0.83876254142E+02  0.90162273297E+02  0.10566000000E+00 0. -1.
         13    1    4    4    0    0  0.33009418746E+01 -0.60300287790E+01 -0.71269645243E+02  0.71600495539E+02  0.10566000000E+00 0. -1.
        -13    1    4    4    0    0  0.78164286066E+01 -0.11359373996E+02 -0.13253441744E+03  0.13324982140E+03  0.10566000000E+00 0.  1.
        -14    1    4    4    0    0  0.68694878598E+01 -0.10367961658E+02 -0.11376881213E+03  0.11444661247E+03  0.00000000000E+00 0.  1.
<mgrwt>
<rscale>  0 0.80594265E+02</rscale>
<asrwt>0</asrwt>
<pdfrwt beam="1">  1        1 0.61615984E-03 0.80594265E+02</pdfrwt>
<pdfrwt beam="2">  1       -2 0.62377531E-01 0.80594265E+02</pdfrwt>
<totfact> 0.57453410E+04</totfact>
</mgrwt>
</event>
<event>
 8    1  0.1319619E-020  0.8001701E+02  0.7818608E-02  0.1329003E+00
         -2   -1    0    0    0  501 -0.00000000000E+00  0.00000000000E+00  0.31726774527E+02  0.31726774629E+02  0.25500000000E-02 0.  1.
          1   -1    0    0  501    0  0.00000000000E+00 -0.00000000000E+00 -0.50452038028E+02  0.50452038280E+02  0.50400000000E-02 0. -1.
        -24    2    1    2    0    0  0.00000000000E+00 -0.35527136788E-14 -0.18725263501E+02  0.82178812909E+02  0.80017009429E+02 0.  0.
         66    2    3    3    0    0  0.18263200812E+02  0.27704590072E+02  0.13540840140E+02  0.35894891044E+02  0.20000090931E+01 0.  0.
         13    1    3    3    0    0 -0.18263200812E+02 -0.27704590072E+02 -0.32266103642E+02  0.46283921865E+02  0.10566000000E+00 0. -1.
         13    1    4    4    0    0  0.46781502044E+01  0.67639494005E+01  0.30341208772E+01  0.87665930874E+01  0.10566000000E+00 0. -1.
        -13    1    4    4    0    0  0.91039396556E+01  0.12634688448E+02  0.65792223974E+01  0.16906046280E+02  0.10566000000E+00 0.  1.
         14    1    4    4    0    0  0.44811109524E+01  0.83059522232E+01  0.39274968656E+01  0.10222251676E+02  0.00000000000E+00 0. -1.
<mgrwt>
<rscale>  0 0.80017009E+02</rscale>
<asrwt>0</asrwt>
<pdfrwt beam="1">  1        1 0.77618521E-02 0.80017009E+02</pdfrwt>
<pdfrwt beam="2">  1       -2 0.48810422E-02 0.80017009E+02</pdfrwt>
<totfact> 0.13167956E+05</totfact>
</mgrwt>
</event>
<event>
 8    1  0.1319619E-020  0.8052058E+02  0.7818608E-02  0.1327581E+00
          1   -1    0    0  501    0  0.00000000000E+00  0.00000000000E+00  0.50428296590E+01  0.50428321775E+01  0.50400000000E-02 0. -1.
         -2   -1    0    0    0  501 -0.00000000000E+00 -0.00000000000E+00 -0.32142478046E+03  0.32142478047E+03  0.25500000000E-02 0.  1.
        -24    2    1    2    0    0  0.00000000000E+00  0.71054273576E-14 -0.31638195080E+03  0.32646761265E+03  0.80520576967E+02 0.  0.
         66    2    3    3    0    0 -0.76954710828E+01  0.39378218472E+02 -0.17046619902E+03  0.17513591687E+03  0.20000010560E+01 0.  0.
         13    1    3    3    0    0  0.76954710828E+01 -0.39378218472E+02 -0.14591575178E+03  0.15133169578E+03  0.10566000000E+00 0. -1.
         13    1    4    4    0    0 -0.45769611954E+01  0.20772726084E+02 -0.91263103647E+02  0.93709230997E+02  0.10566000000E+00 0. -1.
        -13    1    4    4    0    0 -0.26177177816E+01  0.15588684746E+02 -0.68062384718E+02  0.69873878639E+02  0.10566000000E+00 0.  1.
         14    1    4    4    0    0 -0.50079210580E+00  0.30168076417E+01 -0.11140710656E+02  0.11552807235E+02  0.00000000000E+00 0. -1.
<mgrwt>
<rscale>  0 0.80520577E+02</rscale>
<asrwt>0</asrwt>
<pdfrwt beam="1">  1        1 0.77582039E-03 0.80520577E+02</pdfrwt>
<pdfrwt beam="2">  1       -2 0.49449950E-01 0.80520577E+02</pdfrwt>
<totfact> 0.66495296E+04</totfact>
</mgrwt>
</event>
<event>
 8    1  0.1319619E-020  0.8157163E+02  0.7818608E-02  0.1324650E+00
          1   -1    0    0  501    0  0.00000000000E+00  0.00000000000E+00  0.22727246111E+02  0.22727246670E+02  0.50400000000E-02 0. -1.
         -2   -1    0    0    0  501 -0.00000000000E+00 -0.00000000000E+00 -0.73193322080E+02  0.73193322124E+02  0.25500000000E-02 0.  1.
        -24    2    1    2    0    0 -0.17763568394E-14  0.00000000000E+00 -0.50466075969E+02  0.95920568794E+02  0.81571629223E+02 0.  0.
         66    2    3    3    0    0  0.12814242480E+02  0.10476490378E+02 -0.69049929779E+02  0.71034177987E+02  0.19999947094E+01 0.  0.
         13    1    3    3    0    0 -0.12814242480E+02 -0.10476490378E+02  0.18583853810E+02  0.24886390808E+02  0.10566000000E+00 0. -1.
         13    1    4    4    0    0  0.13830889819E+01  0.10736634656E+01 -0.81003031787E+01  0.82880494684E+01  0.10566000000E+00 0. -1.
        -13    1    4    4    0    0  0.85145304848E+01  0.62777102644E+01 -0.40917362743E+02  0.42262851459E+02  0.10566000000E+00 0.  1.
         14    1    4    4    0    0  0.29166230131E+01  0.31251166477E+01 -0.20032263857E+02  0.20483277060E+02  0.00000000000E+00 0. -1.
<mgrwt>
<rscale>  0 0.81571629E+02</rscale>
<asrwt>0</asrwt>
<pdfrwt beam="1">  1        1 0.34964995E-02 0.81571629E+02</pdfrwt>
<pdfrwt beam="2">  1       -2 0.11260511E-01 0.81571629E+02</pdfrwt>
<totfact> 0.10837620E+05</totfact>
</mgrwt>
</event>
<event>
 8    1  0.1319619E-020  0.8212785E+02  0.7818608E-02  0.1323119E+00
         -2   -1    0    0    0  501 -0.00000000000E+00  0.00000000000E+00  0.31211674478E+02  0.31211674583E+02  0.25500000000E-02 0.  1.
          1   -1    0    0  501    0  0.00000000000E+00 -0.00000000000E+00 -0.54026121886E+02  0.54026122121E+02  0.50400000000E-02 0. -1.
        -24    2    1    2    0    0  0.71054273576E-14  0.00000000000E+00 -0.22814447408E+02  0.85237796704E+02  0.82127845317E+02 0.  0.
         66    2    3    3    0    0  0.25120088584E+02 -0.30681940796E+02 -0.43804385754E+00  0.39706324717E+02  0.19999996603E+01 0.  0.
         13    1    3    3    0    0 -0.25120088584E+02  0.30681940796E+02 -0.22376403550E+02  0.45531471987E+02  0.10566000000E+00 0. -1.
         13    1    4    4    0    0  0.22022873027E+01 -0.23827079448E+01 -0.13857625246E+00  0.32492666753E+01  0.10566000000E+00 0. -1.
        -13    1    4    4    0    0  0.17856861592E+01 -0.29701229687E+01  0.78149320212E-01  0.34680797078E+01  0.10566000000E+00 0.  1.
         14    1    4    4    0    0  0.21132115122E+02 -0.25329109882E+02 -0.37761692529E+00  0.32988978333E+02  0.00000000000E+00 0. -1.
<mgrwt>
<rscale>  0 0.82127845E+02</rscale>
<asrwt>0</asrwt>
<pdfrwt beam="1">  1        1 0.83117111E-02 0.82127845E+02</pdfrwt>
<pdfrwt beam="2">  1       -2 0.48017961E-02 0.82127845E+02</pdfrwt>
<totfact> 0.12381749E+05</totfact>
</mgrwt>
</event>
<event>
 8    1  0.1319619E-020  0.8078425E+02  0.7818608E-02  0.1326840E+00
          1   -1    0    0  501    0  0.00000000000E+00  0.00000000000E+00  0.37314617949E+02  0.37314618290E+02  0.50400000000E-02 0. -1.
         -2   -1    0    0    0  501 -0.00000000000E+00 -0.00000000000E+00 -0.43723448484E+02  0.43723448558E+02  0.25500000000E-02 0.  1.
        -24    2    1    2    0    0 -0.17763568394E-14  0.00000000000E+00 -0.64088305347E+01  0.81038066848E+02  0.80784250752E+02 0.  0.
         66    2    3    3    0    0  0.11784685227E+02 -0.38091952303E+02  0.31096913777E+01  0.40044298302E+02  0.20000024759E+01 0.  0.
         13    1    3    3    0    0 -0.11784685227E+02  0.38091952303E+02 -0.95185219123E+01  0.40993768546E+02  0.10566000000E+00 0. -1.
         13    1    4    4    0    0  0.91946021247E+00 -0.20887709898E+01 -0.62905587729E-01  0.22854961122E+01  0.10566000000E+00 0.  1.
        -13    1    4    4    0    0  0.23681012076E+01 -0.89755898093E+01  0.40562175725E+00  0.92921907427E+01  0.10566000000E+00 0.  1.
         14    1    4    4    0    0  0.84971238067E+01 -0.27027591504E+02  0.27669752082E+01  0.28466611447E+02  0.00000000000E+00 0. -1.
<mgrwt>
<rscale>  0 0.80784251E+02</rscale>
<asrwt>0</asrwt>
<pdfrwt beam="1">  1        1 0.57407105E-02 0.80784251E+02</pdfrwt>
<pdfrwt beam="2">  1       -2 0.67266844E-02 0.80784251E+02</pdfrwt>
<totfact> 0.12211586E+05</totfact>
</mgrwt>
</event>
<event>
 8    1  0.1319619E-020  0.8005237E+02  0.7818608E-02  0.1328903E+00
          1   -1    0    0  501    0  0.00000000000E+00  0.00000000000E+00  0.42620778085E+02  0.42620778383E+02  0.50400000000E-02 0. -1.
         -2   -1    0    0    0  501 -0.00000000000E+00 -0.00000000000E+00 -0.37589542854E+02  0.37589542941E+02  0.25500000000E-02 0.  1.
        -24    2    1    2    0    0  0.00000000000E+00  0.00000000000E+00  0.50312352311E+01  0.80210321324E+02  0.80052372350E+02 0.  0.
         66    2    3    3    0    0  0.35935604166E+02  0.11180471601E+02 -0.11063896263E+02  0.39278243269E+02  0.20000004430E+01 0.  0.
         13    1    3    3    0    0 -0.35935604166E+02 -0.11180471601E+02  0.16095131494E+02  0.40932078055E+02  0.10566000000E+00 0. -1.
         13    1    4    4    0    0  0.16047425764E+02  0.47688008353E+01 -0.40605993883E+01  0.17226751478E+02  0.10566000000E+00 0.  1.
        -13    1    4    4    0    0  0.45143297429E+01  0.15913099223E+01 -0.18966775747E+01  0.51497563199E+01  0.10566000000E+00 0. -1.
        -14    1    4    4    0    0  0.15373848660E+02  0.48203608435E+01 -0.51066193002E+01  0.16901735472E+02  0.00000000000E+00 0.  1.
<mgrwt>
<rscale>  0 0.80052372E+02</rscale>
<asrwt>0</asrwt>
<pdfrwt beam="1">  1        1 0.65570428E-02 0.80052372E+02</pdfrwt>
<pdfrwt beam="2">  1       -2 0.57830066E-02 0.80052372E+02</pdfrwt>
<totfact> 0.12804633E+05</totfact>
</mgrwt>
</event>
<event>
 8    1  0.1319619E-020  0.7909444E+02  0.7818608E-02  0.1331641E+00
         -2   -1    0    0    0  501 -0.00000000000E+00  0.00000000000E+00  0.88605463823E+01  0.88605467492E+01  0.25500000000E-02 0.  1.
          1   -1    0    0  501    0  0.00000000000E+00 -0.00000000000E+00 -0.17651083077E+03  0.17651083084E+03  0.50400000000E-02 0. -1.
        -24    2    1    2    0    0  0.00000000000E+00  0.00000000000E+00 -0.16765028439E+03  0.18537137759E+03  0.79094435802E+02 0.  0.
         66    2    3    3    0    0  0.35722640640E+02 -0.15301692957E+02 -0.67022290017E+02  0.77499911129E+02  0.20000010570E+01 0.  0.
         13    1    3    3    0    0 -0.35722640640E+02  0.15301692957E+02 -0.10062799437E+03  0.10787146646E+03  0.10566000000E+00 0. -1.
         13    1    4    4    0    0  0.62303454657E+01 -0.25426714311E+01 -0.10478691562E+02  0.12453775472E+02  0.10566000000E+00 0. -1.
        -13    1    4    4    0    0  0.15203334502E+01 -0.90806909055E+00 -0.30683116661E+01  0.35442493971E+01  0.10566000000E+00 0.  1.
        -14    1    4    4    0    0  0.27971961724E+02 -0.11850952435E+02 -0.53475286789E+02  0.61501886260E+02  0.00000000000E+00 0.  1.
<mgrwt>
<rscale>  0 0.79094436E+02</rscale>
<asrwt>0</asrwt>
<pdfrwt beam="1">  1        1 0.27155510E-01 0.79094436E+02</pdfrwt>
<pdfrwt beam="2">  1       -2 0.13631611E-02 0.79094436E+02</pdfrwt>
<totfact> 0.16777822E+05</totfact>
</mgrwt>
</event>
<event>
 8    1  0.1319619E-020  0.7922041E+02  0.7818608E-02  0.1331278E+00
         -2   -1    0    0    0  501 -0.00000000000E+00  0.00000000000E+00  0.14447215440E+03  0.14447215443E+03  0.25500000000E-02 0.  1.
          1   -1    0    0  501    0  0.00000000000E+00 -0.00000000000E+00 -0.10860003867E+02  0.10860005036E+02  0.50400000000E-02 0. -1.
        -24    2    1    2    0    0  0.00000000000E+00  0.00000000000E+00  0.13361215054E+03  0.15533215946E+03  0.79220407674E+02 0.  0.
         66    2    3    3    0    0  0.86155868216E+01 -0.13086665921E+02  0.13812623012E+03  0.13902641692E+03  0.19999988511E+01 0.  0.
         13    1    3    3    0    0 -0.86155868216E+01  0.13086665921E+02 -0.45140795799E+01  0.16305742538E+02  0.10566000000E+00 0. -1.
         13    1    4    4    0    0  0.30975352697E+01 -0.43857929315E+01  0.41516635813E+02  0.41862538356E+02  0.10566000000E+00 0. -1.
        -13    1    4    4    0    0  0.37853128600E+01 -0.66770174080E+01  0.74462136168E+02  0.74856743462E+02  0.10566000000E+00 0.  1.
        -14    1    4    4    0    0  0.17327386920E+01 -0.20238555818E+01  0.22147458135E+02  0.22307135106E+02  0.00000000000E+00 0.  1.
<mgrwt>
<rscale>  0 0.79220408E+02</rscale>
<asrwt>0</asrwt>
<pdfrwt beam="1">  1        1 0.16707699E-02 0.79220408E+02</pdfrwt>
<pdfrwt beam="2">  1       -2 0.22226485E-01 0.79220408E+02</pdfrwt>
<totfact> 0.98108107E+04</totfact>
</mgrwt>
</event>
<event>
 8    1  0.1319619E-020  0.7719373E+02  0.7818608E-02  0.1337209E+00
         -2   -1    0    0    0  501 -0.00000000000E+00  0.00000000000E+00  0.17116542422E+02  0.17116542612E+02  0.25500000000E-02 0.  1.
          1   -1    0    0  501    0  0.00000000000E+00 -0.00000000000E+00 -0.87033819329E+02  0.87033819475E+02  0.50400000000E-02 0. -1.
        -24    2    1    2    0    0  0.35527136788E-14  0.00000000000E+00 -0.69917276907E+02  0.10415036209E+03  0.77193732342E+02 0.  0.
         66    2    3    3    0    0  0.20826852095E+02  0.30871666637E+02 -0.21429682049E+02  0.43012194072E+02  0.19999992568E+01 0.  0.
         13    1    3    3    0    0 -0.20826852095E+02 -0.30871666637E+02 -0.48487594858E+02  0.61138168015E+02  0.10566000000E+00 0. -1.
         13    1    4    4    0    0  0.13147079131E+02  0.19508280533E+02 -0.13297923912E+02  0.27023409175E+02  0.10566000000E+00 0. -1.
        -13    1    4    4    0    0  0.65923313447E+01  0.91629575528E+01 -0.70287937628E+01  0.13297884398E+02  0.10566000000E+00 0.  1.
         14    1    4    4    0    0  0.10874416201E+01  0.22004285504E+01 -0.11029643740E+01  0.26909004985E+01  0.00000000000E+00 0. -1.
<mgrwt>
<rscale>  0 0.77193732E+02</rscale>
<asrwt>0</asrwt>
<pdfrwt beam="1">  1        1 0.13389818E-01 0.77193732E+02</pdfrwt>
<pdfrwt beam="2">  1       -2 0.26333143E-02 0.77193732E+02</pdfrwt>
<totfact> 0.15823218E+05</totfact>
</mgrwt>
</event>
<event>
 8    1  0.1319619E-020  0.8055257E+02  0.7818608E-02  0.1327491E+00
         -2   -1    0    0    0  501 -0.00000000000E+00  0.00000000000E+00  0.50030455404E+02  0.50030455469E+02  0.25500000000E-02 0.  1.
          1   -1    0    0  501    0  0.00000000000E+00 -0.00000000000E+00 -0.32423834783E+02  0.32423835174E+02  0.50400000000E-02 0. -1.
        -24    2    1    2    0    0  0.00000000000E+00 -0.71054273576E-14  0.17606620621E+02  0.82454290643E+02  0.80552572620E+02 0.  0.
         66    2    3    3    0    0  0.54238218384E+01 -0.39192851021E+02  0.12397724726E+01  0.39636276947E+02  0.19999999956E+01 0.  0.
         13    1    3    3    0    0 -0.54238218384E+01  0.39192851021E+02  0.16366848149E+02  0.42818013696E+02  0.10566000000E+00 0. -1.
         13    1    4    4    0    0  0.42916567370E+00 -0.23391368817E+01  0.12947655858E+00  0.23840454571E+01  0.10566000000E+00 0.  1.
        -13    1    4    4    0    0  0.35105491113E+01 -0.28287891336E+02  0.15545908211E+01  0.28547445909E+02  0.10566000000E+00 0.  1.
         14    1    4    4    0    0  0.14841070534E+01 -0.85658228034E+01 -0.44429490703E+00  0.87047855809E+01  0.00000000000E+00 0. -1.
<mgrwt>
<rscale>  0 0.80552573E+02</rscale>
<asrwt>0</asrwt>
<pdfrwt beam="1">  1        1 0.49882823E-02 0.80552573E+02</pdfrwt>
<pdfrwt beam="2">  1       -2 0.76969931E-02 0.80552573E+02</pdfrwt>
<totfact> 0.12021025E+05</totfact>
</mgrwt>
</event>
<event>
 8    1  0.1319619E-020  0.8048183E+02  0.7818608E-02  0.1327690E+00
         -2   -1    0    0    0  501 -0.00000000000E+00  0.00000000000E+00  0.10463039442E+04  0.10463039442E+04  0.25500000000E-02 0.  1.
          1   -1    0    0  501    0  0.00000000000E+00 -0.00000000000E+00 -0.15476639982E+01  0.15476722047E+01  0.50400000000E-02 0. -1.
        -24    2    1    2    0    0  0.00000000000E+00  0.00000000000E+00  0.10447562802E+04  0.10478516164E+04  0.80481830169E+02 0.  0.
         66    2    3    3    0    0  0.14699740521E+02 -0.25084775128E+02  0.88445106259E+03  0.88493107666E+03  0.20000012112E+01 0.  0.
         13    1    3    3    0    0 -0.14699740521E+02  0.25084775128E+02  0.16030521762E+03  0.16292053976E+03  0.10566000000E+00 0. -1.
         13    1    4    4    0    0  0.32241402404E+01 -0.48399995402E+01  0.18037423826E+03  0.18046799625E+03  0.10566000000E+00 0.  1.
        -13    1    4    4    0    0  0.96205706214E+01 -0.17910766566E+02  0.62140987538E+03  0.62174238662E+03  0.10566000000E+00 0. -1.
         14    1    4    4    0    0  0.18550296597E+01 -0.23340090222E+01  0.82666948949E+02  0.82720693793E+02  0.00000000000E+00 0. -1.
<mgrwt>
<rscale>  0 0.80481830E+02</rscale>
<asrwt>0</asrwt>
<pdfrwt beam="1">  1        1 0.23810186E-03 0.80481830E+02</pdfrwt>
<pdfrwt beam="2">  1       -2 0.16097047E+00 0.80481830E+02</pdfrwt>
<totfact> 0.24333684E+04</totfact>
</mgrwt>
</event>
<event>
 8    1  0.1319619E-020  0.8089666E+02  0.7818608E-02  0.1326526E+00
         -2   -1    0    0    0  501 -0.00000000000E+00  0.00000000000E+00  0.95144820439E+01  0.95144823856E+01  0.25500000000E-02 0.  1.
          1   -1    0    0  501    0  0.00000000000E+00 -0.00000000000E+00 -0.17195546937E+03  0.17195546944E+03  0.50400000000E-02 0. -1.
        -24    2    1    2    0    0  0.00000000000E+00  0.00000000000E+00 -0.16244098732E+03  0.18146995183E+03  0.80896656627E+02 0.  0.
         66    2    3    3    0    0  0.38001465208E+02 -0.86271559980E+01 -0.57159367739E+02  0.69207893388E+02  0.20000020845E+01 0.  0.
         13    1    3    3    0    0 -0.38001465208E+02  0.86271559980E+01 -0.10528161959E+03  0.11226205844E+03  0.10566000000E+00 0. -1.
         13    1    4    4    0    0  0.31039897469E+02 -0.69935599534E+01 -0.47447842389E+02  0.57128749567E+02  0.10566000000E+00 0.  1.
        -13    1    4    4    0    0  0.48017647613E+01 -0.88347526328E+00 -0.62711361399E+01  0.79483196893E+01  0.10566000000E+00 0. -1.
         14    1    4    4    0    0  0.21598029775E+01 -0.75012078129E+00 -0.34403892100E+01  0.41308241314E+01  0.00000000000E+00 0. -1.
<mgrwt>
<rscale>  0 0.80896657E+02</rscale>
<asrwt>0</asrwt>
<pdfrwt beam="1">  1        1 0.26454685E-01 0.80896657E+02</pdfrwt>
<pdfrwt beam="2">  1       -2 0.14637666E-02 0.80896657E+02</pdfrwt>
<totfact> 0.15722722E+05</totfact>
</mgrwt>
</event>
<event>
 8    1  0.1319619E-020  0.7991037E+02  0.7818608E-02  0.1329306E+00
         -2   -1    0    0    0  501 -0.00000000000E+00  0.00000000000E+00  0.12039884787E+02  0.12039885057E+02  0.25500000000E-02 0.  1.
          1   -1    0    0  501    0  0.00000000000E+00 -0.00000000000E+00 -0.13259404034E+03  0.13259404043E+03  0.50400000000E-02 0. -1.
        -24    2    1    2    0    0  0.11102230246E-15  0.00000000000E+00 -0.12055415555E+03  0.14463392549E+03  0.79910374686E+02 0.  0.
         66    2    3    3    0    0 -0.68064907558E+00 -0.27439093684E+02 -0.78247273854E+01  0.28611073070E+02  0.19999995513E+01 0.  0.
         13    1    3    3    0    0  0.68064907558E+00  0.27439093684E+02 -0.11272942816E+03  0.11602285242E+03  0.10566000000E+00 0. -1.
         13    1    4    4    0    0  0.16658720489E+00 -0.14013641236E+02 -0.46751888827E+01  0.14774249460E+02  0.10566000000E+00 0. -1.
        -13    1    4    4    0    0 -0.47015918032E-02 -0.56891607315E+01 -0.14298094713E+01  0.58670342673E+01  0.10566000000E+00 0.  1.
         14    1    4    4    0    0 -0.84253468867E+00 -0.77362917166E+01 -0.17197290315E+01  0.79697893427E+01  0.00000000000E+00 0. -1.
<mgrwt>
<rscale>  0 0.79910375E+02</rscale>
<asrwt>0</asrwt>
<pdfrwt beam="1">  1        1 0.20399082E-01 0.79910375E+02</pdfrwt>
<pdfrwt beam="2">  1       -2 0.18522901E-02 0.79910375E+02</pdfrwt>
<totfact> 0.15484127E+05</totfact>
</mgrwt>
</event>
<event>
 8    1  0.1319619E-020  0.8003961E+02  0.7818608E-02  0.1328939E+00
         -2   -1    0    0    0  501 -0.00000000000E+00  0.00000000000E+00  0.26738579103E+03  0.26738579105E+03  0.25500000000E-02 0.  1.
          1   -1    0    0  501    0  0.00000000000E+00 -0.00000000000E+00 -0.59897895486E+01  0.59897916690E+01  0.50400000000E-02 0. -1.
        -24    2    1    2    0    0  0.00000000000E+00 -0.35527136788E-14  0.26139600149E+03  0.27337558272E+03  0.80039612895E+02 0.  0.
         66    2    3    3    0    0 -0.29207531094E+02  0.22738919348E+02  0.18251513966E+03  0.18624154888E+03  0.19999997634E+01 0.  0.
         13    1    3    3    0    0  0.29207531094E+02 -0.22738919348E+02  0.78880861824E+02  0.87134033832E+02  0.10566000000E+00 0. -1.
         13    1    4    4    0    0 -0.16944350715E+02  0.13613670847E+02  0.11041703696E+03  0.11253611096E+03  0.10566000000E+00 0. -1.
        -13    1    4    4    0    0 -0.14395475935E+01  0.10667939905E+01  0.73283645534E+01  0.75449610838E+01  0.10566000000E+00 0.  1.
        -14    1    4    4    0    0 -0.10823632786E+02  0.80584545112E+01  0.64769738150E+02  0.66160476841E+02  0.00000000000E+00 0.  1.
<mgrwt>
<rscale>  0 0.80039613E+02</rscale>
<asrwt>0</asrwt>
<pdfrwt beam="1">  1        1 0.92150639E-03 0.80039613E+02</pdfrwt>
<pdfrwt beam="2">  1       -2 0.41136269E-01 0.80039613E+02</pdfrwt>
<totfact> 0.74526690E+04</totfact>
</mgrwt>
</event>
<event>
 8    1  0.1319619E-020  0.7817742E+02  0.7818608E-02  0.1334305E+00
          1   -1    0    0  501    0  0.00000000000E+00  0.00000000000E+00  0.34747920556E+02  0.34747920922E+02  0.50400000000E-02 0. -1.
         -2   -1    0    0    0  501 -0.00000000000E+00 -0.00000000000E+00 -0.43971760261E+02  0.43971760335E+02  0.25500000000E-02 0.  1.
        -24    2    1    2    0    0  0.00000000000E+00 -0.88817841970E-15 -0.92238397045E+01  0.78719681257E+02  0.78177420002E+02 0.  0.
         66    2    3    3    0    0 -0.35758476106E+02  0.65976319934E+01 -0.18987158159E+02  0.41069569535E+02  0.20000013850E+01 0.  0.
         13    1    3    3    0    0  0.35758476106E+02 -0.65976319934E+01  0.97633184545E+01  0.37650111721E+02  0.10566000000E+00 0. -1.
         13    1    4    4    0    0 -0.47603791296E+01  0.68179554484E+00 -0.29331958759E+01  0.56339024400E+01  0.10566000000E+00 0. -1.
        -13    1    4    4    0    0 -0.12575963096E+02  0.28421885295E+01 -0.71797247601E+01  0.14757794385E+02  0.10566000000E+00 0.  1.
        -14    1    4    4    0    0 -0.18422133880E+02  0.30736479191E+01 -0.88742375230E+01  0.20677872711E+02  0.00000000000E+00 0.  1.
<mgrwt>
<rscale>  0 0.78177420E+02</rscale>
<asrwt>0</asrwt>
<pdfrwt beam="1">  1        1 0.53458340E-02 0.78177420E+02</pdfrwt>
<pdfrwt beam="2">  1       -2 0.67648862E-02 0.78177420E+02</pdfrwt>
<totfact> 0.13243634E+05</totfact>
</mgrwt>
</event>
<event>
 8    1  0.1319619E-020  0.8016998E+02  0.7818608E-02  0.1328570E+00
         -2   -1    0    0    0  501 -0.00000000000E+00  0.00000000000E+00  0.41007912769E+03  0.41007912769E+03  0.25500000000E-02 0.  1.
          1   -1    0    0  501    0  0.00000000000E+00 -0.00000000000E+00 -0.39182822626E+01  0.39182855040E+01  0.50400000000E-02 0. -1.
        -24    2    1    2    0    0  0.17763568394E-14 -0.11102230246E-15  0.40616084542E+03  0.41399741320E+03  0.80169980538E+02 0.  0.
         66    2    3    3    0    0 -0.10690016450E+02 -0.38055469693E+00  0.40256478741E+03  0.40271184406E+03  0.20000015739E+01 0.  0.
         13    1    3    3    0    0  0.10690016450E+02  0.38055469693E+00  0.35960580121E+01  0.11285569141E+02  0.10566000000E+00 0. -1.
         13    1    4    4    0    0 -0.34217664833E+01 -0.10212860533E+01  0.13491820657E+03  0.13496549611E+03  0.10566000000E+00 0. -1.
        -13    1    4    4    0    0 -0.39574396200E+01  0.30653618184E+00  0.13854043793E+03  0.13859732825E+03  0.10566000000E+00 0.  1.
         14    1    4    4    0    0 -0.33108103469E+01  0.33419517448E+00  0.12910614292E+03  0.12914901970E+03  0.00000000000E+00 0. -1.
<mgrwt>
<rscale>  0 0.80169981E+02</rscale>
<asrwt>0</asrwt>
<pdfrwt beam="1">  1        1 0.60281311E-03 0.80169981E+02</pdfrwt>
<pdfrwt beam="2">  1       -2 0.63089075E-01 0.80169981E+02</pdfrwt>
<totfact> 0.57800861E+04</totfact>
</mgrwt>
</event>
<event>
 8    1  0.1319619E-020  0.8936678E+02  0.7818608E-02  0.1304392E+00
          1   -1    0    0  501    0  0.00000000000E+00  0.00000000000E+00  0.26452774590E+03  0.26452774595E+03  0.50400000000E-02 0. -1.
         -2   -1    0    0    0  501 -0.00000000000E+00 -0.00000000000E+00 -0.75478096871E+01  0.75478101179E+01  0.25500000000E-02 0.  1.
        -24    2    1    2    0    0 -0.35527136788E-14  0.00000000000E+00  0.25697993621E+03  0.27207555607E+03  0.89366775664E+02 0.  0.
         66    2    3    3    0    0  0.20591911419E+02 -0.31680292074E+02  0.56063983983E+02  0.67637548968E+02  0.20000021504E+01 0.  0.
         13    1    3    3    0    0 -0.20591911419E+02  0.31680292074E+02  0.20091595223E+03  0.20443800710E+03  0.10566000000E+00 0. -1.
         13    1    4    4    0    0  0.75533712197E+01 -0.10379524417E+02  0.19594417228E+02  0.23425206391E+02  0.10566000000E+00 0. -1.
        -13    1    4    4    0    0  0.51685890464E+01 -0.76373625448E+01  0.13826499664E+02  0.16620074500E+02  0.10566000000E+00 0.  1.
         14    1    4    4    0    0  0.78699511526E+01 -0.13663405112E+02  0.22643067091E+02  0.27592268078E+02  0.00000000000E+00 0. -1.
<mgrwt>
<rscale>  0 0.89366776E+02</rscale>
<asrwt>0</asrwt>
<pdfrwt beam="1">  1        1 0.40696573E-01 0.89366776E+02</pdfrwt>
<pdfrwt beam="2">  1       -2 0.11612016E-02 0.89366776E+02</pdfrwt>
<totfact> 0.13120122E+05</totfact>
</mgrwt>
</event>
<event>
 8    1  0.1319619E-020  0.7918439E+02  0.7818608E-02  0.1331382E+00
         -2   -1    0    0    0  501 -0.00000000000E+00  0.00000000000E+00  0.98044114007E+02  0.98044114040E+02  0.25500000000E-02 0.  1.
          1   -1    0    0  501    0  0.00000000000E+00 -0.00000000000E+00 -0.15988129568E+02  0.15988130363E+02  0.50400000000E-02 0. -1.
        -24    2    1    2    0    0 -0.35527136788E-14  0.00000000000E+00  0.82055984439E+02  0.11403224440E+03  0.79184393546E+02 0.  0.
         66    2    3    3    0    0 -0.27206378861E+02 -0.17608717787E+02  0.73743799690E+02  0.80575442820E+02  0.20000000442E+01 0.  0.
         13    1    3    3    0    0  0.27206378861E+02  0.17608717787E+02  0.83121847492E+01  0.33456801583E+02  0.10566000000E+00 0. -1.
         13    1    4    4    0    0 -0.28555165469E+01 -0.24055140971E+01  0.85342281479E+01  0.93158299113E+01  0.10566000000E+00 0. -1.
        -13    1    4    4    0    0 -0.44188884699E+01 -0.33247217888E+01  0.12531891325E+02  0.13698168290E+02  0.10566000000E+00 0.  1.
         14    1    4    4    0    0 -0.19931973844E+02 -0.11878481901E+02  0.52677680217E+02  0.57561444619E+02  0.00000000000E+00 0. -1.
<mgrwt>
<rscale>  0 0.79184394E+02</rscale>
<asrwt>0</asrwt>
<pdfrwt beam="1">  1        1 0.24597122E-02 0.79184394E+02</pdfrwt>
<pdfrwt beam="2">  1       -2 0.15083710E-01 0.79184394E+02</pdfrwt>
<totfact> 0.10947890E+05</totfact>
</mgrwt>
</event>
<event>
 8    1  0.1319619E-020  0.8055002E+02  0.7818608E-02  0.1327498E+00
         -2   -1    0    0    0  501 -0.00000000000E+00  0.00000000000E+00  0.40083257230E+02  0.40083257311E+02  0.25500000000E-02 0.  1.
          1   -1    0    0  501    0  0.00000000000E+00 -0.00000000000E+00 -0.40467681058E+02  0.40467681372E+02  0.50400000000E-02 0. -1.
        -24    2    1    2    0    0  0.17763568394E-14 -0.35527136788E-14 -0.38442382751E+00  0.80550938683E+02  0.80550021360E+02 0.  0.
         66    2    3    3    0    0  0.88765919710E+01 -0.22840307319E+02  0.31739177932E+02  0.40147838833E+02  0.20000059303E+01 0.  0.
         13    1    3    3    0    0 -0.88765919710E+01  0.22840307319E+02 -0.32123601759E+02  0.40403099850E+02  0.10566000000E+00 0. -1.
         13    1    4    4    0    0  0.36378924208E+01 -0.73726032315E+01  0.11231646555E+02  0.13919432031E+02  0.10566000000E+00 0. -1.
        -13    1    4    4    0    0  0.21497725808E+01 -0.75828360033E+01  0.10011546951E+02  0.12742180362E+02  0.10566000000E+00 0.  1.
         14    1    4    4    0    0  0.30889269694E+01 -0.78848680844E+01  0.10495984426E+02  0.13486226440E+02  0.00000000000E+00 0. -1.
<mgrwt>
<rscale>  0 0.80550021E+02</rscale>
<asrwt>0</asrwt>
<pdfrwt beam="1">  1        1 0.62257972E-02 0.80550021E+02</pdfrwt>
<pdfrwt beam="2">  1       -2 0.61666549E-02 0.80550021E+02</pdfrwt>
<totfact> 0.12478322E+05</totfact>
</mgrwt>
</event>
<event>
 8    1  0.1319619E-020  0.7932169E+02  0.7818608E-02  0.1330987E+00
         -2   -1    0    0    0  501 -0.00000000000E+00  0.00000000000E+00  0.18956500517E+02  0.18956500689E+02  0.25500000000E-02 0.  1.
          1   -1    0    0  501    0  0.00000000000E+00 -0.00000000000E+00 -0.82978529652E+02  0.82978529805E+02  0.50400000000E-02 0. -1.
        -24    2    1    2    0    0  0.00000000000E+00  0.00000000000E+00 -0.64022029134E+02  0.10193503049E+03  0.79321688253E+02 0.  0.
         66    2    3    3    0    0  0.18753116098E+02  0.19295211831E+02  0.53686768503E+01  0.27510130063E+02  0.20000004919E+01 0.  0.
         13    1    3    3    0    0 -0.18753116098E+02 -0.19295211831E+02 -0.69390705985E+02  0.74424900431E+02  0.10566000000E+00 0. -1.
         13    1    4    4    0    0  0.12136228364E+01  0.14161959021E+01 -0.54983962944E-01  0.18688709141E+01  0.10566000000E+00 0.  1.
        -13    1    4    4    0    0  0.10988803429E+02  0.10654503006E+02  0.34922400270E+01  0.15699654122E+02  0.10566000000E+00 0.  1.
         14    1    4    4    0    0  0.65506898332E+01  0.72245129227E+01  0.19314207862E+01  0.99416050270E+01  0.00000000000E+00 0. -1.
<mgrwt>
<rscale>  0 0.79321688E+02</rscale>
<asrwt>0</asrwt>
<pdfrwt beam="1">  1        1 0.12765927E-01 0.79321688E+02</pdfrwt>
<pdfrwt beam="2">  1       -2 0.29163848E-02 0.79321688E+02</pdfrwt>
<totfact> 0.14587144E+05</totfact>
</mgrwt>
</event>
<event>
 8    1  0.1319619E-020  0.8080751E+02  0.7818608E-02  0.1326775E+00
         -2   -1    0    0    0  501 -0.00000000000E+00  0.00000000000E+00  0.16361285956E+03  0.16361285958E+03  0.25500000000E-02 0.  1.
          1   -1    0    0  501    0  0.00000000000E+00 -0.00000000000E+00 -0.99775989600E+01  0.99776002330E+01  0.50400000000E-02 0. -1.
        -24    2    1    2    0    0  0.00000000000E+00  0.00000000000E+00  0.15363526060E+03  0.17359045982E+03  0.80807514740E+02 0.  0.
         66    2    3    3    0    0  0.34183291740E+02  0.88264895155E+01  0.11896342257E+03  0.12410761564E+03  0.19999996325E+01 0.  0.
         13    1    3    3    0    0 -0.34183291740E+02 -0.88264895155E+01  0.34671838035E+02  0.49482844179E+02  0.10566000000E+00 0. -1.
         13    1    4    4    0    0  0.13092729398E+01  0.45891822136E+00  0.39504590745E+01  0.41883281270E+01  0.10566000000E+00 0. -1.
        -13    1    4    4    0    0  0.23795356151E+02  0.61321000198E+01  0.85443246729E+02  0.88906586936E+02  0.10566000000E+00 0.  1.
        -14    1    4    4    0    0  0.90786626494E+01  0.22354712744E+01  0.29569716765E+02  0.31012700574E+02  0.00000000000E+00 0.  1.
<mgrwt>
<rscale>  0 0.80807515E+02</rscale>
<asrwt>0</asrwt>
<pdfrwt beam="1">  1        1 0.15350154E-02 0.80807515E+02</pdfrwt>
<pdfrwt beam="2">  1       -2 0.25171209E-01 0.80807515E+02</pdfrwt>
<totfact> 0.89423580E+04</totfact>
</mgrwt>
</event>
<event>
 8    1  0.1319619E-020  0.7889659E+02  0.7818608E-02  0.1332212E+00
         -2   -1    0    0    0  501 -0.00000000000E+00  0.00000000000E+00  0.12123491781E+03  0.12123491783E+03  0.25500000000E-02 0.  1.
          1   -1    0    0  501    0  0.00000000000E+00 -0.00000000000E+00 -0.12835969831E+02  0.12835970821E+02  0.50400000000E-02 0. -1.
        -24    2    1    2    0    0 -0.88817841970E-15  0.00000000000E+00  0.10839894797E+03  0.13407088865E+03  0.78896585872E+02 0.  0.
         66    2    3    3    0    0 -0.66868108011E+01  0.93410291190E+01  0.11831911756E+03  0.11889231190E+03  0.19999959747E+01 0.  0.
         13    1    3    3    0    0  0.66868108011E+01 -0.93410291190E+01 -0.99201695868E+01  0.15178576757E+02  0.10566000000E+00 0. -1.
         13    1    4    4    0    0 -0.12872458578E+01  0.19582406069E+01  0.23351347148E+02  0.23468879092E+02  0.10566000000E+00 0. -1.
        -13    1    4    4    0    0 -0.26629918682E+01  0.50841304725E+01  0.58517658416E+02  0.58798532455E+02  0.10566000000E+00 0.  1.
         14    1    4    4    0    0 -0.27365730751E+01  0.22986580396E+01  0.36450111997E+02  0.36624900349E+02  0.00000000000E+00 0. -1.
<mgrwt>
<rscale>  0 0.78896586E+02</rscale>
<asrwt>0</asrwt>
<pdfrwt beam="1">  1        1 0.19747646E-02 0.78896586E+02</pdfrwt>
<pdfrwt beam="2">  1       -2 0.18651526E-01 0.78896586E+02</pdfrwt>
<totfact> 0.10451405E+05</totfact>
</mgrwt>
</event>
<event>
 8    1  0.1319619E-020  0.7930535E+02  0.7818608E-02  0.1331034E+00
          1   -1    0    0  501    0  0.00000000000E+00  0.00000000000E+00  0.16954694083E+02  0.16954694832E+02  0.50400000000E-02 0. -1.
         -2   -1    0    0    0  501 -0.00000000000E+00 -0.00000000000E+00 -0.92737419021E+02  0.92737419056E+02  0.25500000000E-02 0.  1.
        -24    2    1    2    0    0  0.00000000000E+00  0.00000000000E+00 -0.75782724938E+02  0.10969211389E+03  0.79305349443E+02 0.  0.
         66    2    3    3    0    0 -0.37355663620E+02  0.44792971053E+01 -0.55125612707E+02  0.66770823637E+02  0.20000014620E+01 0.  0.
         13    1    3    3    0    0  0.37355663620E+02 -0.44792971053E+01 -0.20657112232E+02  0.42921290251E+02  0.10566000000E+00 0. -1.
         13    1    4    4    0    0 -0.21934425140E+02  0.24252338803E+01 -0.31467446631E+02  0.38434517392E+02  0.10566000000E+00 0. -1.
        -13    1    4    4    0    0 -0.14332284029E+02  0.21795706281E+01 -0.22120550429E+02  0.26447964174E+02  0.10566000000E+00 0.  1.
         14    1    4    4    0    0 -0.10889544510E+01 -0.12550740318E+00 -0.15376156462E+01  0.18883420717E+01  0.00000000000E+00 0. -1.
<mgrwt>
<rscale>  0 0.79305349E+02</rscale>
<asrwt>0</asrwt>
<pdfrwt beam="1">  1        1 0.26084146E-02 0.79305349E+02</pdfrwt>
<pdfrwt beam="2">  1       -2 0.14267295E-01 0.79305349E+02</pdfrwt>
<totfact> 0.11052190E+05</totfact>
</mgrwt>
</event>
<event>
 8    1  0.1319619E-020  0.7534225E+02  0.7818608E-02  0.1342814E+00
         -2   -1    0    0    0  501 -0.00000000000E+00  0.00000000000E+00  0.19427323704E+02  0.19427323872E+02  0.25500000000E-02 0.  1.
          1   -1    0    0  501    0  0.00000000000E+00 -0.00000000000E+00 -0.73047310660E+02  0.73047310834E+02  0.50400000000E-02 0. -1.
        -24    2    1    2    0    0  0.00000000000E+00  0.35527136788E-14 -0.53619986956E+02  0.92474634705E+02  0.75342252838E+02 0.  0.
         66    2    3    3    0    0 -0.14614498921E+01  0.17262351065E+02  0.14192290600E+02  0.22484344298E+02  0.20000064905E+01 0.  0.
         13    1    3    3    0    0  0.14614498921E+01 -0.17262351065E+02 -0.67812277555E+02  0.69990290408E+02  0.10566000000E+00 0. -1.
         13    1    4    4    0    0 -0.18832532135E+00  0.67307503222E+01  0.59668154307E+01  0.89973616547E+01  0.10566000000E+00 0. -1.
        -13    1    4    4    0    0 -0.56465550536E+00  0.83534442517E+01  0.60713484016E+01  0.10342693177E+02  0.10566000000E+00 0.  1.
        -14    1    4    4    0    0 -0.70846906534E+00  0.21781564906E+01  0.21541267675E+01  0.31442894658E+01  0.00000000000E+00 0.  1.
<mgrwt>
<rscale>  0 0.75342253E+02</rscale>
<asrwt>0</asrwt>
<pdfrwt beam="1">  1        1 0.11238048E-01 0.75342253E+02</pdfrwt>
<pdfrwt beam="2">  1       -2 0.29888191E-02 0.75342253E+02</pdfrwt>
<totfact> 0.16440964E+05</totfact>
</mgrwt>
</event>
<event>
 8    1  0.1319619E-020  0.8080665E+02  0.7818608E-02  0.1326778E+00
         -2   -1    0    0    0  501 -0.00000000000E+00  0.00000000000E+00  0.63012353676E+02  0.63012353727E+02  0.25500000000E-02 0.  1.
          1   -1    0    0  501    0  0.00000000000E+00 -0.00000000000E+00 -0.25906486495E+02  0.25906486985E+02  0.50400000000E-02 0. -1.
        -24    2    1    2    0    0 -0.22204460493E-15  0.00000000000E+00  0.37105867180E+02  0.88918840713E+02  0.80806651053E+02 0.  0.
         66    2    3    3    0    0  0.18120577025E+01  0.10716025931E+02  0.61356668589E+02  0.62343865682E+02  0.20000107220E+01 0.  0.
         13    1    3    3    0    0 -0.18120577025E+01 -0.10716025931E+02 -0.24250801409E+02  0.26574975031E+02  0.10566000000E+00 0. -1.
         13    1    4    4    0    0  0.22258437580E+00  0.22761732536E+01  0.96336282951E+01  0.99019425695E+01  0.10566000000E+00 0. -1.
        -13    1    4    4    0    0  0.14856919616E+01  0.53519292755E+01  0.34335133772E+02  0.34781647499E+02  0.10566000000E+00 0.  1.
        -14    1    4    4    0    0  0.10378136514E+00  0.30879234022E+01  0.17387906522E+02  0.17660275613E+02  0.00000000000E+00 0.  1.
<mgrwt>
<rscale>  0 0.80806651E+02</rscale>
<asrwt>0</asrwt>
<pdfrwt beam="1">  1        1 0.39856134E-02 0.80806651E+02</pdfrwt>
<pdfrwt beam="2">  1       -2 0.96942081E-02 0.80806651E+02</pdfrwt>
<totfact> 0.11435724E+05</totfact>
</mgrwt>
</event>
<event>
 8    1  0.1319619E-020  0.8164846E+02  0.7818608E-02  0.1324437E+00
         -2   -1    0    0    0  501 -0.00000000000E+00  0.00000000000E+00  0.25956653076E+02  0.25956653201E+02  0.25500000000E-02 0.  1.
          1   -1    0    0  501    0  0.00000000000E+00 -0.00000000000E+00 -0.64207734953E+02  0.64207735151E+02  0.50400000000E-02 0. -1.
        -24    2    1    2    0    0  0.00000000000E+00 -0.35527136788E-14 -0.38251081877E+02  0.90164388352E+02  0.81648463930E+02 0.  0.
         66    2    3    3    0    0  0.27386950089E+02  0.14861798123E+02  0.99481620913E+01  0.32770169464E+02  0.19999997712E+01 0.  0.
         13    1    3    3    0    0 -0.27386950089E+02 -0.14861798123E+02 -0.48199243968E+02  0.57394218888E+02  0.10566000000E+00 0. -1.
         13    1    4    4    0    0  0.12484245679E+02  0.65436433496E+01  0.53128878638E+01  0.15063651614E+02  0.10566000000E+00 0. -1.
        -13    1    4    4    0    0  0.57171982228E+01  0.29832381182E+01  0.21358624558E+01  0.67940516376E+01  0.10566000000E+00 0.  1.
         14    1    4    4    0    0  0.91855061874E+01  0.53349166554E+01  0.24994117716E+01  0.10912466213E+02  0.00000000000E+00 0. -1.
<mgrwt>
<rscale>  0 0.81648464E+02</rscale>
<asrwt>0</asrwt>
<pdfrwt beam="1">  1        1 0.98781131E-02 0.81648464E+02</pdfrwt>
<pdfrwt beam="2">  1       -2 0.39933313E-02 0.81648464E+02</pdfrwt>
<totfact> 0.12936090E+05</totfact>
</mgrwt>
</event>
<event>
 8    1  0.1319619E-020  0.7895662E+02  0.7818608E-02  0.1332039E+00
          1   -1    0    0  501    0  0.00000000000E+00  0.00000000000E+00  0.69875213040E+01  0.69875231216E+01  0.50400000000E-02 0. -1.
         -2   -1    0    0    0  501 -0.00000000000E+00 -0.00000000000E+00 -0.22304571358E+03  0.22304571360E+03  0.25500000000E-02 0.  1.
        -24    2    1    2    0    0  0.22204460493E-15  0.00000000000E+00 -0.21605819228E+03  0.23003323672E+03  0.78956618118E+02 0.  0.
         66    2    3    3    0    0  0.17024928754E+01  0.38182378383E+02 -0.79591479666E+02  0.88315322127E+02  0.19999964972E+01 0.  0.
         13    1    3    3    0    0 -0.17024928754E+01 -0.38182378383E+02 -0.13646671261E+03  0.14171791459E+03  0.10566000000E+00 0. -1.
         13    1    4    4    0    0 -0.50681142482E-01  0.88533073290E+01 -0.17197610037E+02  0.19343023917E+02  0.10566000000E+00 0. -1.
        -13    1    4    4    0    0  0.15321932080E+01  0.28369278840E+02 -0.60185694949E+02  0.66554433650E+02  0.10566000000E+00 0.  1.
        -14    1    4    4    0    0  0.22098080987E+00  0.95979221358E+00 -0.22081746807E+01  0.24178645603E+01  0.00000000000E+00 0.  1.
<mgrwt>
<rscale>  0 0.78956618E+02</rscale>
<asrwt>0</asrwt>
<pdfrwt beam="1">  1        1 0.10750036E-02 0.78956618E+02</pdfrwt>
<pdfrwt beam="2">  1       -2 0.34314720E-01 0.78956618E+02</pdfrwt>
<totfact> 0.84047413E+04</totfact>
</mgrwt>
</event>
<event>
 8    1  0.1319619E-020  0.7945462E+02  0.7818608E-02  0.1330606E+00
         -2   -1    0    0    0  501 -0.00000000000E+00  0.00000000000E+00  0.10519315563E+03  0.10519315566E+03  0.25500000000E-02 0.  1.
          1   -1    0    0  501    0  0.00000000000E+00 -0.00000000000E+00 -0.15003438018E+02  0.15003438864E+02  0.50400000000E-02 0. -1.
        -24    2    1    2    0    0  0.00000000000E+00  0.17763568394E-14  0.90189717613E+02  0.12019659453E+03  0.79454617062E+02 0.  0.
         66    2    3    3    0    0  0.86125799579E+01  0.11800861886E+02  0.10096932049E+03  0.10204038685E+03  0.19999985271E+01 0.  0.
         13    1    3    3    0    0 -0.86125799579E+01 -0.11800861886E+02 -0.10779602878E+02  0.18156207672E+02  0.10566000000E+00 0. -1.
         13    1    4    4    0    0  0.47534505854E+00  0.79493470461E+00  0.81623425522E+01  0.82154046817E+01  0.10566000000E+00 0.  1.
        -13    1    4    4    0    0  0.16041921787E+00  0.33948463206E+00  0.47998033279E+01  0.48156266636E+01  0.10566000000E+00 0.  1.
        -14    1    4    4    0    0  0.79768156815E+01  0.10666442550E+02  0.88007174611E+02  0.89009355509E+02  0.00000000000E+00 0.  1.
<mgrwt>
<rscale>  0 0.79454617E+02</rscale>
<asrwt>0</asrwt>
<pdfrwt beam="1">  1        1 0.23082213E-02 0.79454617E+02</pdfrwt>
<pdfrwt beam="2">  1       -2 0.16183562E-01 0.79454617E+02</pdfrwt>
<totfact> 0.10663232E+05</totfact>
</mgrwt>
</event>
<event>
 8    1  0.1319619E-020  0.8110346E+02  0.7818608E-02  0.1325949E+00
         -2   -1    0    0    0  501 -0.00000000000E+00  0.00000000000E+00  0.32310244081E+02  0.32310244182E+02  0.25500000000E-02 0.  1.
          1   -1    0    0  501    0  0.00000000000E+00 -0.00000000000E+00 -0.50895400687E+02  0.50895400937E+02  0.50400000000E-02 0. -1.
        -24    2    1    2    0    0  0.17763568394E-14  0.00000000000E+00 -0.18585156606E+02  0.83205645119E+02  0.81103460676E+02 0.  0.
         66    2    3    3    0    0 -0.15666764523E+02 -0.18070537030E+02  0.24267493325E+02  0.34130676048E+02  0.19999989984E+01 0.  0.
         13    1    3    3    0    0  0.15666764523E+02  0.18070537030E+02 -0.42852649931E+02  0.49074969071E+02  0.10566000000E+00 0. -1.
         13    1    4    4    0    0 -0.84338624186E+00 -0.88746231183E+00  0.10525424531E+01  0.16179923854E+01  0.10566000000E+00 0. -1.
        -13    1    4    4    0    0 -0.14770221252E+02 -0.17084869859E+02  0.23231155924E+02  0.32399845425E+02  0.10566000000E+00 0.  1.
         14    1    4    4    0    0 -0.53157029147E-01 -0.98204858913E-01 -0.16205052178E-01  0.11283823722E+00  0.00000000000E+00 0. -1.
<mgrwt>
<rscale>  0 0.81103461E+02</rscale>
<asrwt>0</asrwt>
<pdfrwt beam="1">  1        1 0.78300617E-02 0.81103461E+02</pdfrwt>
<pdfrwt beam="2">  1       -2 0.49708068E-02 0.81103461E+02</pdfrwt>
<totfact> 0.12700448E+05</totfact>
</mgrwt>
</event>
<event>
 8    1  0.1319619E-020  0.7958826E+02  0.7818608E-02  0.1330224E+00
          1   -1    0    0  501    0  0.00000000000E+00  0.00000000000E+00  0.22100746043E+03  0.22100746049E+03  0.50400000000E-02 0. -1.
         -2   -1    0    0    0  501 -0.00000000000E+00 -0.00000000000E+00 -0.71652448556E+01  0.71652453094E+01  0.25500000000E-02 0.  1.
        -24    2    1    2    0    0  0.17763568394E-14 -0.71054273576E-14  0.21384221557E+03  0.22817270580E+03  0.79588256099E+02 0.  0.
         66    2    3    3    0    0 -0.14629495234E+02  0.32403499337E+02  0.55899513485E+02  0.66277933777E+02  0.19999994362E+01 0.  0.
         13    1    3    3    0    0  0.14629495234E+02 -0.32403499337E+02  0.15794270209E+03  0.16189477202E+03  0.10566000000E+00 0. -1.
         13    1    4    4    0    0 -0.54260891074E+01  0.10311317698E+02  0.17538919449E+02  0.21056841528E+02  0.10566000000E+00 0. -1.
        -13    1    4    4    0    0 -0.20442492985E+01  0.53798207209E+01  0.87101402463E+01  0.10440265003E+02  0.10566000000E+00 0.  1.
         14    1    4    4    0    0 -0.71591568280E+01  0.16712360918E+02  0.29650453790E+02  0.34780827246E+02  0.00000000000E+00 0. -1.
<mgrwt>
<rscale>  0 0.79588256E+02</rscale>
<asrwt>0</asrwt>
<pdfrwt beam="1">  1        1 0.34001150E-01 0.79588256E+02</pdfrwt>
<pdfrwt beam="2">  1       -2 0.11023453E-02 0.79588256E+02</pdfrwt>
<totfact> 0.17235406E+05</totfact>
</mgrwt>
</event>
<event>
 8    1  0.1319619E-020  0.7675264E+02  0.7818608E-02  0.1338528E+00
         -2   -1    0    0    0  501 -0.00000000000E+00  0.00000000000E+00  0.12768620202E+03  0.12768620204E+03  0.25500000000E-02 0.  1.
          1   -1    0    0  501    0  0.00000000000E+00 -0.00000000000E+00 -0.11534071099E+02  0.11534072200E+02  0.50400000000E-02 0. -1.
        -24    2    1    2    0    0  0.00000000000E+00  0.00000000000E+00  0.11615213092E+03  0.13922027424E+03  0.76752636721E+02 0.  0.
         66    2    3    3    0    0  0.38010115615E+02  0.48791178187E+01  0.60782612066E+02  0.71882547361E+02  0.20000014555E+01 0.  0.
         13    1    3    3    0    0 -0.38010115615E+02 -0.48791178187E+01  0.55369518854E+02  0.67337726884E+02  0.10566000000E+00 0. -1.
         13    1    4    4    0    0  0.14952268413E+01  0.27136074549E+00  0.27506120752E+01  0.31442599741E+01  0.10566000000E+00 0.  1.
        -13    1    4    4    0    0  0.24846766485E+02  0.31011319540E+01  0.40877451385E+02  0.47937000531E+02  0.10566000000E+00 0.  1.
        -14    1    4    4    0    0  0.11668122289E+02  0.15066251192E+01  0.17154548605E+02  0.20801286856E+02  0.00000000000E+00 0.  1.
<mgrwt>
<rscale>  0 0.76752637E+02</rscale>
<asrwt>0</asrwt>
<pdfrwt beam="1">  1        1 0.17744727E-02 0.76752637E+02</pdfrwt>
<pdfrwt beam="2">  1       -2 0.19644030E-01 0.76752637E+02</pdfrwt>
<totfact> 0.11050674E+05</totfact>
</mgrwt>
</event>
<event>
 8    1  0.1319619E-020  0.8076434E+02  0.7818608E-02  0.1326896E+00
          1   -1    0    0  501    0  0.00000000000E+00  0.00000000000E+00  0.31560063006E+03  0.31560063010E+03  0.50400000000E-02 0. -1.
         -2   -1    0    0    0  501 -0.00000000000E+00 -0.00000000000E+00 -0.51670351323E+01  0.51670357615E+01  0.25500000000E-02 0.  1.
        -24    2    1    2    0    0  0.17763568394E-14  0.00000000000E+00  0.31043359493E+03  0.32076766586E+03  0.80764339920E+02 0.  0.
         66    2    3    3    0    0 -0.10143496386E+02  0.39020850853E+02  0.14820994954E+03  0.15360894008E+03  0.20000019325E+01 0.  0.
         13    1    3    3    0    0  0.10143496386E+02 -0.39020850853E+02  0.16222364539E+03  0.16715872579E+03  0.10566000000E+00 0. -1.
         13    1    4    4    0    0 -0.24349484843E+01  0.11718893522E+02  0.41564949481E+02  0.43254105341E+02  0.10566000000E+00 0. -1.
        -13    1    4    4    0    0 -0.29416619372E+01  0.96757710265E+01  0.37870258843E+02  0.39197469163E+02  0.10566000000E+00 0.  1.
         14    1    4    4    0    0 -0.47668859650E+01  0.17626186304E+02  0.68774741221E+02  0.71157365574E+02  0.00000000000E+00 0. -1.
<mgrwt>
<rscale>  0 0.80764340E+02</rscale>
<asrwt>0</asrwt>
<pdfrwt beam="1">  1        1 0.48553954E-01 0.80764340E+02</pdfrwt>
<pdfrwt beam="2">  1       -2 0.79492835E-03 0.80764340E+02</pdfrwt>
<totfact> 0.17764292E+05</totfact>
</mgrwt>
</event>
<event>
 8    1  0.1319619E-020  0.8017477E+02  0.7818608E-02  0.1328556E+00
          1   -1    0    0  501    0  0.00000000000E+00  0.00000000000E+00  0.27534938664E+02  0.27534939125E+02  0.50400000000E-02 0. -1.
         -2   -1    0    0    0  501 -0.00000000000E+00 -0.00000000000E+00 -0.58362153022E+02  0.58362153078E+02  0.25500000000E-02 0.  1.
        -24    2    1    2    0    0  0.22204460493E-15  0.00000000000E+00 -0.30827214359E+02  0.85897092203E+02  0.80174767252E+02 0.  0.
         66    2    3    3    0    0 -0.11291269068E+01 -0.39926144367E+02 -0.18746403237E+02  0.44167856732E+02  0.20000006021E+01 0.  0.
         13    1    3    3    0    0  0.11291269068E+01  0.39926144367E+02 -0.12080811122E+02  0.41729235471E+02  0.10566000000E+00 0. -1.
         13    1    4    4    0    0 -0.16600874923E+00 -0.14681828537E+02 -0.63201851519E+01  0.15985604539E+02  0.10566000000E+00 0. -1.
        -13    1    4    4    0    0 -0.83807043713E+00 -0.14430957895E+02 -0.77276267594E+01  0.16391530960E+02  0.10566000000E+00 0.  1.
        -14    1    4    4    0    0 -0.12504772049E+00 -0.10813357935E+02 -0.46985913256E+01  0.11790721233E+02  0.00000000000E+00 0.  1.
<mgrwt>
<rscale>  0 0.80174767E+02</rscale>
<asrwt>0</asrwt>
<pdfrwt beam="1">  1        1 0.42361445E-02 0.80174767E+02</pdfrwt>
<pdfrwt beam="2">  1       -2 0.89787928E-02 0.80174767E+02</pdfrwt>
<totfact> 0.11834399E+05</totfact>
</mgrwt>
</event>
<event>
 8    1  0.1319619E-020  0.7818741E+02  0.7818608E-02  0.1334275E+00
          1   -1    0    0  501    0  0.00000000000E+00  0.00000000000E+00  0.65330157815E+02  0.65330158009E+02  0.50400000000E-02 0. -1.
         -2   -1    0    0    0  501 -0.00000000000E+00 -0.00000000000E+00 -0.23393753271E+02  0.23393753410E+02  0.25500000000E-02 0.  1.
        -24    2    1    2    0    0  0.35527136788E-14  0.00000000000E+00  0.41936404544E+02  0.88723911419E+02  0.78187405836E+02 0.  0.
         66    2    3    3    0    0  0.16927486069E+02  0.32533892753E+02  0.57018195200E+01  0.37168598616E+02  0.20000037573E+01 0.  0.
         13    1    3    3    0    0 -0.16927486069E+02 -0.32533892753E+02  0.36234585024E+02  0.51555312803E+02  0.10566000000E+00 0. -1.
         13    1    4    4    0    0  0.84255771278E+00  0.14558201203E+01  0.16040904159E+00  0.16929887236E+01  0.10566000000E+00 0. -1.
        -13    1    4    4    0    0  0.10126257646E+02  0.17752784557E+02  0.29307765201E+01  0.20647107993E+02  0.10566000000E+00 0.  1.
         14    1    4    4    0    0  0.59586707093E+01  0.13325288076E+02  0.26106339582E+01  0.14828501900E+02  0.00000000000E+00 0. -1.
<mgrwt>
<rscale>  0 0.78187406E+02</rscale>
<asrwt>0</asrwt>
<pdfrwt beam="1">  1        1 0.10050794E-01 0.78187406E+02</pdfrwt>
<pdfrwt beam="2">  1       -2 0.35990390E-02 0.78187406E+02</pdfrwt>
<totfact> 0.14610012E+05</totfact>
</mgrwt>
</event>
<event>
 8    1  0.1319619E-020  0.7907674E+02  0.7818608E-02  0.1331692E+00
         -2   -1    0    0    0  501 -0.00000000000E+00  0.00000000000E+00  0.35295678208E+02  0.35295678300E+02  0.25500000000E-02 0.  1.
          1   -1    0    0  501    0  0.00000000000E+00 -0.00000000000E+00 -0.44291054143E+02  0.44291054430E+02  0.50400000000E-02 0. -1.
        -24    2    1    2    0    0  0.00000000000E+00  0.00000000000E+00 -0.89953759350E+01  0.79586732730E+02  0.79076742716E+02 0.  0.
         66    2    3    3    0    0  0.20087549928E+02 -0.59741004984E+01  0.29212915766E+02  0.36008248847E+02  0.19999996430E+01 0.  0.
         13    1    3    3    0    0 -0.20087549928E+02  0.59741004984E+01 -0.38208291701E+02  0.43578483884E+02  0.10566000000E+00 0. -1.
         13    1    4    4    0    0  0.15811498076E+01 -0.26739149002E+00  0.28029109589E+01  0.32309451871E+01  0.10566000000E+00 0. -1.
        -13    1    4    4    0    0  0.64008493691E+01 -0.13468886501E+01  0.92326159824E+01  0.11315358748E+02  0.10566000000E+00 0.  1.
         14    1    4    4    0    0  0.12105550751E+02 -0.43598203583E+01  0.17177388825E+02  0.21461944911E+02  0.00000000000E+00 0. -1.
<mgrwt>
<rscale>  0 0.79076743E+02</rscale>
<asrwt>0</asrwt>
<pdfrwt beam="1">  1        1 0.68140084E-02 0.79076743E+02</pdfrwt>
<pdfrwt beam="2">  1       -2 0.54301044E-02 0.79076743E+02</pdfrwt>
<totfact> 0.13333179E+05</totfact>
</mgrwt>
</event>
<event>
 8    1  0.1319619E-020  0.8301297E+02  0.7818608E-02  0.1320712E+00
         -2   -1    0    0    0  501 -0.00000000000E+00  0.00000000000E+00  0.94917123284E+01  0.94917126710E+01  0.25500000000E-02 0.  1.
          1   -1    0    0  501    0  0.00000000000E+00 -0.00000000000E+00 -0.18150447259E+03  0.18150447266E+03  0.50400000000E-02 0. -1.
        -24    2    1    2    0    0  0.00000000000E+00  0.17763568394E-14 -0.17201276027E+03  0.19099618534E+03  0.83012969579E+02 0.  0.
         66    2    3    3    0    0  0.40015855037E+02  0.10480797638E+02 -0.93209934737E+02  0.10199611652E+03  0.20000195957E+01 0.  0.
         13    1    3    3    0    0 -0.40015855037E+02 -0.10480797638E+02 -0.78802825530E+02  0.89000068814E+02  0.10566000000E+00 0. -1.
         13    1    4    4    0    0  0.21759882379E+02  0.64611589916E+01 -0.52433535516E+02  0.57136029503E+02  0.10566000000E+00 0. -1.
        -13    1    4    4    0    0  0.10689040485E+02  0.25893998859E+01 -0.23757530008E+02  0.26179991871E+02  0.10566000000E+00 0.  1.
         14    1    4    4    0    0  0.75669321721E+01  0.14302387608E+01 -0.17018869213E+02  0.18680095147E+02  0.00000000000E+00 0. -1.
<mgrwt>
<rscale>  0 0.83012970E+02</rscale>
<asrwt>0</asrwt>
<pdfrwt beam="1">  1        1 0.27923762E-01 0.83012970E+02</pdfrwt>
<pdfrwt beam="2">  1       -2 0.14602636E-02 0.83012970E+02</pdfrwt>
<totfact> 0.14828459E+05</totfact>
</mgrwt>
</event>
<event>
 8    1  0.1319619E-020  0.7956228E+02  0.7818608E-02  0.1330298E+00
         -2   -1    0    0    0  501 -0.00000000000E+00  0.00000000000E+00  0.54584892167E+01  0.54584898123E+01  0.25500000000E-02 0.  1.
          1   -1    0    0  501    0  0.00000000000E+00 -0.00000000000E+00 -0.28992256273E+03  0.28992256277E+03  0.50400000000E-02 0. -1.
        -24    2    1    2    0    0  0.00000000000E+00 -0.17763568394E-14 -0.28446407351E+03  0.29538105258E+03  0.79562284450E+02 0.  0.
         66    2    3    3    0    0  0.35152692610E+02 -0.97732370891E+01 -0.83702167351E+02  0.91330612521E+02  0.20000007910E+01 0.  0.
         13    1    3    3    0    0 -0.35152692610E+02  0.97732370891E+01 -0.20076190616E+03  0.20405044006E+03  0.10566000000E+00 0. -1.
         13    1    4    4    0    0  0.26327985112E+01 -0.55063719116E+00 -0.71439310274E+01  0.76342480885E+01  0.10566000000E+00 0. -1.
        -13    1    4    4    0    0  0.31206927944E+02 -0.86105611236E+01 -0.73300219573E+02  0.80130814723E+02  0.10566000000E+00 0.  1.
        -14    1    4    4    0    0  0.13129661556E+01 -0.61203877438E+00 -0.32580167505E+01  0.35655497098E+01  0.00000000000E+00 0.  1.
<mgrwt>
<rscale>  0 0.79562284E+02</rscale>
<asrwt>0</asrwt>
<pdfrwt beam="1">  1        1 0.44603459E-01 0.79562284E+02</pdfrwt>
<pdfrwt beam="2">  1       -2 0.83976785E-03 0.79562284E+02</pdfrwt>
<totfact> 0.18185289E+05</totfact>
</mgrwt>
</event>
<event>
 8    1  0.1319619E-020  0.7627186E+02  0.7818608E-02  0.1339977E+00
         -2   -1    0    0    0  501 -0.00000000000E+00  0.00000000000E+00  0.59874415233E+03  0.59874415234E+03  0.25500000000E-02 0.  1.
          1   -1    0    0  501    0  0.00000000000E+00 -0.00000000000E+00 -0.24289967976E+01  0.24290020264E+01  0.50400000000E-02 0. -1.
        -24    2    1    2    0    0  0.00000000000E+00  0.17763568394E-14  0.59631515554E+03  0.60117315436E+03  0.76271861179E+02 0.  0.
         66    2    3    3    0    0  0.35187450659E+02 -0.98430604483E+01  0.38372853065E+03  0.38546936032E+03  0.19999961959E+01 0.  0.
         13    1    3    3    0    0 -0.35187450659E+02  0.98430604483E+01  0.21258662488E+03  0.21570379405E+03  0.10566000000E+00 0. -1.
         13    1    4    4    0    0  0.14129438463E+02 -0.41883758629E+01  0.16240776830E+03  0.16307506827E+03  0.10566000000E+00 0.  1.
        -13    1    4    4    0    0  0.17090018128E+02 -0.43103976290E+01  0.17607560053E+03  0.17695557779E+03  0.10566000000E+00 0. -1.
         14    1    4    4    0    0  0.39679940679E+01 -0.13442869565E+01  0.45245161822E+02  0.45438714249E+02  0.00000000000E+00 0. -1.
<mgrwt>
<rscale>  0 0.76271861E+02</rscale>
<asrwt>0</asrwt>
<pdfrwt beam="1">  1        1 0.37369242E-03 0.76271861E+02</pdfrwt>
<pdfrwt beam="2">  1       -2 0.92114435E-01 0.76271861E+02</pdfrwt>
<totfact> 0.49243497E+04</totfact>
</mgrwt>
</event>
<event>
 8    1  0.1319619E-020  0.7970010E+02  0.7818608E-02  0.1329905E+00
         -2   -1    0    0    0  501 -0.00000000000E+00  0.00000000000E+00  0.39750483193E+01  0.39750491372E+01  0.25500000000E-02 0.  1.
          1   -1    0    0  501    0  0.00000000000E+00 -0.00000000000E+00 -0.39949857641E+03  0.39949857644E+03  0.50400000000E-02 0. -1.
        -24    2    1    2    0    0  0.00000000000E+00  0.00000000000E+00 -0.39552352809E+03  0.40347362558E+03  0.79700095762E+02 0.  0.
         66    2    3    3    0    0  0.28259328224E+02  0.28060601368E+02 -0.19694729363E+03  0.20094333392E+03  0.19999999786E+01 0.  0.
         13    1    3    3    0    0 -0.28259328224E+02 -0.28060601368E+02 -0.19857623446E+03  0.20253029166E+03  0.10566000000E+00 0. -1.
         13    1    4    4    0    0  0.11062888797E+02  0.10978869297E+02 -0.77242103484E+02  0.78798964423E+02  0.10566000000E+00 0.  1.
        -13    1    4    4    0    0  0.50952924981E+01  0.47612484232E+01 -0.31188880033E+02  0.31959175427E+02  0.10566000000E+00 0. -1.
         14    1    4    4    0    0  0.12101146929E+02  0.12320483648E+02 -0.88516310110E+02  0.90185194072E+02  0.00000000000E+00 0. -1.
<mgrwt>
<rscale>  0 0.79700096E+02</rscale>
<asrwt>0</asrwt>
<pdfrwt beam="1">  1        1 0.61461288E-01 0.79700096E+02</pdfrwt>
<pdfrwt beam="2">  1       -2 0.61154628E-03 0.79700096E+02</pdfrwt>
<totfact> 0.19177803E+05</totfact>
</mgrwt>
</event>
<event>
 8    1  0.1319619E-020  0.7950394E+02  0.7818608E-02  0.1330465E+00
          1   -1    0    0  501    0  0.00000000000E+00  0.00000000000E+00  0.33028859819E+02  0.33028860204E+02  0.50400000000E-02 0. -1.
         -2   -1    0    0    0  501 -0.00000000000E+00 -0.00000000000E+00 -0.47843583090E+02  0.47843583158E+02  0.25500000000E-02 0.  1.
        -24    2    1    2    0    0  0.35527136788E-14  0.00000000000E+00 -0.14814723271E+02  0.80872443362E+02  0.79503937448E+02 0.  0.
         66    2    3    3    0    0 -0.27835281132E+02 -0.23678388005E+02 -0.23260500576E+02  0.43364960742E+02  0.19999997384E+01 0.  0.
         13    1    3    3    0    0  0.27835281132E+02  0.23678388005E+02  0.84457773047E+01  0.37507482620E+02  0.10566000000E+00 0. -1.
         13    1    4    4    0    0 -0.21660542235E+01 -0.14038381374E+01 -0.15432389496E+01  0.30092030351E+01  0.10566000000E+00 0. -1.
        -13    1    4    4    0    0 -0.72372133356E+01 -0.66923881243E+01 -0.69341956337E+01  0.12052366937E+02  0.10566000000E+00 0.  1.
         14    1    4    4    0    0 -0.18432013572E+02 -0.15582161743E+02 -0.14783065992E+02  0.28303390770E+02  0.00000000000E+00 0. -1.
<mgrwt>
<rscale>  0 0.79503937E+02</rscale>
<asrwt>0</asrwt>
<pdfrwt beam="1">  1        1 0.50813631E-02 0.79503937E+02</pdfrwt>
<pdfrwt beam="2">  1       -2 0.73605513E-02 0.79503937E+02</pdfrwt>
<totfact> 0.12519102E+05</totfact>
</mgrwt>
</event>
<event>
 8    1  0.1319619E-020  0.8025000E+02  0.7818608E-02  0.1328343E+00
          1   -1    0    0  501    0  0.00000000000E+00  0.00000000000E+00  0.26299893024E+03  0.26299893028E+03  0.50400000000E-02 0. -1.
         -2   -1    0    0    0  501 -0.00000000000E+00 -0.00000000000E+00 -0.61217571664E+01  0.61217576975E+01  0.25500000000E-02 0.  1.
        -24    2    1    2    0    0  0.71054273576E-14 -0.35527136788E-14  0.25687717307E+03  0.26912068798E+03  0.80250000969E+02 0.  0.
         66    2    3    3    0    0  0.29165008881E+02 -0.19049203728E+02  0.19512945177E+03  0.19822455159E+03  0.19999997820E+01 0.  0.
         13    1    3    3    0    0 -0.29165008881E+02  0.19049203728E+02  0.61747721305E+02  0.70896136397E+02  0.10566000000E+00 0. -1.
         13    1    4    4    0    0  0.66968640845E+01 -0.48474986168E+01  0.43593111041E+02  0.44370223413E+02  0.10566000000E+00 0. -1.
        -13    1    4    4    0    0  0.14601269091E+02 -0.98625774419E+01  0.10116720634E+03  0.10269022493E+03  0.10566000000E+00 0.  1.
         14    1    4    4    0    0  0.78668757051E+01 -0.43391276691E+01  0.50369134381E+02  0.51164103243E+02  0.00000000000E+00 0. -1.
<mgrwt>
<rscale>  0 0.80250001E+02</rscale>
<asrwt>0</asrwt>
<pdfrwt beam="1">  1        1 0.40461362E-01 0.80250001E+02</pdfrwt>
<pdfrwt beam="2">  1       -2 0.94180912E-03 0.80250001E+02</pdfrwt>
<totfact> 0.17443987E+05</totfact>
</mgrwt>
</event>
<event>
 8    1  0.1319619E-020  0.7931689E+02  0.7818608E-02  0.1331001E+00
         -2   -1    0    0    0  501 -0.00000000000E+00  0.00000000000E+00  0.38771752685E+01  0.38771761071E+01  0.25500000000E-02 0.  1.
          1   -1    0    0  501    0  0.00000000000E+00 -0.00000000000E+00 -0.40565409931E+03  0.40565409934E+03  0.50400000000E-02 0. -1.
        -24    2    1    2    0    0  0.00000000000E+00  0.35527136788E-14 -0.40177692404E+03  0.40953127544E+03  0.79316888984E+02 0.  0.
         66    2    3    3    0    0  0.33642510733E+02  0.16783413362E+02 -0.26576976306E+03  0.26842330086E+03  0.19999976002E+01 0.  0.
         13    1    3    3    0    0 -0.33642510733E+02 -0.16783413362E+02 -0.13600716097E+03  0.14110797459E+03  0.10566000000E+00 0. -1.
         13    1    4    4    0    0  0.18197689943E+01  0.10168388171E+01 -0.14928553271E+02  0.15073764864E+02  0.10566000000E+00 0.  1.
        -13    1    4    4    0    0  0.50988328786E+00  0.41567071205E-01 -0.38186568262E+01  0.38542201261E+01  0.10566000000E+00 0.  1.
        -14    1    4    4    0    0  0.31312858451E+02  0.15725007474E+02 -0.24702255297E+03  0.24949531587E+03  0.00000000000E+00 0.  1.
<mgrwt>
<rscale>  0 0.79316889E+02</rscale>
<asrwt>0</asrwt>
<pdfrwt beam="1">  1        1 0.62408290E-01 0.79316889E+02</pdfrwt>
<pdfrwt beam="2">  1       -2 0.59648889E-03 0.79316889E+02</pdfrwt>
<totfact> 0.19470195E+05</totfact>
</mgrwt>
</event>
<event>
 8    1  0.1319619E-020  0.7797867E+02  0.7818608E-02  0.1334888E+00
         -2   -1    0    0    0  501 -0.00000000000E+00  0.00000000000E+00  0.84960147244E+02  0.84960147283E+02  0.25500000000E-02 0.  1.
          1   -1    0    0  501    0  0.00000000000E+00 -0.00000000000E+00 -0.17892720056E+02  0.17892720766E+02  0.50400000000E-02 0. -1.
        -24    2    1    2    0    0 -0.35527136788E-14  0.35527136788E-14  0.67067427188E+02  0.10285286805E+03  0.77978668085E+02 0.  0.
         66    2    3    3    0    0  0.25073879033E+02 -0.29811707044E+02  0.34679525244E+02  0.52192976191E+02  0.20000014905E+01 0.  0.
         13    1    3    3    0    0 -0.25073879033E+02  0.29811707044E+02  0.32387901944E+02  0.50659891858E+02  0.10566000000E+00 0. -1.
         13    1    4    4    0    0  0.20350454310E+02 -0.24062490136E+02  0.28504439784E+02  0.42493042650E+02  0.10566000000E+00 0. -1.
        -13    1    4    4    0    0  0.37074543050E+01 -0.44429350612E+01  0.51916299843E+01  0.77749003409E+01  0.10566000000E+00 0.  1.
         14    1    4    4    0    0  0.10159704176E+01 -0.13062818466E+01  0.98345547493E+00  0.19250332006E+01  0.00000000000E+00 0. -1.
<mgrwt>
<rscale>  0 0.77978668E+02</rscale>
<asrwt>0</asrwt>
<pdfrwt beam="1">  1        1 0.27527263E-02 0.77978668E+02</pdfrwt>
<pdfrwt beam="2">  1       -2 0.13070792E-01 0.77978668E+02</pdfrwt>
<totfact> 0.11772938E+05</totfact>
</mgrwt>
</event>
<event>
 8    1  0.1319619E-020  0.8048376E+02  0.7818608E-02  0.1327684E+00
         -2   -1    0    0    0  501 -0.00000000000E+00  0.00000000000E+00  0.87865179016E+01  0.87865182716E+01  0.25500000000E-02 0.  1.
          1   -1    0    0  501    0  0.00000000000E+00 -0.00000000000E+00 -0.18430611785E+03  0.18430611791E+03  0.50400000000E-02 0. -1.
        -24    2    1    2    0    0  0.00000000000E+00  0.00000000000E+00 -0.17551959994E+03  0.19309263619E+03  0.80483763485E+02 0.  0.
         66    2    3    3    0    0  0.29624334731E+02 -0.23940211886E+02 -0.56840719546E+02  0.68451460125E+02  0.20000103363E+01 0.  0.
         13    1    3    3    0    0 -0.29624334731E+02  0.23940211886E+02 -0.11867888040E+03  0.12464117606E+03  0.10566000000E+00 0. -1.
         13    1    4    4    0    0  0.33576011960E+00 -0.16435348933E+00 -0.49791669150E+00  0.63153146766E+00  0.10566000000E+00 0.  1.
        -13    1    4    4    0    0  0.16110883343E+02 -0.12457256134E+02 -0.31283501672E+02  0.37328440007E+02  0.10566000000E+00 0.  1.
        -14    1    4    4    0    0  0.13177691268E+02 -0.11318602262E+02 -0.25059301183E+02  0.30491488650E+02  0.00000000000E+00 0.  1.
<mgrwt>
<rscale>  0 0.80483763E+02</rscale>
<asrwt>0</asrwt>
<pdfrwt beam="1">  1        1 0.28354785E-01 0.80483763E+02</pdfrwt>
<pdfrwt beam="2">  1       -2 0.13517721E-02 0.80483763E+02</pdfrwt>
<totfact> 0.16151568E+05</totfact>
</mgrwt>
</event>
<event>
 8    1  0.1319619E-020  0.8071517E+02  0.7818608E-02  0.1327034E+00
         -2   -1    0    0    0  501 -0.00000000000E+00  0.00000000000E+00  0.52650866742E+03  0.52650866743E+03  0.25500000000E-02 0.  1.
          1   -1    0    0  501    0  0.00000000000E+00 -0.00000000000E+00 -0.30934601502E+01  0.30934642559E+01  0.50400000000E-02 0. -1.
        -24    2    1    2    0    0  0.35527136788E-14 -0.35527136788E-14  0.52341520727E+03  0.52960213168E+03  0.80715170079E+02 0.  0.
         66    2    3    3    0    0  0.26377074357E+02 -0.17321492513E+02  0.42668046990E+03  0.42785044996E+03  0.19999963417E+01 0.  0.
         13    1    3    3    0    0 -0.26377074357E+02  0.17321492513E+02  0.96734737373E+02  0.10175168172E+03  0.10566000000E+00 0. -1.
         13    1    4    4    0    0  0.20486741447E+02 -0.13375204782E+02  0.32750369590E+03  0.32841632826E+03  0.10566000000E+00 0. -1.
        -13    1    4    4    0    0  0.56841502396E+01 -0.38819840741E+01  0.97621256227E+02  0.97863681699E+02  0.10566000000E+00 0.  1.
         14    1    4    4    0    0  0.20618267050E+00 -0.64303657508E-01  0.15555177736E+01  0.15704400014E+01  0.00000000000E+00 0. -1.
<mgrwt>
<rscale>  0 0.80715170E+02</rscale>
<asrwt>0</asrwt>
<pdfrwt beam="1">  1        1 0.47591712E-03 0.80715170E+02</pdfrwt>
<pdfrwt beam="2">  1       -2 0.81001357E-01 0.80715170E+02</pdfrwt>
<totfact> 0.47298619E+04</totfact>
</mgrwt>
</event>
<event>
 8    1  0.1319619E-020  0.8095506E+02  0.7818608E-02  0.1326363E+00
          1   -1    0    0  501    0  0.00000000000E+00  0.00000000000E+00  0.16216562762E+02  0.16216563545E+02  0.50400000000E-02 0. -1.
         -2   -1    0    0    0  501 -0.00000000000E+00 -0.00000000000E+00 -0.10103439340E+03  0.10103439343E+03  0.25500000000E-02 0.  1.
        -24    2    1    2    0    0  0.88817841970E-15  0.71054273576E-14 -0.84817830634E+02  0.11725095697E+03  0.80955064807E+02 0.  0.
         66    2    3    3    0    0 -0.65655128765E+01  0.39770590474E+02 -0.47371830024E+02  0.62232596841E+02  0.20000009479E+01 0.  0.
         13    1    3    3    0    0  0.65655128765E+01 -0.39770590474E+02 -0.37446000610E+02  0.55018360133E+02  0.10566000000E+00 0. -1.
         13    1    4    4    0    0 -0.24594970258E+01  0.12080932485E+02 -0.14535766209E+02  0.19060370370E+02  0.10566000000E+00 0. -1.
        -13    1    4    4    0    0 -0.27529861440E+01  0.15382869616E+02 -0.19140120283E+02  0.24709653556E+02  0.10566000000E+00 0.  1.
         14    1    4    4    0    0 -0.13530297067E+01  0.12306788372E+02 -0.13695943532E+02  0.18462572915E+02  0.00000000000E+00 0. -1.
<mgrwt>
<rscale>  0 0.80955065E+02</rscale>
<asrwt>0</asrwt>
<pdfrwt beam="1">  1        1 0.24948559E-02 0.80955065E+02</pdfrwt>
<pdfrwt beam="2">  1       -2 0.15543753E-01 0.80955065E+02</pdfrwt>
<totfact> 0.10268773E+05</totfact>
</mgrwt>
</event>
<event>
 8    1  0.1319619E-020  0.8442626E+02  0.7818608E-02  0.1316940E+00
          1   -1    0    0  501    0  0.00000000000E+00  0.00000000000E+00  0.64141013275E+02  0.64141013473E+02  0.50400000000E-02 0. -1.
         -2   -1    0    0    0  501 -0.00000000000E+00 -0.00000000000E+00 -0.27781728766E+02  0.27781728883E+02  0.25500000000E-02 0.  1.
        -24    2    1    2    0    0  0.00000000000E+00  0.00000000000E+00  0.36359284509E+02  0.91922742356E+02  0.84426257718E+02 0.  0.
         66    2    3    3    0    0 -0.21030530183E+02 -0.36571713884E+02  0.18638431863E+02  0.46164538297E+02  0.19999993981E+01 0.  0.
         13    1    3    3    0    0  0.21030530183E+02  0.36571713884E+02  0.17720852646E+02  0.45758204060E+02  0.10566000000E+00 0. -1.
         13    1    4    4    0    0 -0.10699921695E+02 -0.18805758784E+02  0.91292480198E+01  0.23484020549E+02  0.10566000000E+00 0. -1.
        -13    1    4    4    0    0 -0.92424178287E+01 -0.15461581719E+02  0.79255300587E+01  0.19680141954E+02  0.10566000000E+00 0.  1.
         14    1    4    4    0    0 -0.10881906597E+01 -0.23043733817E+01  0.15836537849E+01  0.30003757939E+01  0.00000000000E+00 0. -1.
<mgrwt>
<rscale>  0 0.84426258E+02</rscale>
<asrwt>0</asrwt>
<pdfrwt beam="1">  1        1 0.98678482E-02 0.84426258E+02</pdfrwt>
<pdfrwt beam="2">  1       -2 0.42741121E-02 0.84426258E+02</pdfrwt>
<totfact> 0.11791449E+05</totfact>
</mgrwt>
</event>
<event>
 8    1  0.1319619E-020  0.8001037E+02  0.7818608E-02  0.1329022E+00
          1   -1    0    0  501    0  0.00000000000E+00  0.00000000000E+00  0.26388504338E+03  0.26388504343E+03  0.50400000000E-02 0. -1.
         -2   -1    0    0    0  501 -0.00000000000E+00 -0.00000000000E+00 -0.60648175236E+01  0.60648180596E+01  0.25500000000E-02 0.  1.
        -24    2    1    2    0    0  0.00000000000E+00  0.00000000000E+00  0.25782022586E+03  0.26994986149E+03  0.80010367182E+02 0.  0.
         66    2    3    3    0    0  0.23391273470E+02 -0.32001079531E+02  0.11139770084E+03  0.11825679058E+03  0.19999999310E+01 0.  0.
         13    1    3    3    0    0 -0.23391273470E+02  0.32001079531E+02  0.14642252502E+03  0.15169307091E+03  0.10566000000E+00 0. -1.
         13    1    4    4    0    0  0.13166761276E+02 -0.18198464360E+02  0.63666468107E+02  0.67512799030E+02  0.10566000000E+00 0. -1.
        -13    1    4    4    0    0  0.57385588598E+01 -0.67054480055E+01  0.24850521766E+02  0.26371455911E+02  0.10566000000E+00 0.  1.
         14    1    4    4    0    0  0.44859533347E+01 -0.70971671654E+01  0.22880710963E+02  0.24372535635E+02  0.00000000000E+00 0. -1.
<mgrwt>
<rscale>  0 0.80010367E+02</rscale>
<asrwt>0</asrwt>
<pdfrwt beam="1">  1        1 0.40597701E-01 0.80010367E+02</pdfrwt>
<pdfrwt beam="2">  1       -2 0.93304885E-03 0.80010367E+02</pdfrwt>
<totfact> 0.17593931E+05</totfact>
</mgrwt>
</event>
<event>
 8    1  0.1319619E-020  0.7872151E+02  0.7818608E-02  0.1332719E+00
         -2   -1    0    0    0  501 -0.00000000000E+00  0.00000000000E+00  0.16065002725E+03  0.16065002727E+03  0.25500000000E-02 0.  1.
          1   -1    0    0  501    0  0.00000000000E+00 -0.00000000000E+00 -0.96437525628E+01  0.96437538798E+01  0.50400000000E-02 0. -1.
        -24    2    1    2    0    0 -0.71054273576E-14 -0.35527136788E-14  0.15100627469E+03  0.17029378115E+03  0.78721514871E+02 0.  0.
         66    2    3    3    0    0  0.34585396668E+02  0.18569699375E+02  0.70130279814E+02  0.80394275544E+02  0.19999989467E+01 0.  0.
         13    1    3    3    0    0 -0.34585396668E+02 -0.18569699375E+02  0.80875994874E+02  0.89899505607E+02  0.10566000000E+00 0. -1.
         13    1    4    4    0    0  0.10841813482E+01  0.67750629951E+00  0.26211777394E+01  0.29182530320E+01  0.10566000000E+00 0. -1.
        -13    1    4    4    0    0  0.37984286621E+01  0.15086051765E+01  0.76075941438E+01  0.86365851222E+01  0.10566000000E+00 0.  1.
        -14    1    4    4    0    0  0.29702786658E+02  0.16383587899E+02  0.59901507931E+02  0.68839437389E+02  0.00000000000E+00 0.  1.
<mgrwt>
<rscale>  0 0.78721515E+02</rscale>
<asrwt>0</asrwt>
<pdfrwt beam="1">  1        1 0.14836545E-02 0.78721515E+02</pdfrwt>
<pdfrwt beam="2">  1       -2 0.24715386E-01 0.78721515E+02</pdfrwt>
<totfact> 0.96262580E+04</totfact>
</mgrwt>
</event>
<event>
 8    1  0.1319619E-020  0.8101296E+02  0.7818608E-02  0.1326201E+00
          1   -1    0    0  501    0  0.00000000000E+00  0.00000000000E+00  0.86729145083E+02  0.86729145229E+02  0.50400000000E-02 0. -1.
         -2   -1    0    0    0  501 -0.00000000000E+00 -0.00000000000E+00 -0.18918379188E+02  0.18918379359E+02  0.25500000000E-02 0.  1.
        -24    2    1    2    0    0  0.35527136788E-14 -0.17763568394E-14  0.67810765895E+02  0.10564752459E+03  0.81012958719E+02 0.  0.
         66    2    3    3    0    0  0.21713504480E+02 -0.14033537878E+02 -0.66968058316E+01  0.26781778724E+02  0.20000002665E+01 0.  0.
         13    1    3    3    0    0 -0.21713504480E+02  0.14033537878E+02  0.74507571727E+02  0.78865745865E+02  0.10566000000E+00 0. -1.
         13    1    4    4    0    0  0.35175371022E+01 -0.15977084816E+01 -0.66103325358E+00  0.39209525189E+01  0.10566000000E+00 0. -1.
        -13    1    4    4    0    0  0.12356026235E+02 -0.84159910228E+01 -0.44089246354E+01  0.15586855670E+02  0.10566000000E+00 0.  1.
        -14    1    4    4    0    0  0.58399411430E+01 -0.40198383738E+01 -0.16268479426E+01  0.72739705343E+01  0.00000000000E+00 0.  1.
<mgrwt>
<rscale>  0 0.81012959E+02</rscale>
<asrwt>0</asrwt>
<pdfrwt beam="1">  1        1 0.13342946E-01 0.81012959E+02</pdfrwt>
<pdfrwt beam="2">  1       -2 0.29105199E-02 0.81012959E+02</pdfrwt>
<totfact> 0.13873650E+05</totfact>
</mgrwt>
</event>
<event>
 8    1  0.1319619E-020  0.7957581E+02  0.7818608E-02  0.1330260E+00
          1   -1    0    0  501    0  0.00000000000E+00  0.00000000000E+00  0.10093888178E+03  0.10093888190E+03  0.50400000000E-02 0. -1.
         -2   -1    0    0    0  501 -0.00000000000E+00 -0.00000000000E+00 -0.15683525428E+02  0.15683525635E+02  0.25500000000E-02 0.  1.
        -24    2    1    2    0    0 -0.11102230246E-15  0.00000000000E+00  0.85255356349E+02  0.11662240754E+03  0.79575813874E+02 0.  0.
         66    2    3    3    0    0 -0.56623638019E+00  0.33198369594E+02  0.74716960084E+02  0.81786774528E+02  0.19999990492E+01 0.  0.
         13    1    3    3    0    0  0.56623638019E+00 -0.33198369594E+02  0.10538396265E+02  0.34835633010E+02  0.10566000000E+00 0. -1.
         13    1    4    4    0    0  0.31152855157E+00  0.43974719666E+01  0.10929258597E+02  0.11785358173E+02  0.10566000000E+00 0. -1.
        -13    1    4    4    0    0 -0.56377508354E+00  0.76751302070E+01  0.17775218154E+02  0.19369951226E+02  0.10566000000E+00 0.  1.
         14    1    4    4    0    0 -0.31398984821E+00  0.21125767420E+02  0.46012483332E+02  0.50631465129E+02  0.00000000000E+00 0. -1.
<mgrwt>
<rscale>  0 0.79575814E+02</rscale>
<asrwt>0</asrwt>
<pdfrwt beam="1">  1        1 0.15529058E-01 0.79575814E+02</pdfrwt>
<pdfrwt beam="2">  1       -2 0.24128502E-02 0.79575814E+02</pdfrwt>
<totfact> 0.14935187E+05</totfact>
</mgrwt>
</event>
<event>
 8    1  0.1319619E-020  0.7876231E+02  0.7818608E-02  0.1332601E+00
          1   -1    0    0  501    0  0.00000000000E+00  0.00000000000E+00  0.61931307886E+01  0.61931328394E+01  0.50400000000E-02 0. -1.
         -2   -1    0    0    0  501 -0.00000000000E+00 -0.00000000000E+00 -0.25041858539E+03  0.25041858541E+03  0.25500000000E-02 0.  1.
        -24    2    1    2    0    0  0.00000000000E+00  0.00000000000E+00 -0.24422545461E+03  0.25661171825E+03  0.78762308652E+02 0.  0.
         66    2    3    3    0    0  0.12171538823E+01  0.33420308349E+02 -0.18978871696E+03  0.19272300216E+03  0.20000006887E+01 0.  0.
         13    1    3    3    0    0 -0.12171538823E+01 -0.33420308349E+02 -0.54436737651E+02  0.63888716091E+02  0.10566000000E+00 0. -1.
         13    1    4    4    0    0  0.64723820892E+00  0.67720330011E+01 -0.37454905914E+02  0.38067840618E+02  0.10566000000E+00 0. -1.
        -13    1    4    4    0    0  0.96542882784E+00  0.18174298082E+02 -0.10600993782E+03  0.10756093735E+03  0.10566000000E+00 0.  1.
         14    1    4    4    0    0 -0.39551315446E+00  0.84739772653E+01 -0.46323873224E+02  0.47094224188E+02  0.00000000000E+00 0. -1.
<mgrwt>
<rscale>  0 0.78762309E+02</rscale>
<asrwt>0</asrwt>
<pdfrwt beam="1">  1        1 0.95278971E-03 0.78762309E+02</pdfrwt>
<pdfrwt beam="2">  1       -2 0.38525928E-01 0.78762309E+02</pdfrwt>
<totfact> 0.80217931E+04</totfact>
</mgrwt>
</event>
<event>
 8    1  0.1319619E-020  0.8033361E+02  0.7818608E-02  0.1328107E+00
          1   -1    0    0  501    0  0.00000000000E+00  0.00000000000E+00  0.13685841153E+03  0.13685841162E+03  0.50400000000E-02 0. -1.
         -2   -1    0    0    0  501 -0.00000000000E+00 -0.00000000000E+00 -0.11788624139E+02  0.11788624415E+02  0.25500000000E-02 0.  1.
        -24    2    1    2    0    0 -0.35527136788E-14 -0.17763568394E-14  0.12506978739E+03  0.14864703604E+03  0.80333614414E+02 0.  0.
         66    2    3    3    0    0 -0.18452130448E+02 -0.12107136816E+02  0.52941020115E+00  0.22166284164E+02  0.19999996367E+01 0.  0.
         13    1    3    3    0    0  0.18452130448E+02  0.12107136816E+02  0.12454037719E+03  0.12648075187E+03  0.10566000000E+00 0. -1.
         13    1    4    4    0    0 -0.25129956016E+01 -0.17722015630E+01 -0.39935574585E+00  0.31026592337E+01  0.10566000000E+00 0. -1.
        -13    1    4    4    0    0 -0.10113880063E+02 -0.67772929324E+01  0.11883610968E+01  0.12232973291E+02  0.10566000000E+00 0.  1.
        -14    1    4    4    0    0 -0.58252547833E+01 -0.35576423203E+01 -0.25959514984E+00  0.68306516389E+01  0.00000000000E+00 0.  1.
<mgrwt>
<rscale>  0 0.80333614E+02</rscale>
<asrwt>0</asrwt>
<pdfrwt beam="1">  1        1 0.21055140E-01 0.80333614E+02</pdfrwt>
<pdfrwt beam="2">  1       -2 0.18136346E-02 0.80333614E+02</pdfrwt>
<totfact> 0.15353943E+05</totfact>
</mgrwt>
</event>
<event>
 8    1  0.1319619E-020  0.7743513E+02  0.7818608E-02  0.1336492E+00
          1   -1    0    0  501    0  0.00000000000E+00  0.00000000000E+00  0.10923757225E+03  0.10923757237E+03  0.50400000000E-02 0. -1.
         -2   -1    0    0    0  501 -0.00000000000E+00 -0.00000000000E+00 -0.13722839759E+02  0.13722839995E+02  0.25500000000E-02 0.  1.
        -24    2    1    2    0    0 -0.35527136788E-14  0.00000000000E+00  0.95514732492E+02  0.12296041236E+03  0.77435126947E+02 0.  0.
         66    2    3    3    0    0  0.17213355164E+02 -0.91525060837E+01 -0.52809000347E+01  0.20296695967E+02  0.19999995919E+01 0.  0.
         13    1    3    3    0    0 -0.17213355164E+02  0.91525060837E+01  0.10079563253E+03  0.10266371640E+03  0.10566000000E+00 0. -1.
         13    1    4    4    0    0  0.45349924088E+01 -0.29647894514E+01 -0.10878511913E+01  0.55272702927E+01  0.10566000000E+00 0. -1.
        -13    1    4    4    0    0  0.76825185129E+01 -0.39907395497E+01 -0.19875485880E+01  0.88830516310E+01  0.10566000000E+00 0.  1.
        -14    1    4    4    0    0  0.49958442427E+01 -0.21969770826E+01 -0.22055002554E+01  0.58863740431E+01  0.00000000000E+00 0.  1.
<mgrwt>
<rscale>  0 0.77435127E+02</rscale>
<asrwt>0</asrwt>
<pdfrwt beam="1">  1        1 0.16805780E-01 0.77435127E+02</pdfrwt>
<pdfrwt beam="2">  1       -2 0.21112062E-02 0.77435127E+02</pdfrwt>
<totfact> 0.16288159E+05</totfact>
</mgrwt>
</event>
<event>
 8    1  0.1319619E-020  0.7872389E+02  0.7818608E-02  0.1332712E+00
          1   -1    0    0  501    0  0.00000000000E+00  0.00000000000E+00  0.12722563424E+03  0.12722563434E+03  0.50400000000E-02 0. -1.
         -2   -1    0    0    0  501 -0.00000000000E+00 -0.00000000000E+00 -0.12178069792E+02  0.12178070059E+02  0.25500000000E-02 0.  1.
        -24    2    1    2    0    0  0.00000000000E+00  0.00000000000E+00  0.11504756444E+03  0.13940370439E+03  0.78723889097E+02 0.  0.
         66    2    3    3    0    0  0.22079048815E+02  0.15169955426E+02  0.65525702154E+01  0.27650463365E+02  0.20000009136E+01 0.  0.
         13    1    3    3    0    0 -0.22079048815E+02 -0.15169955426E+02  0.10849499423E+03  0.11175324103E+03  0.10566000000E+00 0. -1.
         13    1    4    4    0    0  0.50514136376E+00  0.47462433831E+00  0.14166272911E+00  0.71531001972E+00  0.10566000000E+00 0.  1.
        -13    1    4    4    0    0  0.29494962635E+01  0.15413033817E+01  0.39014658367E+00  0.33523905970E+01  0.10566000000E+00 0.  1.
        -14    1    4    4    0    0  0.18624411188E+02  0.13154027706E+02  0.60207609026E+01  0.23582762748E+02  0.00000000000E+00 0.  1.
<mgrwt>
<rscale>  0 0.78723889E+02</rscale>
<asrwt>0</asrwt>
<pdfrwt beam="1">  1        1 0.19573175E-01 0.78723889E+02</pdfrwt>
<pdfrwt beam="2">  1       -2 0.18735492E-02 0.78723889E+02</pdfrwt>
<totfact> 0.15998936E+05</totfact>
</mgrwt>
</event>
<event>
 8    1  0.1319619E-020  0.8096269E+02  0.7818608E-02  0.1326341E+00
         -2   -1    0    0    0  501 -0.00000000000E+00  0.00000000000E+00  0.81235874723E+02  0.81235874763E+02  0.25500000000E-02 0.  1.
          1   -1    0    0  501    0  0.00000000000E+00 -0.00000000000E+00 -0.20172606128E+02  0.20172606757E+02  0.50400000000E-02 0. -1.
        -24    2    1    2    0    0  0.00000000000E+00 -0.22204460493E-15  0.61063268595E+02  0.10140848152E+03  0.80962691115E+02 0.  0.
         66    2    3    3    0    0 -0.37404592060E+02 -0.17486110860E+01  0.11366682399E+02  0.39183703565E+02  0.20000021001E+01 0.  0.
         13    1    3    3    0    0  0.37404592060E+02  0.17486110860E+01  0.49696586196E+02  0.62224777955E+02  0.10566000000E+00 0. -1.
         13    1    4    4    0    0 -0.23720030754E+02 -0.14278343026E+01  0.78106141010E+01  0.25013904662E+02  0.10566000000E+00 0. -1.
        -13    1    4    4    0    0 -0.13380997995E+02 -0.44287577963E+00  0.34549395175E+01  0.13827328643E+02  0.10566000000E+00 0.  1.
         14    1    4    4    0    0 -0.30356331052E+00  0.12209899623E+00  0.10112878057E+00  0.34247025949E+00  0.00000000000E+00 0. -1.
<mgrwt>
<rscale>  0 0.80962691E+02</rscale>
<asrwt>0</asrwt>
<pdfrwt beam="1">  1        1 0.31034779E-02 0.80962691E+02</pdfrwt>
<pdfrwt beam="2">  1       -2 0.12497827E-01 0.80962691E+02</pdfrwt>
<totfact> 0.10804306E+05</totfact>
</mgrwt>
</event>
<event>
 8    1  0.1319619E-020  0.8040367E+02  0.7818608E-02  0.1327910E+00
          1   -1    0    0  501    0  0.00000000000E+00  0.00000000000E+00  0.21617008762E+02  0.21617009350E+02  0.50400000000E-02 0. -1.
         -2   -1    0    0    0  501 -0.00000000000E+00 -0.00000000000E+00 -0.74764625117E+02  0.74764625161E+02  0.25500000000E-02 0.  1.
        -24    2    1    2    0    0  0.00000000000E+00  0.00000000000E+00 -0.53147616355E+02  0.96381634511E+02  0.80403671227E+02 0.  0.
         66    2    3    3    0    0  0.35244186798E+02 -0.16675395294E+02 -0.38209839300E+02  0.54627953731E+02  0.19999995436E+01 0.  0.
         13    1    3    3    0    0 -0.35244186798E+02  0.16675395294E+02 -0.14937777055E+02  0.41753680780E+02  0.10566000000E+00 0. -1.
         13    1    4    4    0    0  0.99032224448E+01 -0.46735414350E+01 -0.10177624717E+02  0.14950284722E+02  0.10566000000E+00 0. -1.
        -13    1    4    4    0    0  0.44367167674E+01 -0.16082239163E+01 -0.52017488070E+01  0.70242575783E+01  0.10566000000E+00 0.  1.
        -14    1    4    4    0    0  0.20904247586E+02 -0.10393629943E+02 -0.22830465776E+02  0.32653411431E+02  0.00000000000E+00 0.  1.
<mgrwt>
<rscale>  0 0.80403671E+02</rscale>
<asrwt>0</asrwt>
<pdfrwt beam="1">  1        1 0.33256937E-02 0.80403671E+02</pdfrwt>
<pdfrwt beam="2">  1       -2 0.11502250E-01 0.80403671E+02</pdfrwt>
<totfact> 0.11193225E+05</totfact>
</mgrwt>
</event>
<event>
 8    1  0.1319619E-020  0.8116567E+02  0.7818608E-02  0.1325776E+00
          1   -1    0    0  501    0  0.00000000000E+00  0.00000000000E+00  0.86639815814E+01  0.86639830473E+01  0.50400000000E-02 0. -1.
         -2   -1    0    0    0  501 -0.00000000000E+00 -0.00000000000E+00 -0.19009345103E+03  0.19009345105E+03  0.25500000000E-02 0.  1.
        -24    2    1    2    0    0  0.00000000000E+00  0.00000000000E+00 -0.18142946945E+03  0.19875743409E+03  0.81165665298E+02 0.  0.
         66    2    3    3    0    0  0.21139579629E+02  0.14749989572E+02 -0.16744905273E+03  0.16943325917E+03  0.20000084808E+01 0.  0.
         13    1    3    3    0    0 -0.21139579629E+02 -0.14749989572E+02 -0.13980416718E+02  0.29324174923E+02  0.10566000000E+00 0. -1.
         13    1    4    4    0    0  0.44874470832E+01  0.37378024400E+01 -0.34787448663E+02  0.35274439711E+02  0.10566000000E+00 0. -1.
        -13    1    4    4    0    0  0.12404744891E+02  0.83560597500E+01 -0.10195255847E+03  0.10304385849E+03  0.10566000000E+00 0.  1.
        -14    1    4    4    0    0  0.42473876549E+01  0.26561273816E+01 -0.30709045599E+02  0.31114960970E+02  0.00000000000E+00 0.  1.
<mgrwt>
<rscale>  0 0.81165665E+02</rscale>
<asrwt>0</asrwt>
<pdfrwt beam="1">  1        1 0.13329205E-02 0.81165665E+02</pdfrwt>
<pdfrwt beam="2">  1       -2 0.29245143E-01 0.81165665E+02</pdfrwt>
<totfact> 0.83634886E+04</totfact>
</mgrwt>
</event>
<event>
 8    1  0.1319619E-020  0.8031662E+02  0.7818608E-02  0.1328155E+00
          1   -1    0    0  501    0  0.00000000000E+00  0.00000000000E+00  0.27414951539E+02  0.27414952003E+02  0.50400000000E-02 0. -1.
         -2   -1    0    0    0  501 -0.00000000000E+00 -0.00000000000E+00 -0.58825197237E+02  0.58825197292E+02  0.25500000000E-02 0.  1.
        -24    2    1    2    0    0  0.00000000000E+00  0.00000000000E+00 -0.31410245698E+02  0.86240149295E+02  0.80316622287E+02 0.  0.
         66    2    3    3    0    0 -0.25342438366E+02 -0.28392321780E+02 -0.29395037297E+02  0.48129319504E+02  0.20000149629E+01 0.  0.
         13    1    3    3    0    0  0.25342438366E+02  0.28392321780E+02 -0.20152084002E+01  0.38110829790E+02  0.10566000000E+00 0. -1.
         13    1    4    4    0    0 -0.20604945106E+01 -0.16208193278E+01 -0.19928495855E+01  0.32947392048E+01  0.10566000000E+00 0. -1.
        -13    1    4    4    0    0 -0.52980651581E+01 -0.57877921182E+01 -0.63047707885E+01  0.10066247104E+02  0.10566000000E+00 0.  1.
         14    1    4    4    0    0 -0.17983878697E+02 -0.20983710334E+02 -0.21097416923E+02  0.34768333196E+02  0.00000000000E+00 0. -1.
<mgrwt>
<rscale>  0 0.80316622E+02</rscale>
<asrwt>0</asrwt>
<pdfrwt beam="1">  1        1 0.42176849E-02 0.80316622E+02</pdfrwt>
<pdfrwt beam="2">  1       -2 0.90500303E-02 0.80316622E+02</pdfrwt>
<totfact> 0.11764449E+05</totfact>
</mgrwt>
</event>
<event>
 8    1  0.1319619E-020  0.7134213E+02  0.7818608E-02  0.1355588E+00
          1   -1    0    0  501    0  0.00000000000E+00  0.00000000000E+00  0.22957650137E+03  0.22957650142E+03  0.50400000000E-02 0. -1.
         -2   -1    0    0    0  501 -0.00000000000E+00 -0.00000000000E+00 -0.55424875509E+01  0.55424881375E+01  0.25500000000E-02 0.  1.
        -24    2    1    2    0    0  0.00000000000E+00  0.00000000000E+00  0.22403401381E+03  0.23511898956E+03  0.71342132748E+02 0.  0.
         66    2    3    3    0    0  0.20121974894E+02 -0.23880712908E+02  0.55477263831E+02  0.63693870478E+02  0.20000029100E+01 0.  0.
         13    1    3    3    0    0 -0.20121974894E+02  0.23880712908E+02  0.16855674998E+03  0.17142511908E+03  0.10566000000E+00 0. -1.
         13    1    4    4    0    0  0.10108305963E+02 -0.12110977523E+02  0.28594183416E+02  0.32657190866E+02  0.10566000000E+00 0.  1.
        -13    1    4    4    0    0  0.72688018703E+01 -0.76944150421E+01  0.18911483350E+02  0.21672444948E+02  0.10566000000E+00 0. -1.
         14    1    4    4    0    0  0.27448670610E+01 -0.40753203433E+01  0.79715970645E+01  0.93642346639E+01  0.00000000000E+00 0. -1.
<mgrwt>
<rscale>  0 0.71342133E+02</rscale>
<asrwt>0</asrwt>
<pdfrwt beam="1">  1        1 0.35319465E-01 0.71342133E+02</pdfrwt>
<pdfrwt beam="2">  1       -2 0.85269037E-03 0.71342133E+02</pdfrwt>
<totfact> 0.23148422E+05</totfact>
</mgrwt>
</event>
<event>
 8    1  0.1319619E-020  0.7898093E+02  0.7818608E-02  0.1331969E+00
          1   -1    0    0  501    0  0.00000000000E+00  0.00000000000E+00  0.74497994898E+01  0.74498011947E+01  0.50400000000E-02 0. -1.
         -2   -1    0    0    0  501 -0.00000000000E+00 -0.00000000000E+00 -0.20933406623E+03  0.20933406625E+03  0.25500000000E-02 0.  1.
        -24    2    1    2    0    0  0.00000000000E+00  0.35527136788E-14 -0.20188426674E+03  0.21678386744E+03  0.78980934568E+02 0.  0.
         66    2    3    3    0    0 -0.31475275123E+02 -0.23782009652E+02 -0.97981044466E+02  0.10564356112E+03  0.20000008064E+01 0.  0.
         13    1    3    3    0    0  0.31475275123E+02  0.23782009652E+02 -0.10390322228E+03  0.11114030633E+03  0.10566000000E+00 0. -1.
         13    1    4    4    0    0 -0.18915827550E+01 -0.15170826146E+01 -0.50456239382E+01  0.55990275888E+01  0.10566000000E+00 0. -1.
        -13    1    4    4    0    0 -0.10770176142E+02 -0.77607883312E+01 -0.32292544933E+02  0.34914841428E+02  0.10566000000E+00 0.  1.
         14    1    4    4    0    0 -0.18813516225E+02 -0.14504138706E+02 -0.60642875595E+02  0.65129692098E+02  0.00000000000E+00 0. -1.
<mgrwt>
<rscale>  0 0.78980935E+02</rscale>
<asrwt>0</asrwt>
<pdfrwt beam="1">  1        1 0.11461233E-02 0.78980935E+02</pdfrwt>
<pdfrwt beam="2">  1       -2 0.32205236E-01 0.78980935E+02</pdfrwt>
<totfact> 0.86297376E+04</totfact>
</mgrwt>
</event>
<event>
 8    1  0.1319619E-020  0.8485299E+02  0.7818608E-02  0.1315817E+00
          1   -1    0    0  501    0  0.00000000000E+00  0.00000000000E+00  0.62439908937E+02  0.62439909140E+02  0.50400000000E-02 0. -1.
         -2   -1    0    0    0  501 -0.00000000000E+00 -0.00000000000E+00 -0.28827837729E+02  0.28827837842E+02  0.25500000000E-02 0.  1.
        -24    2    1    2    0    0  0.00000000000E+00 -0.17763568394E-14  0.33612071208E+02  0.91267746982E+02  0.84852992335E+02 0.  0.
         66    2    3    3    0    0  0.23748186909E+02  0.15724388197E+02 -0.16972311525E+02  0.33215841706E+02  0.20000040145E+01 0.  0.
         13    1    3    3    0    0 -0.23748186909E+02 -0.15724388197E+02  0.50584382733E+02  0.58051905276E+02  0.10566000000E+00 0. -1.
         13    1    4    4    0    0  0.80334375514E+01  0.45864913482E+01 -0.50530623273E+01  0.10541187063E+02  0.10566000000E+00 0.  1.
        -13    1    4    4    0    0  0.13883847343E+01  0.70391880414E+00 -0.81674252110E+00  0.17610639496E+01  0.10566000000E+00 0.  1.
        -14    1    4    4    0    0  0.14326364623E+02  0.10433978045E+02 -0.11102506677E+02  0.20913590693E+02  0.00000000000E+00 0.  1.
<mgrwt>
<rscale>  0 0.84852992E+02</rscale>
<asrwt>0</asrwt>
<pdfrwt beam="1">  1        1 0.96061399E-02 0.84852992E+02</pdfrwt>
<pdfrwt beam="2">  1       -2 0.44350520E-02 0.84852992E+02</pdfrwt>
<totfact> 0.11576389E+05</totfact>
</mgrwt>
</event>
<event>
 8    1  0.1319619E-020  0.8012210E+02  0.7818608E-02  0.1328705E+00
          1   -1    0    0  501    0  0.00000000000E+00  0.00000000000E+00  0.30060474861E+03  0.30060474865E+03  0.50400000000E-02 0. -1.
         -2   -1    0    0    0  501 -0.00000000000E+00 -0.00000000000E+00 -0.53388628591E+01  0.53388634681E+01  0.25500000000E-02 0.  1.
        -24    2    1    2    0    0 -0.35527136788E-14  0.00000000000E+00  0.29526588575E+03  0.30594361212E+03  0.80122097507E+02 0.  0.
         66    2    3    3    0    0  0.27731599983E+02  0.26399360180E+02  0.10304455961E+03  0.10994611917E+03  0.19999999268E+01 0.  0.
         13    1    3    3    0    0 -0.27731599983E+02 -0.26399360180E+02  0.19222132614E+03  0.19599749295E+03  0.10566000000E+00 0. -1.
         13    1    4    4    0    0  0.18418054724E+01  0.16163986081E+01  0.71966298888E+01  0.76031334100E+01  0.10566000000E+00 0.  1.
        -13    1    4    4    0    0  0.20261839552E+02  0.19394430577E+02  0.72992735177E+02  0.78196142054E+02  0.10566000000E+00 0.  1.
        -14    1    4    4    0    0  0.56279549582E+01  0.53885309948E+01  0.22855194546E+02  0.24146843708E+02  0.00000000000E+00 0.  1.
<mgrwt>
<rscale>  0 0.80122098E+02</rscale>
<asrwt>0</asrwt>
<pdfrwt beam="1">  1        1 0.46246883E-01 0.80122098E+02</pdfrwt>
<pdfrwt beam="2">  1       -2 0.82136359E-03 0.80122098E+02</pdfrwt>
<totfact> 0.17976102E+05</totfact>
</mgrwt>
</event>
<event>
 8    1  0.1319619E-020  0.8027145E+02  0.7818608E-02  0.1328283E+00
          1   -1    0    0  501    0  0.00000000000E+00  0.00000000000E+00  0.51642905487E+01  0.51642930081E+01  0.50400000000E-02 0. -1.
         -2   -1    0    0    0  501 -0.00000000000E+00 -0.00000000000E+00 -0.31192588987E+03  0.31192588988E+03  0.25500000000E-02 0.  1.
        -24    2    1    2    0    0 -0.71054273576E-14  0.00000000000E+00 -0.30676159932E+03  0.31709018289E+03  0.80271447390E+02 0.  0.
         66    2    3    3    0    0 -0.33990901212E+02 -0.19252253730E+02 -0.18942945207E+03  0.19342582027E+03  0.19999993157E+01 0.  0.
         13    1    3    3    0    0  0.33990901212E+02  0.19252253730E+02 -0.11733214726E+03  0.12366436262E+03  0.10566000000E+00 0. -1.
         13    1    4    4    0    0 -0.27993809465E+01 -0.20990248380E+01 -0.16111560350E+02  0.16487449163E+02  0.10566000000E+00 0. -1.
        -13    1    4    4    0    0 -0.18144736770E+02 -0.10289373753E+02 -0.10347856344E+03  0.10556006318E+03  0.10566000000E+00 0.  1.
        -14    1    4    4    0    0 -0.13046783495E+02 -0.68638551390E+01 -0.69839328281E+02  0.71378307921E+02  0.00000000000E+00 0.  1.
<mgrwt>
<rscale>  0 0.80271447E+02</rscale>
<asrwt>0</asrwt>
<pdfrwt beam="1">  1        1 0.79450667E-03 0.80271447E+02</pdfrwt>
<pdfrwt beam="2">  1       -2 0.47988584E-01 0.80271447E+02</pdfrwt>
<totfact> 0.68175896E+04</totfact>
</mgrwt>
</event>
<event>
 8    1  0.1319619E-020  0.8266666E+02  0.7818608E-02  0.1321650E+00
          1   -1    0    0  501    0  0.00000000000E+00  0.00000000000E+00  0.10922446028E+03  0.10922446040E+03  0.50400000000E-02 0. -1.
         -2   -1    0    0    0  501 -0.00000000000E+00 -0.00000000000E+00 -0.15641590262E+02  0.15641590470E+02  0.25500000000E-02 0.  1.
        -24    2    1    2    0    0  0.71054273576E-14 -0.35527136788E-14  0.93582870019E+02  0.12486605087E+03  0.82666662556E+02 0.  0.
         66    2    3    3    0    0  0.35361464517E+02 -0.21143438752E+02  0.42297120824E+02  0.59080661839E+02  0.19999995847E+01 0.  0.
         13    1    3    3    0    0 -0.35361464517E+02  0.21143438752E+02  0.51285749195E+02  0.65785389028E+02  0.10566000000E+00 0. -1.
         13    1    4    4    0    0  0.17533768952E+02 -0.10610017554E+02  0.20082185162E+02  0.28693393858E+02  0.10566000000E+00 0. -1.
        -13    1    4    4    0    0  0.12437774690E+02 -0.68237540028E+01  0.14946615374E+02  0.20607628032E+02  0.10566000000E+00 0.  1.
         14    1    4    4    0    0  0.53899208746E+01 -0.37096671953E+01  0.72683202871E+01  0.97796399489E+01  0.00000000000E+00 0. -1.
<mgrwt>
<rscale>  0 0.82666663E+02</rscale>
<asrwt>0</asrwt>
<pdfrwt beam="1">  1        1 0.16803763E-01 0.82666663E+02</pdfrwt>
<pdfrwt beam="2">  1       -2 0.24063986E-02 0.82666663E+02</pdfrwt>
<totfact> 0.13656382E+05</totfact>
</mgrwt>
</event>
<event>
 8    1  0.1319619E-020  0.8021240E+02  0.7818608E-02  0.1328450E+00
          1   -1    0    0  501    0  0.00000000000E+00  0.00000000000E+00  0.92878535272E+01  0.92878548946E+01  0.50400000000E-02 0. -1.
         -2   -1    0    0    0  501 -0.00000000000E+00 -0.00000000000E+00 -0.17318395709E+03  0.17318395711E+03  0.25500000000E-02 0.  1.
        -24    2    1    2    0    0  0.00000000000E+00 -0.17763568394E-14 -0.16389610357E+03  0.18247181201E+03  0.80212401865E+02 0.  0.
         66    2    3    3    0    0  0.20736201787E+02  0.14374911451E+02 -0.15284430866E+03  0.15492582358E+03  0.19999946811E+01 0.  0.
         13    1    3    3    0    0 -0.20736201787E+02 -0.14374911451E+02 -0.11051794910E+02  0.27545988430E+02  0.10566000000E+00 0. -1.
         13    1    4    4    0    0  0.26312050024E+01  0.18084170619E+01 -0.17004972235E+02  0.17302423437E+02  0.10566000000E+00 0. -1.
        -13    1    4    4    0    0  0.37514028261E+01  0.25629645993E+01 -0.31844107332E+02  0.32166755300E+02  0.10566000000E+00 0.  1.
        -14    1    4    4    0    0  0.14353593959E+02  0.10003529790E+02 -0.10399522909E+03  0.10545664484E+03  0.00000000000E+00 0.  1.
<mgrwt>
<rscale>  0 0.80212402E+02</rscale>
<asrwt>0</asrwt>
<pdfrwt beam="1">  1        1 0.14289008E-02 0.80212402E+02</pdfrwt>
<pdfrwt beam="2">  1       -2 0.26643683E-01 0.80212402E+02</pdfrwt>
<totfact> 0.89312172E+04</totfact>
</mgrwt>
</event>
<event>
 8    1  0.1319619E-020  0.7966816E+02  0.7818608E-02  0.1329996E+00
         -2   -1    0    0    0  501 -0.00000000000E+00  0.00000000000E+00  0.73552189495E+02  0.73552189540E+02  0.25500000000E-02 0.  1.
          1   -1    0    0  501    0  0.00000000000E+00 -0.00000000000E+00 -0.21573172781E+02  0.21573173369E+02  0.50400000000E-02 0. -1.
        -24    2    1    2    0    0  0.00000000000E+00  0.00000000000E+00  0.51979016715E+02  0.95125362909E+02  0.79668164846E+02 0.  0.
         66    2    3    3    0    0  0.16950024012E+02 -0.12079337154E+02  0.66524044381E+02  0.69732791280E+02  0.19999997022E+01 0.  0.
         13    1    3    3    0    0 -0.16950024012E+02  0.12079337154E+02 -0.14545027666E+02  0.25392571629E+02  0.10566000000E+00 0. -1.
         13    1    4    4    0    0  0.40533268645E+01 -0.31496391797E+01  0.14782087397E+02  0.15648353188E+02  0.10566000000E+00 0.  1.
        -13    1    4    4    0    0  0.61284149325E+01 -0.34306482252E+01  0.23105005514E+02  0.24149104759E+02  0.10566000000E+00 0. -1.
         14    1    4    4    0    0  0.67682822154E+01 -0.54990497496E+01  0.28636951469E+02  0.29935333333E+02  0.00000000000E+00 0. -1.
<mgrwt>
<rscale>  0 0.79668165E+02</rscale>
<asrwt>0</asrwt>
<pdfrwt beam="1">  1        1 0.33189497E-02 0.79668165E+02</pdfrwt>
<pdfrwt beam="2">  1       -2 0.11315721E-01 0.79668165E+02</pdfrwt>
<totfact> 0.11496844E+05</totfact>
</mgrwt>
</event>
<event>
 8    1  0.1319619E-020  0.7943698E+02  0.7818608E-02  0.1330657E+00
         -2   -1    0    0    0  501 -0.00000000000E+00  0.00000000000E+00  0.11096662871E+03  0.11096662874E+03  0.25500000000E-02 0.  1.
          1   -1    0    0  501    0  0.00000000000E+00 -0.00000000000E+00 -0.14216510368E+02  0.14216511261E+02  0.50400000000E-02 0. -1.
        -24    2    1    2    0    0  0.00000000000E+00  0.88817841970E-15  0.96750118342E+02  0.12518314000E+03  0.79436975906E+02 0.  0.
         66    2    3    3    0    0 -0.23060917934E+02 -0.54328153052E+01  0.98592700376E+02  0.10141914011E+03  0.19999988613E+01 0.  0.
         13    1    3    3    0    0  0.23060917934E+02  0.54328153052E+01 -0.18425820341E+01  0.23763999888E+02  0.10566000000E+00 0. -1.
         13    1    4    4    0    0 -0.11993151821E+02 -0.30477806713E+01  0.48905313218E+02  0.50446659776E+02  0.10566000000E+00 0. -1.
        -13    1    4    4    0    0 -0.77912093846E+01 -0.21769318035E+01  0.35265814047E+02  0.36181912335E+02  0.10566000000E+00 0.  1.
         14    1    4    4    0    0 -0.32765567285E+01 -0.20810283043E+00  0.14421573111E+02  0.14790568000E+02  0.00000000000E+00 0. -1.
<mgrwt>
<rscale>  0 0.79436976E+02</rscale>
<asrwt>0</asrwt>
<pdfrwt beam="1">  1        1 0.21871556E-02 0.79436976E+02</pdfrwt>
<pdfrwt beam="2">  1       -2 0.17071789E-01 0.79436976E+02</pdfrwt>
<totfact> 0.10521638E+05</totfact>
</mgrwt>
</event>
<event>
 8    1  0.1319619E-020  0.8039573E+02  0.7818608E-02  0.1327932E+00
          1   -1    0    0  501    0  0.00000000000E+00  0.00000000000E+00  0.49846135136E+02  0.49846135391E+02  0.50400000000E-02 0. -1.
         -2   -1    0    0    0  501 -0.00000000000E+00 -0.00000000000E+00 -0.32417125795E+02  0.32417125895E+02  0.25500000000E-02 0.  1.
        -24    2    1    2    0    0  0.00000000000E+00  0.00000000000E+00  0.17429009341E+02  0.82263261286E+02  0.80395732416E+02 0.  0.
         66    2    3    3    0    0 -0.34269901600E+02 -0.10577460386E+02 -0.97990016189E+01  0.37233442623E+02  0.19999982286E+01 0.  0.
         13    1    3    3    0    0  0.34269901600E+02  0.10577460386E+02  0.27228010960E+02  0.45029818663E+02  0.10566000000E+00 0. -1.
         13    1    4    4    0    0 -0.11974418166E+02 -0.35940515231E+01 -0.41013254243E+01  0.13158112746E+02  0.10566000000E+00 0.  1.
        -13    1    4    4    0    0 -0.15820639759E+02 -0.53762706138E+01 -0.43976474503E+01  0.17278524104E+02  0.10566000000E+00 0. -1.
        -14    1    4    4    0    0 -0.64748436758E+01 -0.16071382487E+01 -0.13000287443E+01  0.67968057727E+01  0.00000000000E+00 0.  1.
<mgrwt>
<rscale>  0 0.80395732E+02</rscale>
<asrwt>0</asrwt>
<pdfrwt beam="1">  1        1 0.76686362E-02 0.80395732E+02</pdfrwt>
<pdfrwt beam="2">  1       -2 0.49872502E-02 0.80395732E+02</pdfrwt>
<totfact> 0.12971361E+05</totfact>
</mgrwt>
</event>
<event>
 8    1  0.1319619E-020  0.7702925E+02  0.7818608E-02  0.1337700E+00
          1   -1    0    0  501    0  0.00000000000E+00  0.00000000000E+00  0.92079127363E+01  0.92079141156E+01  0.50400000000E-02 0. -1.
         -2   -1    0    0    0  501 -0.00000000000E+00 -0.00000000000E+00 -0.16109799489E+03  0.16109799491E+03  0.25500000000E-02 0.  1.
        -24    2    1    2    0    0  0.00000000000E+00 -0.22204460493E-15 -0.15189008215E+03  0.17030590903E+03  0.77029251537E+02 0.  0.
         66    2    3    3    0    0 -0.10014640660E+02  0.13539680998E+01 -0.15810585584E+03  0.15844111810E+03  0.19999996035E+01 0.  0.
         13    1    3    3    0    0  0.10014640660E+02 -0.13539680998E+01  0.62157736824E+01  0.11864790924E+02  0.10566000000E+00 0. -1.
         13    1    4    4    0    0 -0.43556568007E+01  0.83173462678E+00 -0.56586716606E+02  0.56760295885E+02  0.10566000000E+00 0. -1.
        -13    1    4    4    0    0 -0.34277652662E+01  0.40013555050E+00 -0.55275766907E+02  0.55383492617E+02  0.10566000000E+00 0.  1.
         14    1    4    4    0    0 -0.22312185933E+01  0.12209792250E+00 -0.46243372323E+02  0.46297329600E+02  0.00000000000E+00 0. -1.
<mgrwt>
<rscale>  0 0.77029252E+02</rscale>
<asrwt>0</asrwt>
<pdfrwt beam="1">  1        1 0.14166022E-02 0.77029252E+02</pdfrwt>
<pdfrwt beam="2">  1       -2 0.24784305E-01 0.77029252E+02</pdfrwt>
<totfact> 0.10169720E+05</totfact>
</mgrwt>
</event>
<event>
 8    1  0.1319619E-020  0.7828036E+02  0.7818608E-02  0.1334004E+00
         -2   -1    0    0    0  501 -0.00000000000E+00  0.00000000000E+00  0.14645601404E+02  0.14645601626E+02  0.25500000000E-02 0.  1.
          1   -1    0    0  501    0  0.00000000000E+00 -0.00000000000E+00 -0.10460161410E+03  0.10460161422E+03  0.50400000000E-02 0. -1.
        -24    2    1    2    0    0  0.00000000000E+00  0.00000000000E+00 -0.89956012692E+02  0.11924721584E+03  0.78280356839E+02 0.  0.
         66    2    3    3    0    0 -0.32961106112E+02 -0.13632309345E+02 -0.69460217893E+02  0.78108874327E+02  0.20000011656E+01 0.  0.
         13    1    3    3    0    0  0.32961106112E+02  0.13632309345E+02 -0.20495794800E+02  0.41138341516E+02  0.10566000000E+00 0. -1.
         13    1    4    4    0    0 -0.20443750519E+01 -0.11559197902E+01 -0.46686276202E+01  0.52271280649E+01  0.10566000000E+00 0.  1.
        -13    1    4    4    0    0 -0.17030606673E+02 -0.67311107725E+01 -0.33968247539E+02  0.38590185550E+02  0.10566000000E+00 0. -1.
         14    1    4    4    0    0 -0.13886124388E+02 -0.57452787819E+01 -0.30823342733E+02  0.34291560712E+02  0.00000000000E+00 0. -1.
<mgrwt>
<rscale>  0 0.78280357E+02</rscale>
<asrwt>0</asrwt>
<pdfrwt beam="1">  1        1 0.16092556E-01 0.78280357E+02</pdfrwt>
<pdfrwt beam="2">  1       -2 0.22531695E-02 0.78280357E+02</pdfrwt>
<totfact> 0.15704606E+05</totfact>
</mgrwt>
</event>
<event>
 8    1  0.1319619E-020  0.8099933E+02  0.7818608E-02  0.1326239E+00
         -2   -1    0    0    0  501 -0.00000000000E+00  0.00000000000E+00  0.89587841682E+01  0.89587845311E+01  0.25500000000E-02 0.  1.
          1   -1    0    0  501    0  0.00000000000E+00 -0.00000000000E+00 -0.18308541564E+03  0.18308541571E+03  0.50400000000E-02 0. -1.
        -24    2    1    2    0    0  0.00000000000E+00  0.00000000000E+00 -0.17412663148E+03  0.19204420024E+03  0.80999327519E+02 0.  0.
         66    2    3    3    0    0  0.36181233460E+02 -0.20336958847E+01 -0.12985891383E+03  0.13483528867E+03  0.19999991582E+01 0.  0.
         13    1    3    3    0    0 -0.36181233460E+02  0.20336958847E+01 -0.44267717647E+02  0.57208911573E+02  0.10566000000E+00 0. -1.
         13    1    4    4    0    0  0.11552319464E+02 -0.12730249027E+01 -0.42730909434E+02  0.44283388110E+02  0.10566000000E+00 0. -1.
        -13    1    4    4    0    0  0.20055146317E+02 -0.19584037800E+00 -0.70813498389E+02  0.73598980736E+02  0.10566000000E+00 0.  1.
        -14    1    4    4    0    0  0.45737676790E+01 -0.56483060398E+00 -0.16314506006E+02  0.16952919826E+02  0.00000000000E+00 0.  1.
<mgrwt>
<rscale>  0 0.80999328E+02</rscale>
<asrwt>0</asrwt>
<pdfrwt beam="1">  1        1 0.28166984E-01 0.80999328E+02</pdfrwt>
<pdfrwt beam="2">  1       -2 0.13782746E-02 0.80999328E+02</pdfrwt>
<totfact> 0.15858986E+05</totfact>
</mgrwt>
</event>
<event>
 8    1  0.1319619E-020  0.7913809E+02  0.7818608E-02  0.1331515E+00
         -2   -1    0    0    0  501 -0.00000000000E+00  0.00000000000E+00  0.13178231786E+02  0.13178232033E+02  0.25500000000E-02 0.  1.
          1   -1    0    0  501    0  0.00000000000E+00 -0.00000000000E+00 -0.11881027980E+03  0.11881027991E+03  0.50400000000E-02 0. -1.
        -24    2    1    2    0    0  0.00000000000E+00  0.17763568394E-14 -0.10563204801E+03  0.13198851194E+03  0.79138092702E+02 0.  0.
         66    2    3    3    0    0  0.29738782184E+02  0.12255231161E+02 -0.14485380660E+02  0.35332875838E+02  0.20000013800E+01 0.  0.
         13    1    3    3    0    0 -0.29738782184E+02 -0.12255231161E+02 -0.91146667353E+02  0.96655636102E+02  0.10566000000E+00 0. -1.
         13    1    4    4    0    0  0.19401908528E+02  0.76206758011E+01 -0.96136064786E+01  0.22955203065E+02  0.10566000000E+00 0. -1.
        -13    1    4    4    0    0  0.81896095760E+01  0.40174436441E+01 -0.42130260077E+01  0.10048398411E+02  0.10566000000E+00 0.  1.
         14    1    4    4    0    0  0.21472640795E+01  0.61711171548E+00 -0.65874817382E+00  0.23292743619E+01  0.00000000000E+00 0. -1.
<mgrwt>
<rscale>  0 0.79138093E+02</rscale>
<asrwt>0</asrwt>
<pdfrwt beam="1">  1        1 0.18278504E-01 0.79138093E+02</pdfrwt>
<pdfrwt beam="2">  1       -2 0.20274204E-02 0.79138093E+02</pdfrwt>
<totfact> 0.15587098E+05</totfact>
</mgrwt>
</event>
<event>
 8    1  0.1319619E-020  0.7810043E+02  0.7818608E-02  0.1334530E+00
          1   -1    0    0  501    0  0.00000000000E+00  0.00000000000E+00  0.31347694211E+02  0.31347694617E+02  0.50400000000E-02 0. -1.
         -2   -1    0    0    0  501 -0.00000000000E+00 -0.00000000000E+00 -0.48645345931E+02  0.48645345998E+02  0.25500000000E-02 0.  1.
        -24    2    1    2    0    0  0.00000000000E+00  0.35527136788E-14 -0.17297651720E+02  0.79993040614E+02  0.78100434005E+02 0.  0.
         66    2    3    3    0    0  0.23338723992E+02  0.31021964251E+02 -0.45759996917E+01  0.39140746947E+02  0.19999986993E+01 0.  0.
         13    1    3    3    0    0 -0.23338723992E+02 -0.31021964251E+02 -0.12721652028E+02  0.40852293668E+02  0.10566000000E+00 0. -1.
         13    1    4    4    0    0  0.84552797303E+00  0.10518699354E+01  0.71546392953E-01  0.13555924299E+01  0.10566000000E+00 0. -1.
        -13    1    4    4    0    0  0.20322818663E+02  0.27713273784E+02 -0.43224978733E+01  0.34637229308E+02  0.10566000000E+00 0.  1.
        -14    1    4    4    0    0  0.21703773565E+01  0.22568205312E+01 -0.32504821138E+00  0.31479252087E+01  0.00000000000E+00 0.  1.
<mgrwt>
<rscale>  0 0.78100434E+02</rscale>
<asrwt>0</asrwt>
<pdfrwt beam="1">  1        1 0.48227222E-02 0.78100434E+02</pdfrwt>
<pdfrwt beam="2">  1       -2 0.74838994E-02 0.78100434E+02</pdfrwt>
<totfact> 0.13054865E+05</totfact>
</mgrwt>
</event>
<event>
 8    1  0.1319619E-020  0.8005123E+02  0.7818608E-02  0.1328906E+00
         -2   -1    0    0    0  501 -0.00000000000E+00  0.00000000000E+00  0.42564374866E+03  0.42564374867E+03  0.25500000000E-02 0.  1.
          1   -1    0    0  501    0  0.00000000000E+00 -0.00000000000E+00 -0.37638261332E+01  0.37638295076E+01  0.50400000000E-02 0. -1.
        -24    2    1    2    0    0  0.00000000000E+00 -0.55511151231E-16  0.42187992253E+03  0.42940757818E+03  0.80051228367E+02 0.  0.
         66    2    3    3    0    0  0.11435290950E+02 -0.28014354252E+00  0.41668031587E+03  0.41684209240E+03  0.19999998311E+01 0.  0.
         13    1    3    3    0    0 -0.11435290950E+02  0.28014354252E+00  0.51996066604E+01  0.12565485784E+02  0.10566000000E+00 0. -1.
         13    1    4    4    0    0  0.53699471441E+01  0.19993974952E+00  0.16472675295E+03  0.16481441262E+03  0.10566000000E+00 0. -1.
        -13    1    4    4    0    0  0.35605519381E+01 -0.44271504242E+00  0.13898170818E+03  0.13902805436E+03  0.10566000000E+00 0.  1.
         14    1    4    4    0    0  0.25047918680E+01 -0.37368249617E-01  0.11297185475E+03  0.11299962541E+03  0.00000000000E+00 0. -1.
<mgrwt>
<rscale>  0 0.80051228E+02</rscale>
<asrwt>0</asrwt>
<pdfrwt beam="1">  1        1 0.57905003E-03 0.80051228E+02</pdfrwt>
<pdfrwt beam="2">  1       -2 0.65483700E-01 0.80051228E+02</pdfrwt>
<totfact> 0.56566250E+04</totfact>
</mgrwt>
</event>
<event>
 8    1  0.1319619E-020  0.8019847E+02  0.7818608E-02  0.1328489E+00
          1   -1    0    0  501    0  0.00000000000E+00  0.00000000000E+00  0.31342756034E+02  0.31342756439E+02  0.50400000000E-02 0. -1.
         -2   -1    0    0    0  501 -0.00000000000E+00 -0.00000000000E+00 -0.51302075667E+02  0.51302075730E+02  0.25500000000E-02 0.  1.
        -24    2    1    2    0    0  0.35527136788E-14  0.35527136788E-14 -0.19959319633E+02  0.82644832169E+02  0.80198465347E+02 0.  0.
         66    2    3    3    0    0  0.16991777265E+02  0.15714378778E+02 -0.43698943077E+02  0.49489997223E+02  0.20000010136E+01 0.  0.
         13    1    3    3    0    0 -0.16991777265E+02 -0.15714378778E+02  0.23739623444E+02  0.33154834946E+02  0.10566000000E+00 0. -1.
         13    1    4    4    0    0  0.71695434213E+01  0.57406721337E+01 -0.18478215392E+02  0.20635243578E+02  0.10566000000E+00 0. -1.
        -13    1    4    4    0    0  0.49743522742E+01  0.47280671853E+01 -0.11766398200E+02  0.13621970874E+02  0.10566000000E+00 0.  1.
        -14    1    4    4    0    0  0.48478815698E+01  0.52456394593E+01 -0.13454329484E+02  0.15232782770E+02  0.00000000000E+00 0.  1.
<mgrwt>
<rscale>  0 0.80198465E+02</rscale>
<asrwt>0</asrwt>
<pdfrwt beam="1">  1        1 0.48219625E-02 0.80198465E+02</pdfrwt>
<pdfrwt beam="2">  1       -2 0.78926271E-02 0.80198465E+02</pdfrwt>
<totfact> 0.12101960E+05</totfact>
</mgrwt>
</event>
<event>
 8    1  0.1319619E-020  0.7028623E+02  0.7818608E-02  0.1359122E+00
          1   -1    0    0  501    0  0.00000000000E+00  0.00000000000E+00  0.69440881778E+02  0.69440881961E+02  0.50400000000E-02 0. -1.
         -2   -1    0    0    0  501 -0.00000000000E+00 -0.00000000000E+00 -0.17785468971E+02  0.17785469154E+02  0.25500000000E-02 0.  1.
        -24    2    1    2    0    0  0.00000000000E+00 -0.17763568394E-14  0.51655412807E+02  0.87226351115E+02  0.70286233763E+02 0.  0.
         66    2    3    3    0    0  0.16858136746E+02  0.97836282410E+01 -0.10399261504E+02  0.22182443453E+02  0.20000003993E+01 0.  0.
         13    1    3    3    0    0 -0.16858136746E+02 -0.97836282410E+01  0.62054674311E+02  0.65043907662E+02  0.10566000000E+00 0. -1.
         13    1    4    4    0    0  0.94470672679E+00  0.10279495959E+01 -0.49431217775E+00  0.14848096632E+01  0.10566000000E+00 0. -1.
        -13    1    4    4    0    0  0.66735736448E+01  0.36308090697E+01 -0.44778513295E+01  0.88193920572E+01  0.10566000000E+00 0.  1.
        -14    1    4    4    0    0  0.92398563741E+01  0.51248695754E+01 -0.54270979972E+01  0.11878241732E+02  0.00000000000E+00 0.  1.
<mgrwt>
<rscale>  0 0.70286234E+02</rscale>
<asrwt>0</asrwt>
<pdfrwt beam="1">  1        1 0.10683213E-01 0.70286234E+02</pdfrwt>
<pdfrwt beam="2">  1       -2 0.27362260E-02 0.70286234E+02</pdfrwt>
<totfact> 0.19673826E+05</totfact>
</mgrwt>
</event>
<event>
 8    1  0.1319619E-020  0.8065563E+02  0.7818608E-02  0.1327201E+00
          1   -1    0    0  501    0  0.00000000000E+00  0.00000000000E+00  0.22474355357E+02  0.22474355922E+02  0.50400000000E-02 0. -1.
         -2   -1    0    0    0  501 -0.00000000000E+00 -0.00000000000E+00 -0.72363920692E+02  0.72363920737E+02  0.25500000000E-02 0.  1.
        -24    2    1    2    0    0 -0.35527136788E-14 -0.35527136788E-14 -0.49889565335E+02  0.94838276659E+02  0.80655625906E+02 0.  0.
         66    2    3    3    0    0  0.23203926918E+02 -0.28935719649E+02 -0.43500740765E+02  0.57201508208E+02  0.19999995306E+01 0.  0.
         13    1    3    3    0    0 -0.23203926918E+02  0.28935719649E+02 -0.63888245700E+01  0.37636768451E+02  0.10566000000E+00 0. -1.
         13    1    4    4    0    0  0.92330839036E+01 -0.10720792473E+02 -0.17440152681E+02  0.22457856514E+02  0.10566000000E+00 0. -1.
        -13    1    4    4    0    0  0.10887943017E+02 -0.14094412599E+02 -0.20824522815E+02  0.27402037956E+02  0.10566000000E+00 0.  1.
         14    1    4    4    0    0  0.30828999976E+01 -0.41205145767E+01 -0.52360652694E+01  0.73416137380E+01  0.00000000000E+00 0. -1.
<mgrwt>
<rscale>  0 0.80655626E+02</rscale>
<asrwt>0</asrwt>
<pdfrwt beam="1">  1        1 0.34575932E-02 0.80655626E+02</pdfrwt>
<pdfrwt beam="2">  1       -2 0.11132911E-01 0.80655626E+02</pdfrwt>
<totfact> 0.11179630E+05</totfact>
</mgrwt>
</event>
<event>
 8    1  0.1319619E-020  0.8141652E+02  0.7818608E-02  0.1325079E+00
         -2   -1    0    0    0  501 -0.00000000000E+00  0.00000000000E+00  0.40441919510E+02  0.40441919591E+02  0.25500000000E-02 0.  1.
          1   -1    0    0  501    0  0.00000000000E+00 -0.00000000000E+00 -0.40976358181E+02  0.40976358491E+02  0.50400000000E-02 0. -1.
        -24    2    1    2    0    0  0.35527136788E-14  0.00000000000E+00 -0.53443867054E+00  0.81418278082E+02  0.81416524005E+02 0.  0.
         66    2    3    3    0    0 -0.15071122776E+02  0.27429931449E+02  0.25725827516E+02  0.40563013730E+02  0.20000001123E+01 0.  0.
         13    1    3    3    0    0  0.15071122776E+02 -0.27429931449E+02 -0.26260266186E+02  0.40855264352E+02  0.10566000000E+00 0. -1.
         13    1    4    4    0    0 -0.18848456069E+00  0.37754284591E+00  0.20093122782E+00  0.47916847145E+00  0.10566000000E+00 0. -1.
        -13    1    4    4    0    0 -0.14216031372E+02  0.25146406377E+02  0.23893230629E+02  0.37487797155E+02  0.10566000000E+00 0.  1.
        -14    1    4    4    0    0 -0.66660684335E+00  0.19059822264E+01  0.16316656588E+01  0.25960481031E+01  0.00000000000E+00 0.  1.
<mgrwt>
<rscale>  0 0.81416524E+02</rscale>
<asrwt>0</asrwt>
<pdfrwt beam="1">  1        1 0.63040552E-02 0.81416524E+02</pdfrwt>
<pdfrwt beam="2">  1       -2 0.62218337E-02 0.81416524E+02</pdfrwt>
<totfact> 0.12132116E+05</totfact>
</mgrwt>
</event>
<event>
 8    1  0.1319619E-020  0.8311293E+02  0.7818608E-02  0.1320443E+00
         -2   -1    0    0    0  501 -0.00000000000E+00  0.00000000000E+00  0.49708617009E+01  0.49708623550E+01  0.25500000000E-02 0.  1.
          1   -1    0    0  501    0  0.00000000000E+00 -0.00000000000E+00 -0.34741253097E+03  0.34741253100E+03  0.50400000000E-02 0. -1.
        -24    2    1    2    0    0 -0.44408920985E-15  0.00000000000E+00 -0.34244166927E+03  0.35238339336E+03  0.83112929591E+02 0.  0.
         66    2    3    3    0    0 -0.20956754815E+01 -0.39530253329E+02 -0.11804259804E+03  0.12451942710E+03  0.19999978396E+01 0.  0.
         13    1    3    3    0    0  0.20956754815E+01  0.39530253329E+02 -0.22439907123E+03  0.22786396625E+03  0.10566000000E+00 0. -1.
         13    1    4    4    0    0 -0.52247225919E+00 -0.16076734908E+02 -0.50042550421E+02  0.52564269226E+02  0.10566000000E+00 0. -1.
        -13    1    4    4    0    0 -0.93422740657E+00 -0.12966776302E+02 -0.39090897786E+02  0.41196110523E+02  0.10566000000E+00 0.  1.
        -14    1    4    4    0    0 -0.63897581580E+00 -0.10486742120E+02 -0.28909149828E+02  0.30759047355E+02  0.00000000000E+00 0.  1.
<mgrwt>
<rscale>  0 0.83112930E+02</rscale>
<asrwt>0</asrwt>
<pdfrwt beam="1">  1        1 0.53448063E-01 0.83112930E+02</pdfrwt>
<pdfrwt beam="2">  1       -2 0.76474828E-03 0.83112930E+02</pdfrwt>
<totfact> 0.16763932E+05</totfact>
</mgrwt>
</event>
<event>
 8    1  0.1319619E-020  0.8089329E+02  0.7818608E-02  0.1326535E+00
         -2   -1    0    0    0  501 -0.00000000000E+00  0.00000000000E+00  0.85711984318E+03  0.85711984319E+03  0.25500000000E-02 0.  1.
          1   -1    0    0  501    0  0.00000000000E+00 -0.00000000000E+00 -0.19086341056E+01  0.19086407600E+01  0.50400000000E-02 0. -1.
        -24    2    1    2    0    0  0.35527136788E-14  0.35527136788E-14  0.85521120908E+03  0.85902848395E+03  0.80893288352E+02 0.  0.
         66    2    3    3    0    0  0.27992876046E+02  0.20654627690E+02  0.64645616114E+03  0.64739461152E+03  0.19999992957E+01 0.  0.
         13    1    3    3    0    0 -0.27992876046E+02 -0.20654627690E+02  0.20875504794E+03  0.21163387243E+03  0.10566000000E+00 0. -1.
         13    1    4    4    0    0  0.70608118672E+01  0.47922465783E+01  0.17314269686E+03  0.17335289248E+03  0.10566000000E+00 0. -1.
        -13    1    4    4    0    0  0.14946655083E+02  0.11491976461E+02  0.34153614269E+03  0.34205615905E+03  0.10566000000E+00 0.  1.
         14    1    4    4    0    0  0.59854090957E+01  0.43704046506E+01  0.13177732159E+03  0.13198555998E+03  0.00000000000E+00 0. -1.
<mgrwt>
<rscale>  0 0.80893288E+02</rscale>
<asrwt>0</asrwt>
<pdfrwt beam="1">  1        1 0.29363687E-03 0.80893288E+02</pdfrwt>
<pdfrwt beam="2">  1       -2 0.13186444E+00 0.80893288E+02</pdfrwt>
<totfact> 0.30063608E+04</totfact>
</mgrwt>
</event>
<event>
 8    1  0.1319619E-020  0.8015962E+02  0.7818608E-02  0.1328599E+00
         -2   -1    0    0    0  501 -0.00000000000E+00  0.00000000000E+00  0.28893627081E+02  0.28893627193E+02  0.25500000000E-02 0.  1.
          1   -1    0    0  501    0  0.00000000000E+00 -0.00000000000E+00 -0.55596735520E+02  0.55596735748E+02  0.50400000000E-02 0. -1.
        -24    2    1    2    0    0  0.00000000000E+00  0.00000000000E+00 -0.26703108439E+02  0.84490362942E+02  0.80159624685E+02 0.  0.
         66    2    3    3    0    0  0.35869916889E+02  0.72872092032E+01 -0.30506233059E+02  0.47690508642E+02  0.20000008829E+01 0.  0.
         13    1    3    3    0    0 -0.35869916889E+02 -0.72872092032E+01  0.38031246196E+01  0.36799854300E+02  0.10566000000E+00 0. -1.
         13    1    4    4    0    0  0.22892680578E+01  0.23334201084E+00 -0.20367119007E+01  0.30748261961E+01  0.10566000000E+00 0. -1.
        -13    1    4    4    0    0  0.19092536812E+02  0.34820091917E+01 -0.16886178243E+02  0.25725542358E+02  0.10566000000E+00 0.  1.
         14    1    4    4    0    0  0.14488112019E+02  0.35718580006E+01 -0.11583342915E+02  0.18890140088E+02  0.00000000000E+00 0. -1.
<mgrwt>
<rscale>  0 0.80159625E+02</rscale>
<asrwt>0</asrwt>
<pdfrwt beam="1">  1        1 0.85533440E-02 0.80159625E+02</pdfrwt>
<pdfrwt beam="2">  1       -2 0.44451734E-02 0.80159625E+02</pdfrwt>
<totfact> 0.13304300E+05</totfact>
</mgrwt>
</event>
<event>
 8    1  0.1319619E-020  0.7909772E+02  0.7818608E-02  0.1331632E+00
          1   -1    0    0  501    0  0.00000000000E+00  0.00000000000E+00  0.20261674013E+02  0.20261674640E+02  0.50400000000E-02 0. -1.
         -2   -1    0    0    0  501 -0.00000000000E+00 -0.00000000000E+00 -0.77195603492E+02  0.77195603534E+02  0.25500000000E-02 0.  1.
        -24    2    1    2    0    0  0.00000000000E+00  0.00000000000E+00 -0.56933929478E+02  0.97457278174E+02  0.79097716423E+02 0.  0.
         66    2    3    3    0    0  0.37878171738E+00 -0.35093557338E+02 -0.60889161857E+01  0.35675988264E+02  0.19999990217E+01 0.  0.
         13    1    3    3    0    0 -0.37878171738E+00  0.35093557338E+02 -0.50845013293E+02  0.61781289910E+02  0.10566000000E+00 0. -1.
         13    1    4    4    0    0 -0.46979008714E+00 -0.44822956666E+01 -0.11043760821E+01  0.46413885568E+01  0.10566000000E+00 0. -1.
        -13    1    4    4    0    0  0.13700118325E+00 -0.97371801874E+01 -0.12815915201E+01  0.98226823315E+01  0.10566000000E+00 0.  1.
         14    1    4    4    0    0  0.71157062127E+00 -0.20874081484E+02 -0.37029485836E+01  0.21211917376E+02  0.00000000000E+00 0. -1.
<mgrwt>
<rscale>  0 0.79097716E+02</rscale>
<asrwt>0</asrwt>
<pdfrwt beam="1">  1        1 0.31171807E-02 0.79097716E+02</pdfrwt>
<pdfrwt beam="2">  1       -2 0.11876247E-01 0.79097716E+02</pdfrwt>
<totfact> 0.11591567E+05</totfact>
</mgrwt>
</event>
<event>
 8    1  0.1319619E-020  0.7398600E+02  0.7818608E-02  0.1347040E+00
          1   -1    0    0  501    0  0.00000000000E+00  0.00000000000E+00  0.28374091108E+01  0.28374135870E+01  0.50400000000E-02 0. -1.
         -2   -1    0    0    0  501 -0.00000000000E+00 -0.00000000000E+00 -0.48229943547E+03  0.48229943547E+03  0.25500000000E-02 0.  1.
        -24    2    1    2    0    0  0.88817841970E-15  0.00000000000E+00 -0.47946202636E+03  0.48513684906E+03  0.73985995965E+02 0.  0.
         66    2    3    3    0    0  0.61088352513E+01 -0.26773756391E+02 -0.40216357989E+03  0.40310506930E+03  0.20000030154E+01 0.  0.
         13    1    3    3    0    0 -0.61088352513E+01  0.26773756391E+02 -0.77298446470E+02  0.82031779757E+02  0.10566000000E+00 0. -1.
         13    1    4    4    0    0  0.76005855175E+00 -0.26259726474E+01 -0.35105677896E+02  0.35212117316E+02  0.10566000000E+00 0. -1.
        -13    1    4    4    0    0  0.48767828182E+01 -0.19933431457E+02 -0.30823713652E+03  0.30891951734E+03  0.10566000000E+00 0.  1.
         14    1    4    4    0    0  0.47199388141E+00 -0.42143522859E+01 -0.58820765475E+02  0.58973434651E+02  0.00000000000E+00 0. -1.
<mgrwt>
<rscale>  0 0.73985996E+02</rscale>
<asrwt>0</asrwt>
<pdfrwt beam="1">  1        1 0.43652521E-03 0.73985996E+02</pdfrwt>
<pdfrwt beam="2">  1       -2 0.74199848E-01 0.73985996E+02</pdfrwt>
<totfact> 0.63325212E+04</totfact>
</mgrwt>
</event>
<event>
 8    1  0.1319619E-020  0.7863612E+02  0.7818608E-02  0.1332967E+00
          1   -1    0    0  501    0  0.00000000000E+00  0.00000000000E+00  0.12077290675E+03  0.12077290685E+03  0.50400000000E-02 0. -1.
         -2   -1    0    0    0  501 -0.00000000000E+00 -0.00000000000E+00 -0.12800137652E+02  0.12800137906E+02  0.25500000000E-02 0.  1.
        -24    2    1    2    0    0  0.00000000000E+00 -0.88817841970E-15  0.10797276910E+03  0.13357304476E+03  0.78636120325E+02 0.  0.
         66    2    3    3    0    0  0.34973086657E+02  0.63506424746E+01  0.82467801626E+02  0.89824193575E+02  0.19999990581E+01 0.  0.
         13    1    3    3    0    0 -0.34973086657E+02 -0.63506424746E+01  0.25504967471E+02  0.43748851184E+02  0.10566000000E+00 0. -1.
         13    1    4    4    0    0  0.32822144803E+01  0.82052656720E+00  0.83694422620E+01  0.90280077290E+01  0.10566000000E+00 0. -1.
        -13    1    4    4    0    0  0.38913553216E+01  0.37185250610E+00  0.80050787612E+01  0.89091733923E+01  0.10566000000E+00 0.  1.
        -14    1    4    4    0    0  0.27799516856E+02  0.51582634013E+01  0.66093280603E+02  0.71887012454E+02  0.00000000000E+00 0.  1.
<mgrwt>
<rscale>  0 0.78636120E+02</rscale>
<asrwt>0</asrwt>
<pdfrwt beam="1">  1        1 0.18580447E-01 0.78636120E+02</pdfrwt>
<pdfrwt beam="2">  1       -2 0.19692520E-02 0.78636120E+02</pdfrwt>
<totfact> 0.15900771E+05</totfact>
</mgrwt>
</event>
<event>
 8    1  0.1319619E-020  0.8023367E+02  0.7818608E-02  0.1328390E+00
         -2   -1    0    0    0  501 -0.00000000000E+00  0.00000000000E+00  0.95332827635E+01  0.95332831045E+01  0.25500000000E-02 0.  1.
          1   -1    0    0  501    0  0.00000000000E+00 -0.00000000000E+00 -0.16881491385E+03  0.16881491392E+03  0.50400000000E-02 0. -1.
        -24    2    1    2    0    0  0.00000000000E+00  0.00000000000E+00 -0.15928163109E+03  0.17834819703E+03  0.80233667385E+02 0.  0.
         66    2    3    3    0    0 -0.33295791977E+02  0.21026949910E+02 -0.96415318332E+02  0.10416648210E+03  0.19999997321E+01 0.  0.
         13    1    3    3    0    0  0.33295791977E+02 -0.21026949910E+02 -0.62866312754E+02  0.74181714925E+02  0.10566000000E+00 0. -1.
         13    1    4    4    0    0 -0.56026067411E+01  0.42390076164E+01 -0.16876830661E+02  0.18281054812E+02  0.10566000000E+00 0. -1.
        -13    1    4    4    0    0 -0.10485695043E+02  0.68535628655E+01 -0.29945889634E+02  0.32460569842E+02  0.10566000000E+00 0.  1.
         14    1    4    4    0    0 -0.17207490193E+02  0.99343794282E+01 -0.49592598037E+02  0.53424857449E+02  0.00000000000E+00 0. -1.
<mgrwt>
<rscale>  0 0.80233667E+02</rscale>
<asrwt>0</asrwt>
<pdfrwt beam="1">  1        1 0.25971523E-01 0.80233667E+02</pdfrwt>
<pdfrwt beam="2">  1       -2 0.14666590E-02 0.80233667E+02</pdfrwt>
<totfact> 0.16015529E+05</totfact>
</mgrwt>
</event>
<event>
 8    1  0.1319619E-020  0.7953092E+02  0.7818608E-02  0.1330388E+00
         -2   -1    0    0    0  501 -0.00000000000E+00  0.00000000000E+00  0.14649348723E+03  0.14649348725E+03  0.25500000000E-02 0.  1.
          1   -1    0    0  501    0  0.00000000000E+00 -0.00000000000E+00 -0.10794280020E+02  0.10794281196E+02  0.50400000000E-02 0. -1.
        -24    2    1    2    0    0  0.00000000000E+00 -0.35527136788E-14  0.13569920721E+03  0.15728776845E+03  0.79530920189E+02 0.  0.
         66    2    3    3    0    0  0.14894380021E+02 -0.30566658002E+02  0.10857348642E+03  0.11379088316E+03  0.19999997011E+01 0.  0.
         13    1    3    3    0    0 -0.14894380021E+02  0.30566658002E+02  0.27125720793E+02  0.43496885293E+02  0.10566000000E+00 0. -1.
         13    1    4    4    0    0  0.40675527267E+00 -0.70463531001E+00  0.23617399801E+01  0.25001881011E+01  0.10566000000E+00 0.  1.
        -13    1    4    4    0    0  0.42601216742E+01 -0.10668547893E+02  0.36923261298E+02  0.38669172990E+02  0.10566000000E+00 0.  1.
        -14    1    4    4    0    0  0.10227503074E+02 -0.19193474800E+02  0.69288485140E+02  0.72621522064E+02  0.00000000000E+00 0.  1.
<mgrwt>
<rscale>  0 0.79530920E+02</rscale>
<asrwt>0</asrwt>
<pdfrwt beam="1">  1        1 0.16606588E-02 0.79530920E+02</pdfrwt>
<pdfrwt beam="2">  1       -2 0.22537457E-01 0.79530920E+02</pdfrwt>
<totfact> 0.96693384E+04</totfact>
</mgrwt>
</event>
<event>
 8    1  0.1319619E-020  0.8060223E+02  0.7818608E-02  0.1327351E+00
         -2   -1    0    0    0  501 -0.00000000000E+00  0.00000000000E+00  0.10643104444E+02  0.10643104749E+02  0.25500000000E-02 0.  1.
          1   -1    0    0  501    0  0.00000000000E+00 -0.00000000000E+00 -0.15260396947E+03  0.15260396956E+03  0.50400000000E-02 0. -1.
        -24    2    1    2    0    0  0.00000000000E+00  0.00000000000E+00 -0.14196086503E+03  0.16324707431E+03  0.80602233650E+02 0.  0.
         66    2    3    3    0    0 -0.61236690381E+01 -0.31061133552E+02 -0.20598219455E+02  0.37823008653E+02  0.19999997162E+01 0.  0.
         13    1    3    3    0    0  0.61236690381E+01  0.31061133552E+02 -0.12136264557E+03  0.12542406565E+03  0.10566000000E+00 0. -1.
         13    1    4    4    0    0 -0.38674771147E+01 -0.15770066243E+02 -0.10755890539E+02  0.19476979075E+02  0.10566000000E+00 0. -1.
        -13    1    4    4    0    0 -0.12384962589E+01 -0.11107578646E+02 -0.70935808815E+01  0.13237908827E+02  0.10566000000E+00 0.  1.
        -14    1    4    4    0    0 -0.10176956645E+01 -0.41834886627E+01 -0.27487480351E+01  0.51081207520E+01  0.00000000000E+00 0.  1.
<mgrwt>
<rscale>  0 0.80602234E+02</rscale>
<asrwt>0</asrwt>
<pdfrwt beam="1">  1        1 0.23477532E-01 0.80602234E+02</pdfrwt>
<pdfrwt beam="2">  1       -2 0.16374008E-02 0.80602234E+02</pdfrwt>
<totfact> 0.15524495E+05</totfact>
</mgrwt>
</event>
<event>
 8    1  0.1319619E-020  0.7981633E+02  0.7818608E-02  0.1329573E+00
          1   -1    0    0  501    0  0.00000000000E+00  0.00000000000E+00  0.22636284663E+03  0.22636284668E+03  0.50400000000E-02 0. -1.
         -2   -1    0    0    0  501 -0.00000000000E+00 -0.00000000000E+00 -0.70358790565E+01  0.70358795186E+01  0.25500000000E-02 0.  1.
        -24    2    1    2    0    0  0.00000000000E+00 -0.35527136788E-14  0.21932696757E+03  0.23339872620E+03  0.79816330966E+02 0.  0.
         66    2    3    3    0    0  0.32613931153E+02 -0.19125301497E+02  0.14686036710E+03  0.15166216761E+03  0.19999992059E+01 0.  0.
         13    1    3    3    0    0 -0.32613931153E+02  0.19125301497E+02  0.72466600469E+02  0.81736558590E+02  0.10566000000E+00 0. -1.
         13    1    4    4    0    0  0.64852626800E+01 -0.45675728077E+01  0.29805164399E+02  0.30842832916E+02  0.10566000000E+00 0. -1.
        -13    1    4    4    0    0  0.17755218203E+02 -0.10073487652E+02  0.78384599207E+02  0.80999256069E+02  0.10566000000E+00 0.  1.
        -14    1    4    4    0    0  0.83734502700E+01 -0.44842410369E+01  0.38670603494E+02  0.39820078624E+02  0.00000000000E+00 0.  1.
<mgrwt>
<rscale>  0 0.79816331E+02</rscale>
<asrwt>0</asrwt>
<pdfrwt beam="1">  1        1 0.34825049E-01 0.79816331E+02</pdfrwt>
<pdfrwt beam="2">  1       -2 0.10824431E-02 0.79816331E+02</pdfrwt>
<totfact> 0.17185352E+05</totfact>
</mgrwt>
</event>
<event>
 8    1  0.1319619E-020  0.7716436E+02  0.7818608E-02  0.1337297E+00
          1   -1    0    0  501    0  0.00000000000E+00  0.00000000000E+00  0.11883464846E+02  0.11883465914E+02  0.50400000000E-02 0. -1.
         -2   -1    0    0    0  501 -0.00000000000E+00 -0.00000000000E+00 -0.12526518030E+03  0.12526518033E+03  0.25500000000E-02 0.  1.
        -24    2    1    2    0    0  0.17763568394E-14 -0.71054273576E-14 -0.11338171546E+03  0.13714864624E+03  0.77164355543E+02 0.  0.
         66    2    3    3    0    0 -0.13890025854E+02  0.22452678041E+02 -0.10666985982E+03  0.10990684492E+03  0.19999989024E+01 0.  0.
         13    1    3    3    0    0  0.13890025854E+02 -0.22452678041E+02 -0.67118556361E+01  0.27241801327E+02  0.10566000000E+00 0. -1.
         13    1    4    4    0    0 -0.11171809710E+01  0.12780284622E+01 -0.77757461069E+01  0.79595754677E+01  0.10566000000E+00 0. -1.
        -13    1    4    4    0    0 -0.11290444551E+02  0.18181046118E+02 -0.86903308677E+02  0.89499836866E+02  0.10566000000E+00 0.  1.
         14    1    4    4    0    0 -0.14824003322E+01  0.29936034606E+01 -0.11990805039E+02  0.12447432583E+02  0.00000000000E+00 0. -1.
<mgrwt>
<rscale>  0 0.77164356E+02</rscale>
<asrwt>0</asrwt>
<pdfrwt beam="1">  1        1 0.18282255E-02 0.77164356E+02</pdfrwt>
<pdfrwt beam="2">  1       -2 0.19271565E-01 0.77164356E+02</pdfrwt>
<totfact> 0.10960897E+05</totfact>
</mgrwt>
</event>
<event>
 8    1  0.1319619E-020  0.7974502E+02  0.7818608E-02  0.1329777E+00
          1   -1    0    0  501    0  0.00000000000E+00  0.00000000000E+00  0.88141556008E+02  0.88141556152E+02  0.50400000000E-02 0. -1.
         -2   -1    0    0    0  501 -0.00000000000E+00 -0.00000000000E+00 -0.18037086492E+02  0.18037086672E+02  0.25500000000E-02 0.  1.
        -24    2    1    2    0    0  0.35527136788E-14  0.00000000000E+00  0.70104469516E+02  0.10617864282E+03  0.79745015805E+02 0.  0.
         66    2    3    3    0    0  0.29118551130E+02  0.13575200115E+02  0.36887428324E+01  0.32400353381E+02  0.19999993724E+01 0.  0.
         13    1    3    3    0    0 -0.29118551130E+02 -0.13575200115E+02  0.66415726684E+02  0.73778289443E+02  0.10566000000E+00 0. -1.
         13    1    4    4    0    0  0.77930051415E+01  0.34216701263E+01  0.17132965387E+01  0.86824711145E+01  0.10566000000E+00 0.  1.
        -13    1    4    4    0    0  0.16593618535E+02  0.75532468133E+01  0.17075359523E+01  0.18311923890E+02  0.10566000000E+00 0. -1.
         14    1    4    4    0    0  0.47319274537E+01  0.26002831757E+01  0.26791034148E+00  0.54059583769E+01  0.00000000000E+00 0. -1.
<mgrwt>
<rscale>  0 0.79745016E+02</rscale>
<asrwt>0</asrwt>
<pdfrwt beam="1">  1        1 0.13560240E-01 0.79745016E+02</pdfrwt>
<pdfrwt beam="2">  1       -2 0.27749364E-02 0.79745016E+02</pdfrwt>
<totfact> 0.14519538E+05</totfact>
</mgrwt>
</event>
<event>
 8    1  0.1319619E-020  0.7856097E+02  0.7818608E-02  0.1333185E+00
          1   -1    0    0  501    0  0.00000000000E+00  0.00000000000E+00  0.14644140235E+03  0.14644140243E+03  0.50400000000E-02 0. -1.
         -2   -1    0    0    0  501 -0.00000000000E+00 -0.00000000000E+00 -0.10536341711E+02  0.10536342020E+02  0.25500000000E-02 0.  1.
        -24    2    1    2    0    0 -0.71054273576E-14  0.00000000000E+00  0.13590506063E+03  0.15697774445E+03  0.78560974709E+02 0.  0.
         66    2    3    3    0    0  0.32365174216E+02  0.10911566876E+02  0.29333904931E+02  0.45067114101E+02  0.20000002825E+01 0.  0.
         13    1    3    3    0    0 -0.32365174216E+02 -0.10911566876E+02  0.10657115570E+03  0.11191063035E+03  0.10566000000E+00 0. -1.
         13    1    4    4    0    0  0.76520118326E+01  0.21220657540E+01  0.63949891284E+01  0.10196249219E+02  0.10566000000E+00 0. -1.
        -13    1    4    4    0    0  0.16656670598E+02  0.54038546045E+01  0.15817883894E+02  0.23597943447E+02  0.10566000000E+00 0.  1.
         14    1    4    4    0    0  0.80564917852E+01  0.33856465173E+01  0.71210319091E+01  0.11272921435E+02  0.00000000000E+00 0. -1.
<mgrwt>
<rscale>  0 0.78560975E+02</rscale>
<asrwt>0</asrwt>
<pdfrwt beam="1">  1        1 0.22529445E-01 0.78560975E+02</pdfrwt>
<pdfrwt beam="2">  1       -2 0.16209758E-02 0.78560975E+02</pdfrwt>
<totfact> 0.16499617E+05</totfact>
</mgrwt>
</event>
<event>
 8    1  0.1319619E-020  0.8035692E+02  0.7818608E-02  0.1328042E+00
          1   -1    0    0  501    0  0.00000000000E+00  0.00000000000E+00  0.23452061243E+01  0.23452115400E+01  0.50400000000E-02 0. -1.
         -2   -1    0    0    0  501 -0.00000000000E+00 -0.00000000000E+00 -0.68834328130E+03  0.68834328131E+03  0.25500000000E-02 0.  1.
        -24    2    1    2    0    0  0.00000000000E+00  0.00000000000E+00 -0.68599807518E+03  0.69068849285E+03  0.80356922560E+02 0.  0.
         66    2    3    3    0    0  0.15785285050E+02  0.48755163085E+01 -0.65777363554E+03  0.65798411944E+03  0.19999831045E+01 0.  0.
         13    1    3    3    0    0 -0.15785285050E+02 -0.48755163085E+01 -0.28224439635E+02  0.32704373410E+02  0.10566000000E+00 0. -1.
         13    1    4    4    0    0  0.84800809118E+00  0.15739619264E+00 -0.29502891794E+02  0.29515685314E+02  0.10566000000E+00 0.  1.
        -13    1    4    4    0    0  0.14601483815E+02  0.48713972189E+01 -0.61363976703E+03  0.61383280190E+03  0.10566000000E+00 0.  1.
        -14    1    4    4    0    0  0.33579314387E+00 -0.15327710302E+00 -0.14630976713E+02  0.14635632220E+02  0.00000000000E+00 0.  1.
<mgrwt>
<rscale>  0 0.80356923E+02</rscale>
<asrwt>0</asrwt>
<pdfrwt beam="1">  1        1 0.36080191E-03 0.80356923E+02</pdfrwt>
<pdfrwt beam="2">  1       -2 0.10589881E+00 0.80356923E+02</pdfrwt>
<totfact> 0.38003176E+04</totfact>
</mgrwt>
</event>
<event>
 8    1  0.1319619E-020  0.7980732E+02  0.7818608E-02  0.1329599E+00
          1   -1    0    0  501    0  0.00000000000E+00  0.00000000000E+00  0.78001040485E+02  0.78001040648E+02  0.50400000000E-02 0. -1.
         -2   -1    0    0    0  501 -0.00000000000E+00 -0.00000000000E+00 -0.20413857948E+02  0.20413858108E+02  0.25500000000E-02 0.  1.
        -24    2    1    2    0    0  0.17763568394E-14  0.17763568394E-14  0.57587182537E+02  0.98414898756E+02  0.79807322375E+02 0.  0.
         66    2    3    3    0    0 -0.12369082498E+02 -0.13590136619E+02 -0.14832548025E+02  0.23700010321E+02  0.19999982864E+01 0.  0.
         13    1    3    3    0    0  0.12369082498E+02  0.13590136619E+02  0.72419730562E+02  0.74714888435E+02  0.10566000000E+00 0. -1.
         13    1    4    4    0    0 -0.18119279414E+01 -0.26022273247E+01 -0.20186734539E+01  0.37604356746E+01  0.10566000000E+00 0. -1.
        -13    1    4    4    0    0 -0.53252633175E+01 -0.61061129511E+01 -0.63116847291E+01  0.10270909060E+02  0.10566000000E+00 0.  1.
         14    1    4    4    0    0 -0.52318912396E+01 -0.48817963429E+01 -0.65021898418E+01  0.96686655861E+01  0.00000000000E+00 0. -1.
<mgrwt>
<rscale>  0 0.79807322E+02</rscale>
<asrwt>0</asrwt>
<pdfrwt beam="1">  1        1 0.12000160E-01 0.79807322E+02</pdfrwt>
<pdfrwt beam="2">  1       -2 0.31405935E-02 0.79807322E+02</pdfrwt>
<totfact> 0.14204927E+05</totfact>
</mgrwt>
</event>
<event>
 8    1  0.1319619E-020  0.7951265E+02  0.7818608E-02  0.1330440E+00
          1   -1    0    0  501    0  0.00000000000E+00  0.00000000000E+00  0.68125722418E+02  0.68125722604E+02  0.50400000000E-02 0. -1.
         -2   -1    0    0    0  501 -0.00000000000E+00 -0.00000000000E+00 -0.23200712527E+02  0.23200712667E+02  0.25500000000E-02 0.  1.
        -24    2    1    2    0    0 -0.35527136788E-14  0.00000000000E+00  0.44925009891E+02  0.91326435271E+02  0.79512648464E+02 0.  0.
         66    2    3    3    0    0 -0.29776320546E+02  0.15797992129E+02 -0.16804639314E+01  0.33808723436E+02  0.20000001986E+01 0.  0.
         13    1    3    3    0    0  0.29776320546E+02 -0.15797992129E+02  0.46605473822E+02  0.57517711835E+02  0.10566000000E+00 0. -1.
         13    1    4    4    0    0 -0.42442780505E+01  0.18678549464E+01  0.15480574504E+00  0.46408950780E+01  0.10566000000E+00 0. -1.
        -13    1    4    4    0    0 -0.22382402137E+02  0.12575074310E+02 -0.18394738055E+01  0.25739060730E+02  0.10566000000E+00 0.  1.
        -14    1    4    4    0    0 -0.31496403578E+01  0.13550628727E+01  0.42041290332E-02  0.34287676280E+01  0.00000000000E+00 0.  1.
<mgrwt>
<rscale>  0 0.79512648E+02</rscale>
<asrwt>0</asrwt>
<pdfrwt beam="1">  1        1 0.10480880E-01 0.79512648E+02</pdfrwt>
<pdfrwt beam="2">  1       -2 0.35693404E-02 0.79512648E+02</pdfrwt>
<totfact> 0.14044442E+05</totfact>
</mgrwt>
</event>
<event>
 8    1  0.1319619E-020  0.8022403E+02  0.7818608E-02  0.1328417E+00
          1   -1    0    0  501    0  0.00000000000E+00  0.00000000000E+00  0.37188379637E+02  0.37188379979E+02  0.50400000000E-02 0. -1.
         -2   -1    0    0    0  501 -0.00000000000E+00 -0.00000000000E+00 -0.43265493907E+02  0.43265493982E+02  0.25500000000E-02 0.  1.
        -24    2    1    2    0    0  0.35527136788E-14  0.00000000000E+00 -0.60771142695E+01  0.80453873961E+02  0.80224027058E+02 0.  0.
         66    2    3    3    0    0 -0.25647246105E+02  0.16981283576E+02 -0.28820577472E+02  0.42199181344E+02  0.19999988965E+01 0.  0.
         13    1    3    3    0    0  0.25647246105E+02 -0.16981283576E+02  0.22743463203E+02  0.38254692617E+02  0.10566000000E+00 0. -1.
         13    1    4    4    0    0 -0.60985481685E+00  0.21946836550E+00 -0.83472819156E+00  0.10620849544E+01  0.10566000000E+00 0. -1.
        -13    1    4    4    0    0 -0.10319643804E+02  0.72065891620E+01 -0.11038010059E+02  0.16741529371E+02  0.10566000000E+00 0.  1.
        -14    1    4    4    0    0 -0.14717747485E+02  0.95552260490E+01 -0.16947839221E+02  0.24395567018E+02  0.00000000000E+00 0.  1.
<mgrwt>
<rscale>  0 0.80224027E+02</rscale>
<asrwt>0</asrwt>
<pdfrwt beam="1">  1        1 0.57212892E-02 0.80224027E+02</pdfrwt>
<pdfrwt beam="2">  1       -2 0.66562299E-02 0.80224027E+02</pdfrwt>
<totfact> 0.12447791E+05</totfact>
</mgrwt>
</event>
<event>
 8    1  0.1319619E-020  0.7962211E+02  0.7818608E-02  0.1330127E+00
          1   -1    0    0  501    0  0.00000000000E+00  0.00000000000E+00  0.36413308841E+03  0.36413308844E+03  0.50400000000E-02 0. -1.
         -2   -1    0    0    0  501 -0.00000000000E+00 -0.00000000000E+00 -0.43525846895E+01  0.43525854364E+01  0.25500000000E-02 0.  1.
        -24    2    1    2    0    0 -0.35527136788E-14  0.71054273576E-14  0.35978050372E+03  0.36848567388E+03  0.79622113752E+02 0.  0.
         66    2    3    3    0    0 -0.23905752516E+02  0.31330415064E+02  0.20528200693E+03  0.20904014529E+03  0.20000161181E+01 0.  0.
         13    1    3    3    0    0  0.23905752516E+02 -0.31330415064E+02  0.15449849679E+03  0.15944552858E+03  0.10566000000E+00 0. -1.
         13    1    4    4    0    0 -0.76454162916E+01  0.10966248495E+02  0.66487396656E+02  0.67818110224E+02  0.10566000000E+00 0. -1.
        -13    1    4    4    0    0 -0.39137883291E+01  0.53070398071E+01  0.33976964809E+02  0.34611092330E+02  0.10566000000E+00 0.  1.
         14    1    4    4    0    0 -0.12346547895E+02  0.15057126762E+02  0.10481764546E+03  0.10661094274E+03  0.00000000000E+00 0. -1.
<mgrwt>
<rscale>  0 0.79622114E+02</rscale>
<asrwt>0</asrwt>
<pdfrwt beam="1">  1        1 0.56020469E-01 0.79622114E+02</pdfrwt>
<pdfrwt beam="2">  1       -2 0.66962855E-03 0.79622114E+02</pdfrwt>
<totfact> 0.18927445E+05</totfact>
</mgrwt>
</event>
<event>
 8    1  0.1319619E-020  0.7948995E+02  0.7818608E-02  0.1330505E+00
          1   -1    0    0  501    0  0.00000000000E+00  0.00000000000E+00  0.69464270501E+01  0.69464288785E+01  0.50400000000E-02 0. -1.
         -2   -1    0    0    0  501 -0.00000000000E+00 -0.00000000000E+00 -0.22740650891E+03  0.22740650892E+03  0.25500000000E-02 0.  1.
        -24    2    1    2    0    0  0.35527136788E-14  0.00000000000E+00 -0.22046008186E+03  0.23435293780E+03  0.79489947560E+02 0.  0.
         66    2    3    3    0    0  0.23786505863E+02 -0.29872701068E+02 -0.14252583039E+03  0.14756621736E+03  0.20000112347E+01 0.  0.
         13    1    3    3    0    0 -0.23786505863E+02  0.29872701068E+02 -0.77934251463E+02  0.86786720444E+02  0.10566000000E+00 0. -1.
         13    1    4    4    0    0  0.36861265906E+01 -0.45791799073E+01 -0.20868655936E+02  0.21681060456E+02  0.10566000000E+00 0. -1.
        -13    1    4    4    0    0  0.55687623050E+01 -0.81329687324E+01 -0.35865245690E+02  0.37195205423E+02  0.10566000000E+00 0.  1.
         14    1    4    4    0    0  0.14531616967E+02 -0.17160552429E+02 -0.85791928768E+02  0.88689951477E+02  0.00000000000E+00 0. -1.
<mgrwt>
<rscale>  0 0.79489948E+02</rscale>
<asrwt>0</asrwt>
<pdfrwt beam="1">  1        1 0.10686814E-02 0.79489948E+02</pdfrwt>
<pdfrwt beam="2">  1       -2 0.34985611E-01 0.79489948E+02</pdfrwt>
<totfact> 0.81896549E+04</totfact>
</mgrwt>
</event>
<event>
 8    1  0.1319619E-020  0.7955090E+02  0.7818608E-02  0.1330331E+00
          1   -1    0    0  501    0  0.00000000000E+00  0.00000000000E+00  0.87798853822E+01  0.87798868288E+01  0.50400000000E-02 0. -1.
         -2   -1    0    0    0  501 -0.00000000000E+00 -0.00000000000E+00 -0.18019442865E+03  0.18019442867E+03  0.25500000000E-02 0.  1.
        -24    2    1    2    0    0  0.00000000000E+00  0.00000000000E+00 -0.17141454327E+03  0.18897431550E+03  0.79550903664E+02 0.  0.
         66    2    3    3    0    0 -0.12717873530E+02  0.36695967604E+02 -0.10588223266E+03  0.11279798556E+03  0.20000017692E+01 0.  0.
         13    1    3    3    0    0  0.12717873530E+02 -0.36695967604E+02 -0.65532310606E+02  0.76176329939E+02  0.10566000000E+00 0. -1.
         13    1    4    4    0    0 -0.64732408489E+01  0.20566939699E+02 -0.58768790249E+02  0.62599390788E+02  0.10566000000E+00 0.  1.
        -13    1    4    4    0    0 -0.80434077593E+00  0.16509772457E+01 -0.58151179087E+01  0.60991352074E+01  0.10566000000E+00 0. -1.
         14    1    4    4    0    0 -0.54402919052E+01  0.14478050659E+02 -0.41298324502E+02  0.44099459562E+02  0.00000000000E+00 0. -1.
<mgrwt>
<rscale>  0 0.79550904E+02</rscale>
<asrwt>0</asrwt>
<pdfrwt beam="1">  1        1 0.13507518E-02 0.79550904E+02</pdfrwt>
<pdfrwt beam="2">  1       -2 0.27722217E-01 0.79550904E+02</pdfrwt>
<totfact> 0.89908594E+04</totfact>
</mgrwt>
</event>
<event>
 8    1  0.1319619E-020  0.7541426E+02  0.7818608E-02  0.1342593E+00
          1   -1    0    0  501    0  0.00000000000E+00  0.00000000000E+00  0.11821701146E+03  0.11821701157E+03  0.50400000000E-02 0. -1.
         -2   -1    0    0    0  501 -0.00000000000E+00 -0.00000000000E+00 -0.12027268793E+02  0.12027269063E+02  0.25500000000E-02 0.  1.
        -24    2    1    2    0    0  0.00000000000E+00  0.00000000000E+00  0.10618974267E+03  0.13024428063E+03  0.75414263834E+02 0.  0.
         66    2    3    3    0    0 -0.22903823532E+02 -0.12444109250E+02  0.61391207934E+01  0.26853859949E+02  0.20000006649E+01 0.  0.
         13    1    3    3    0    0  0.22903823532E+02  0.12444109250E+02  0.10005062188E+03  0.10339042069E+03  0.10566000000E+00 0. -1.
         13    1    4    4    0    0 -0.10251578451E+02 -0.55403752595E+01  0.29632608304E+01  0.12024254552E+02  0.10566000000E+00 0. -1.
        -13    1    4    4    0    0 -0.40717068227E+01 -0.22021437845E+01  0.17113481797E+01  0.49364066208E+01  0.10566000000E+00 0.  1.
        -14    1    4    4    0    0 -0.85805382581E+01 -0.47015902062E+01  0.14645117833E+01  0.98931987764E+01  0.00000000000E+00 0.  1.
<mgrwt>
<rscale>  0 0.75414264E+02</rscale>
<asrwt>0</asrwt>
<pdfrwt beam="1">  1        1 0.18187233E-01 0.75414264E+02</pdfrwt>
<pdfrwt beam="2">  1       -2 0.18503490E-02 0.75414264E+02</pdfrwt>
<totfact> 0.17718355E+05</totfact>
</mgrwt>
</event>
<event>
 8    1  0.1319619E-020  0.7713174E+02  0.7818608E-02  0.1337394E+00
         -2   -1    0    0    0  501 -0.00000000000E+00  0.00000000000E+00  0.11632487015E+02  0.11632487295E+02  0.25500000000E-02 0.  1.
          1   -1    0    0  501    0  0.00000000000E+00 -0.00000000000E+00 -0.12785971095E+03  0.12785971104E+03  0.50400000000E-02 0. -1.
        -24    2    1    2    0    0  0.00000000000E+00  0.00000000000E+00 -0.11622722393E+03  0.13949219834E+03  0.77131743238E+02 0.  0.
         66    2    3    3    0    0 -0.35439350715E+02 -0.23318253684E+01 -0.31089367911E+02  0.47243346420E+02  0.19999988091E+01 0.  0.
         13    1    3    3    0    0  0.35439350715E+02  0.23318253684E+01 -0.85137856019E+02  0.92248851919E+02  0.10566000000E+00 0. -1.
         13    1    4    4    0    0 -0.37291819690E+01  0.27018459767E+00 -0.34374473313E+01  0.50800596518E+01  0.10566000000E+00 0. -1.
        -13    1    4    4    0    0 -0.17894600725E+02 -0.12913756672E+01 -0.15055952071E+02  0.23421725876E+02  0.10566000000E+00 0.  1.
         14    1    4    4    0    0 -0.13815568021E+02 -0.13106342989E+01 -0.12595968508E+02  0.18741560892E+02  0.00000000000E+00 0. -1.
<mgrwt>
<rscale>  0 0.77131743E+02</rscale>
<asrwt>0</asrwt>
<pdfrwt beam="1">  1        1 0.19670724E-01 0.77131743E+02</pdfrwt>
<pdfrwt beam="2">  1       -2 0.17896135E-02 0.77131743E+02</pdfrwt>
<totfact> 0.16912326E+05</totfact>
</mgrwt>
</event>
<event>
 8    1  0.1319619E-020  0.8683313E+02  0.7818608E-02  0.1310707E+00
         -2   -1    0    0    0  501 -0.00000000000E+00  0.00000000000E+00  0.16462543615E+03  0.16462543617E+03  0.25500000000E-02 0.  1.
          1   -1    0    0  501    0  0.00000000000E+00 -0.00000000000E+00 -0.11450223305E+02  0.11450224414E+02  0.50400000000E-02 0. -1.
        -24    2    1    2    0    0 -0.88817841970E-15  0.35527136788E-14  0.15317521285E+03  0.17607566059E+03  0.86833129737E+02 0.  0.
         66    2    3    3    0    0 -0.40216413644E+01 -0.31225486327E+02  0.13718239612E+03  0.14076297241E+03  0.19999998792E+01 0.  0.
         13    1    3    3    0    0  0.40216413644E+01  0.31225486327E+02  0.15992816726E+02  0.35312688180E+02  0.10566000000E+00 0. -1.
         13    1    4    4    0    0 -0.90054817065E-01 -0.92182857010E+00  0.30578803943E+01  0.31968225356E+01  0.10566000000E+00 0. -1.
        -13    1    4    4    0    0 -0.13908073800E+01 -0.98599432873E+01  0.41425541288E+02  0.42605627114E+02  0.10566000000E+00 0.  1.
        -14    1    4    4    0    0 -0.25407791674E+01 -0.20443714469E+02  0.92698974439E+02  0.94960522756E+02  0.00000000000E+00 0.  1.
<mgrwt>
<rscale>  0 0.86833130E+02</rscale>
<asrwt>0</asrwt>
<pdfrwt beam="1">  1        1 0.17615730E-02 0.86833130E+02</pdfrwt>
<pdfrwt beam="2">  1       -2 0.25326989E-01 0.86833130E+02</pdfrwt>
<totfact> 0.74106402E+04</totfact>
</mgrwt>
</event>
<event>
 8    1  0.1319619E-020  0.8141480E+02  0.7818608E-02  0.1325084E+00
         -2   -1    0    0    0  501 -0.00000000000E+00  0.00000000000E+00  0.12849574078E+02  0.12849574331E+02  0.25500000000E-02 0.  1.
          1   -1    0    0  501    0  0.00000000000E+00 -0.00000000000E+00 -0.12896086650E+03  0.12896086659E+03  0.50400000000E-02 0. -1.
        -24    2    1    2    0    0  0.00000000000E+00  0.00000000000E+00 -0.11611129242E+03  0.14181044093E+03  0.81414795513E+02 0.  0.
         66    2    3    3    0    0 -0.22594305056E+02 -0.75258764382E+01 -0.63813992888E+00  0.23907084116E+02  0.20000027980E+01 0.  0.
         13    1    3    3    0    0  0.22594305056E+02  0.75258764382E+01 -0.11547315249E+03  0.11790335681E+03  0.10566000000E+00 0. -1.
         13    1    4    4    0    0 -0.10237814279E+02 -0.28016084455E+01 -0.95062192397E+00  0.10657236845E+02  0.10566000000E+00 0. -1.
        -13    1    4    4    0    0 -0.75363138072E+01 -0.30708491527E+01 -0.78388211960E-01  0.81390078675E+01  0.10566000000E+00 0.  1.
         14    1    4    4    0    0 -0.48201769703E+01 -0.16534188400E+01  0.39087020705E+00  0.51108394031E+01  0.00000000000E+00 0. -1.
<mgrwt>
<rscale>  0 0.81414796E+02</rscale>
<asrwt>0</asrwt>
<pdfrwt beam="1">  1        1 0.19840132E-01 0.81414796E+02</pdfrwt>
<pdfrwt beam="2">  1       -2 0.19768577E-02 0.81414796E+02</pdfrwt>
<totfact> 0.14654697E+05</totfact>
</mgrwt>
</event>
<event>
 8    1  0.1319619E-020  0.7961925E+02  0.7818608E-02  0.1330135E+00
         -2   -1    0    0    0  501 -0.00000000000E+00  0.00000000000E+00  0.18630792743E+02  0.18630792918E+02  0.25500000000E-02 0.  1.
          1   -1    0    0  501    0  0.00000000000E+00 -0.00000000000E+00 -0.85063800438E+02  0.85063800587E+02  0.50400000000E-02 0. -1.
        -24    2    1    2    0    0  0.00000000000E+00 -0.35527136788E-14 -0.66433007694E+02  0.10369459350E+03  0.79619245228E+02 0.  0.
         66    2    3    3    0    0 -0.26712181082E+02  0.29105672291E+02 -0.39362794195E+02  0.55804214506E+02  0.20000030298E+01 0.  0.
         13    1    3    3    0    0  0.26712181082E+02 -0.29105672291E+02 -0.27070213499E+02  0.47890378998E+02  0.10566000000E+00 0. -1.
         13    1    4    4    0    0 -0.42621260235E+01  0.54978323066E+01 -0.74966243553E+01  0.10227532404E+02  0.10566000000E+00 0. -1.
        -13    1    4    4    0    0 -0.94928177820E+01  0.96869212078E+01 -0.13610031840E+02  0.19214425899E+02  0.10566000000E+00 0.  1.
         14    1    4    4    0    0 -0.12957237277E+02  0.13920918776E+02 -0.18256138000E+02  0.26362256203E+02  0.00000000000E+00 0. -1.
<mgrwt>
<rscale>  0 0.79619245E+02</rscale>
<asrwt>0</asrwt>
<pdfrwt beam="1">  1        1 0.13086738E-01 0.79619245E+02</pdfrwt>
<pdfrwt beam="2">  1       -2 0.28662759E-02 0.79619245E+02</pdfrwt>
<totfact> 0.14497633E+05</totfact>
</mgrwt>
</event>
<event>
 8    1  0.1319619E-020  0.7878737E+02  0.7818608E-02  0.1332528E+00
         -2   -1    0    0    0  501 -0.00000000000E+00  0.00000000000E+00  0.11959644468E+02  0.11959644740E+02  0.25500000000E-02 0.  1.
          1   -1    0    0  501    0  0.00000000000E+00 -0.00000000000E+00 -0.12975823208E+03  0.12975823218E+03  0.50400000000E-02 0. -1.
        -24    2    1    2    0    0  0.00000000000E+00  0.00000000000E+00 -0.11779858762E+03  0.14171787692E+03  0.78787368244E+02 0.  0.
         66    2    3    3    0    0 -0.38091700291E+02 -0.63772386426E+01 -0.45213508925E+02  0.59497127616E+02  0.20000003703E+01 0.  0.
         13    1    3    3    0    0  0.38091700291E+02  0.63772386426E+01 -0.72585078692E+02  0.82220749306E+02  0.10566000000E+00 0. -1.
         13    1    4    4    0    0 -0.78243905998E+01 -0.17400538979E+01 -0.98986284778E+01  0.12737459935E+02  0.10566000000E+00 0. -1.
        -13    1    4    4    0    0 -0.27301068761E+02 -0.40378640499E+01 -0.32355728316E+02  0.42527132756E+02  0.10566000000E+00 0.  1.
         14    1    4    4    0    0 -0.29662409300E+01 -0.59932069483E+00 -0.29591521317E+01  0.42325349246E+01  0.00000000000E+00 0. -1.
<mgrwt>
<rscale>  0 0.78787368E+02</rscale>
<asrwt>0</asrwt>
<pdfrwt beam="1">  1        1 0.19962804E-01 0.78787368E+02</pdfrwt>
<pdfrwt beam="2">  1       -2 0.18399454E-02 0.78787368E+02</pdfrwt>
<totfact> 0.16020347E+05</totfact>
</mgrwt>
</event>
<event>
 8    1  0.1319619E-020  0.8196429E+02  0.7818608E-02  0.1323568E+00
         -2   -1    0    0    0  501 -0.00000000000E+00  0.00000000000E+00  0.99948623267E+01  0.99948626520E+01  0.25500000000E-02 0.  1.
          1   -1    0    0  501    0  0.00000000000E+00 -0.00000000000E+00 -0.16803996254E+03  0.16803996261E+03  0.50400000000E-02 0. -1.
        -24    2    1    2    0    0  0.00000000000E+00 -0.88817841970E-15 -0.15804510021E+03  0.17803482526E+03  0.81964292875E+02 0.  0.
         66    2    3    3    0    0  0.40516012960E+02  0.46696004615E+01 -0.70890453536E+02  0.81809589097E+02  0.19999977197E+01 0.  0.
         13    1    3    3    0    0 -0.40516012960E+02 -0.46696004615E+01 -0.87154646673E+02  0.96225236167E+02  0.10566000000E+00 0. -1.
         13    1    4    4    0    0  0.28702099727E+01  0.58177242441E+00 -0.47258571557E+01  0.55607062801E+01  0.10566000000E+00 0. -1.
        -13    1    4    4    0    0  0.23949959245E+02  0.32959263298E+01 -0.41855252240E+02  0.48335669875E+02  0.10566000000E+00 0.  1.
         14    1    4    4    0    0  0.13695843743E+02  0.79190170731E+00 -0.24309344141E+02  0.27913212941E+02  0.00000000000E+00 0. -1.
<mgrwt>
<rscale>  0 0.81964293E+02</rscale>
<asrwt>0</asrwt>
<pdfrwt beam="1">  1        1 0.25852300E-01 0.81964293E+02</pdfrwt>
<pdfrwt beam="2">  1       -2 0.15376713E-02 0.81964293E+02</pdfrwt>
<totfact> 0.15115606E+05</totfact>
</mgrwt>
</event>
<event>
 8    1  0.1319619E-020  0.8322601E+02  0.7818608E-02  0.1320138E+00
         -2   -1    0    0    0  501 -0.00000000000E+00  0.00000000000E+00  0.96335360174E+01  0.96335363548E+01  0.25500000000E-02 0.  1.
          1   -1    0    0  501    0  0.00000000000E+00 -0.00000000000E+00 -0.17975147651E+03  0.17975147658E+03  0.50400000000E-02 0. -1.
        -24    2    1    2    0    0  0.00000000000E+00  0.71054273576E-14 -0.17011794049E+03  0.18938501293E+03  0.83226014244E+02 0.  0.
         66    2    3    3    0    0  0.53538589284E+01 -0.32666338365E+02 -0.27816298793E+02  0.43283945650E+02  0.20000012038E+01 0.  0.
         13    1    3    3    0    0 -0.53538589284E+01  0.32666338365E+02 -0.14230164170E+03  0.14610106728E+03  0.10566000000E+00 0. -1.
         13    1    4    4    0    0  0.13211047679E+01 -0.99739687117E+01 -0.94446419708E+01  0.13799920132E+02  0.10566000000E+00 0. -1.
        -13    1    4    4    0    0  0.82581747071E+00 -0.60410962031E+01 -0.51346537104E+01  0.79719916327E+01  0.10566000000E+00 0.  1.
        -14    1    4    4    0    0  0.32069366898E+01 -0.16651273451E+02 -0.13237003112E+02  0.21512033884E+02  0.00000000000E+00 0.  1.
<mgrwt>
<rscale>  0 0.83226014E+02</rscale>
<asrwt>0</asrwt>
<pdfrwt beam="1">  1        1 0.27654071E-01 0.83226014E+02</pdfrwt>
<pdfrwt beam="2">  1       -2 0.14820826E-02 0.83226014E+02</pdfrwt>
<totfact> 0.14699522E+05</totfact>
</mgrwt>
</event>
<event>
 8    1  0.1319619E-020  0.7830194E+02  0.7818608E-02  0.1333941E+00
          1   -1    0    0  501    0  0.00000000000E+00  0.00000000000E+00  0.24937681054E+02  0.24937681563E+02  0.50400000000E-02 0. -1.
         -2   -1    0    0    0  501 -0.00000000000E+00 -0.00000000000E+00 -0.61465152198E+02  0.61465152251E+02  0.25500000000E-02 0.  1.
        -24    2    1    2    0    0  0.00000000000E+00  0.00000000000E+00 -0.36527471144E+02  0.86402833814E+02  0.78301938309E+02 0.  0.
         66    2    3    3    0    0  0.25866588161E+02 -0.10343478883E+02 -0.48590088328E+02  0.56045201563E+02  0.19999989937E+01 0.  0.
         13    1    3    3    0    0 -0.25866588161E+02  0.10343478883E+02  0.12062617184E+02  0.30357632251E+02  0.10566000000E+00 0. -1.
         13    1    4    4    0    0  0.39947655528E+01 -0.13045200390E+01 -0.62715795418E+01  0.75500859822E+01  0.10566000000E+00 0. -1.
        -13    1    4    4    0    0  0.93001300315E+01 -0.35542018626E+01 -0.17072676920E+02  0.19763912334E+02  0.10566000000E+00 0.  1.
         14    1    4    4    0    0  0.12571692577E+02 -0.54847569815E+01 -0.25245831866E+02  0.28731203247E+02  0.00000000000E+00 0. -1.
<mgrwt>
<rscale>  0 0.78301938E+02</rscale>
<asrwt>0</asrwt>
<pdfrwt beam="1">  1        1 0.38365664E-02 0.78301938E+02</pdfrwt>
<pdfrwt beam="2">  1       -2 0.94561772E-02 0.78301938E+02</pdfrwt>
<totfact> 0.12443035E+05</totfact>
</mgrwt>
</event>
<event>
 8    1  0.1319619E-020  0.7781213E+02  0.7818608E-02  0.1335377E+00
         -2   -1    0    0    0  501 -0.00000000000E+00  0.00000000000E+00  0.46250230244E+03  0.46250230244E+03  0.25500000000E-02 0.  1.
          1   -1    0    0  501    0  0.00000000000E+00 -0.00000000000E+00 -0.32728074277E+01  0.32728113084E+01  0.50400000000E-02 0. -1.
        -24    2    1    2    0    0 -0.71054273576E-14  0.00000000000E+00  0.45922949501E+03  0.46577511375E+03  0.77812129546E+02 0.  0.
         66    2    3    3    0    0  0.30287337163E+02  0.43614281489E+01  0.37334414393E+03  0.37460138101E+03  0.20000001477E+01 0.  0.
         13    1    3    3    0    0 -0.30287337163E+02 -0.43614281489E+01  0.85885351081E+02  0.91173732743E+02  0.10566000000E+00 0. -1.
         13    1    4    4    0    0  0.10142488136E+02  0.16226957275E+01  0.11780642490E+03  0.11825340637E+03  0.10566000000E+00 0. -1.
        -13    1    4    4    0    0  0.11037697984E+02  0.18875779045E+01  0.13492883873E+03  0.13539274874E+03  0.10566000000E+00 0.  1.
         14    1    4    4    0    0  0.91071510436E+01  0.85115451686E+00  0.12060888030E+03  0.12095522590E+03  0.00000000000E+00 0. -1.
<mgrwt>
<rscale>  0 0.77812130E+02</rscale>
<asrwt>0</asrwt>
<pdfrwt beam="1">  1        1 0.50350880E-03 0.77812130E+02</pdfrwt>
<pdfrwt beam="2">  1       -2 0.71154248E-01 0.77812130E+02</pdfrwt>
<totfact> 0.57377385E+04</totfact>
</mgrwt>
</event>
<event>
 8    1  0.1319619E-020  0.7864931E+02  0.7818608E-02  0.1332929E+00
          1   -1    0    0  501    0  0.00000000000E+00  0.00000000000E+00  0.99865242730E+01  0.99865255448E+01  0.50400000000E-02 0. -1.
         -2   -1    0    0    0  501 -0.00000000000E+00 -0.00000000000E+00 -0.15485151808E+03  0.15485151810E+03  0.25500000000E-02 0.  1.
        -24    2    1    2    0    0  0.00000000000E+00  0.35527136788E-14 -0.14486499381E+03  0.16483804365E+03  0.78649311519E+02 0.  0.
         66    2    3    3    0    0 -0.13974206271E+02 -0.27112075527E+02 -0.12441600513E+03  0.12811590615E+03  0.19999990914E+01 0.  0.
         13    1    3    3    0    0  0.13974206271E+02  0.27112075527E+02 -0.20448988681E+02  0.36722137498E+02  0.10566000000E+00 0. -1.
         13    1    4    4    0    0 -0.76178344928E+01 -0.13293738425E+02 -0.60417014933E+02  0.62329621699E+02  0.10566000000E+00 0. -1.
        -13    1    4    4    0    0 -0.81792376716E+00 -0.23818557327E+01 -0.10132787009E+02  0.10441588606E+02  0.10566000000E+00 0.  1.
        -14    1    4    4    0    0 -0.55384480111E+01 -0.11436481369E+02 -0.53866203188E+02  0.55344695846E+02  0.00000000000E+00 0.  1.
<mgrwt>
<rscale>  0 0.78649312E+02</rscale>
<asrwt>0</asrwt>
<pdfrwt beam="1">  1        1 0.15363886E-02 0.78649312E+02</pdfrwt>
<pdfrwt beam="2">  1       -2 0.23823309E-01 0.78649312E+02</pdfrwt>
<totfact> 0.97704314E+04</totfact>
</mgrwt>
</event>
<event>
 8    1  0.1319619E-020  0.8112964E+02  0.7818608E-02  0.1325876E+00
          1   -1    0    0  501    0  0.00000000000E+00  0.00000000000E+00  0.12292906692E+02  0.12292907725E+02  0.50400000000E-02 0. -1.
         -2   -1    0    0    0  501 -0.00000000000E+00 -0.00000000000E+00 -0.13385804475E+03  0.13385804477E+03  0.25500000000E-02 0.  1.
        -24    2    1    2    0    0  0.00000000000E+00  0.00000000000E+00 -0.12156513806E+03  0.14615095250E+03  0.81129637773E+02 0.  0.
         66    2    3    3    0    0 -0.23969534054E+02  0.27860381061E+01 -0.11950351489E+03  0.12193190988E+03  0.20000014776E+01 0.  0.
         13    1    3    3    0    0  0.23969534054E+02 -0.27860381061E+01 -0.20616231689E+01  0.24219042615E+02  0.10566000000E+00 0. -1.
         13    1    4    4    0    0 -0.31806640792E+01  0.12376849685E+00 -0.13984563979E+02  0.14342633522E+02  0.10566000000E+00 0. -1.
        -13    1    4    4    0    0 -0.97625450065E+01  0.16689673006E+01 -0.52661763646E+02  0.53585121547E+02  0.10566000000E+00 0.  1.
        -14    1    4    4    0    0 -0.11026324968E+02  0.99330230859E+00 -0.52857187263E+02  0.54004154814E+02  0.00000000000E+00 0.  1.
<mgrwt>
<rscale>  0 0.81129638E+02</rscale>
<asrwt>0</asrwt>
<pdfrwt beam="1">  1        1 0.18912166E-02 0.81129638E+02</pdfrwt>
<pdfrwt beam="2">  1       -2 0.20593544E-01 0.81129638E+02</pdfrwt>
<totfact> 0.94500478E+04</totfact>
</mgrwt>
</event>
<event>
 8    1  0.1319619E-020  0.8047443E+02  0.7818608E-02  0.1327710E+00
          1   -1    0    0  501    0  0.00000000000E+00  0.00000000000E+00  0.25165938130E+02  0.25165938635E+02  0.50400000000E-02 0. -1.
         -2   -1    0    0    0  501 -0.00000000000E+00 -0.00000000000E+00 -0.64334313930E+02  0.64334313980E+02  0.25500000000E-02 0.  1.
        -24    2    1    2    0    0 -0.35527136788E-14  0.00000000000E+00 -0.39168375799E+02  0.89500252615E+02  0.80474427959E+02 0.  0.
         66    2    3    3    0    0 -0.16723036518E+02  0.90562942316E+01 -0.59001049981E+02  0.62022579045E+02  0.19999992303E+01 0.  0.
         13    1    3    3    0    0  0.16723036518E+02 -0.90562942316E+01  0.19832674182E+02  0.27477673570E+02  0.10566000000E+00 0. -1.
         13    1    4    4    0    0 -0.10515012041E+00  0.12392793907E+00 -0.29598484362E+00  0.35381597640E+00  0.10566000000E+00 0. -1.
        -13    1    4    4    0    0 -0.83902530853E+01  0.40478619107E+01 -0.28383501481E+02  0.29873330133E+02  0.10566000000E+00 0.  1.
         14    1    4    4    0    0 -0.82276333123E+01  0.48845043819E+01 -0.30321563657E+02  0.31795432936E+02  0.00000000000E+00 0. -1.
<mgrwt>
<rscale>  0 0.80474428E+02</rscale>
<asrwt>0</asrwt>
<pdfrwt beam="1">  1        1 0.38716829E-02 0.80474428E+02</pdfrwt>
<pdfrwt beam="2">  1       -2 0.98975867E-02 0.80474428E+02</pdfrwt>
<totfact> 0.11509692E+05</totfact>
</mgrwt>
</event>
<event>
 8    1  0.1319619E-020  0.8036962E+02  0.7818608E-02  0.1328006E+00
          1   -1    0    0  501    0  0.00000000000E+00  0.00000000000E+00  0.13004039413E+03  0.13004039423E+03  0.50400000000E-02 0. -1.
         -2   -1    0    0    0  501 -0.00000000000E+00 -0.00000000000E+00 -0.12417824692E+02  0.12417824954E+02  0.25500000000E-02 0.  1.
        -24    2    1    2    0    0  0.35527136788E-14  0.00000000000E+00  0.11762256944E+03  0.14245821918E+03  0.80369617215E+02 0.  0.
         66    2    3    3    0    0  0.17582321888E+02 -0.35355526204E+02  0.45862913951E+02  0.60552110767E+02  0.19999915207E+01 0.  0.
         13    1    3    3    0    0 -0.17582321888E+02  0.35355526204E+02  0.71759655484E+02  0.81906108413E+02  0.10566000000E+00 0. -1.
         13    1    4    4    0    0  0.78309207607E+01 -0.14289069638E+02  0.18029939747E+02  0.24302072389E+02  0.10566000000E+00 0. -1.
        -13    1    4    4    0    0  0.34607939992E+01 -0.78149390032E+01  0.10718981962E+02  0.13709781364E+02  0.10566000000E+00 0.  1.
        -14    1    4    4    0    0  0.62906071281E+01 -0.13251517563E+02  0.17113992243E+02  0.22540257014E+02  0.00000000000E+00 0.  1.
<mgrwt>
<rscale>  0 0.80369617E+02</rscale>
<asrwt>0</asrwt>
<pdfrwt beam="1">  1        1 0.20006214E-01 0.80369617E+02</pdfrwt>
<pdfrwt beam="2">  1       -2 0.19104346E-02 0.80369617E+02</pdfrwt>
<totfact> 0.15194882E+05</totfact>
</mgrwt>
</event>
<event>
 8    1  0.1319619E-020  0.7856964E+02  0.7818608E-02  0.1333160E+00
          1   -1    0    0  501    0  0.00000000000E+00  0.00000000000E+00  0.29845090639E+02  0.29845091065E+02  0.50400000000E-02 0. -1.
         -2   -1    0    0    0  501 -0.00000000000E+00 -0.00000000000E+00 -0.51710251942E+02  0.51710252005E+02  0.25500000000E-02 0.  1.
        -24    2    1    2    0    0  0.00000000000E+00  0.35527136788E-14 -0.21865161303E+02  0.81555343070E+02  0.78569642385E+02 0.  0.
         66    2    3    3    0    0 -0.14814562723E+02 -0.26377424343E+02 -0.36911501864E+02  0.47767130451E+02  0.19999995055E+01 0.  0.
         13    1    3    3    0    0  0.14814562723E+02  0.26377424343E+02  0.15046340561E+02  0.33788212619E+02  0.10566000000E+00 0. -1.
         13    1    4    4    0    0 -0.42491586928E+01 -0.63367208571E+01 -0.92832500530E+01  0.12016625000E+02  0.10566000000E+00 0. -1.
        -13    1    4    4    0    0 -0.20828178722E+01 -0.35888349891E+01 -0.43950226866E+01  0.60452671834E+01  0.10566000000E+00 0.  1.
         14    1    4    4    0    0 -0.84825861581E+01 -0.16451868497E+02 -0.23233229124E+02  0.29705238267E+02  0.00000000000E+00 0. -1.
<mgrwt>
<rscale>  0 0.78569642E+02</rscale>
<asrwt>0</asrwt>
<pdfrwt beam="1">  1        1 0.45915525E-02 0.78569642E+02</pdfrwt>
<pdfrwt beam="2">  1       -2 0.79554234E-02 0.78569642E+02</pdfrwt>
<totfact> 0.12725788E+05</totfact>
</mgrwt>
</event>
<event>
 8    1  0.1319619E-020  0.7467041E+02  0.7818608E-02  0.1344895E+00
         -2   -1    0    0    0  501 -0.00000000000E+00  0.00000000000E+00  0.19489879290E+02  0.19489879457E+02  0.25500000000E-02 0.  1.
          1   -1    0    0  501    0  0.00000000000E+00 -0.00000000000E+00 -0.71520070629E+02  0.71520070807E+02  0.50400000000E-02 0. -1.
        -24    2    1    2    0    0  0.44408920985E-15  0.00000000000E+00 -0.52030191340E+02  0.91009950264E+02  0.74670410714E+02 0.  0.
         66    2    3    3    0    0 -0.31612238318E+01 -0.11341426582E+02  0.17114859251E+02  0.20869587574E+02  0.19999963183E+01 0.  0.
         13    1    3    3    0    0  0.31612238318E+01  0.11341426582E+02 -0.69145050591E+02  0.70140362690E+02  0.10566000000E+00 0. -1.
         13    1    4    4    0    0 -0.45701625028E+00 -0.12694576326E+01  0.25213217159E+01  0.28615753991E+01  0.10566000000E+00 0. -1.
        -13    1    4    4    0    0 -0.97329789876E+00 -0.59825224541E+01  0.92600197345E+01  0.11067836881E+02  0.10566000000E+00 0.  1.
         14    1    4    4    0    0 -0.17309096828E+01 -0.40894464954E+01  0.53335178007E+01  0.69401752931E+01  0.00000000000E+00 0. -1.
<mgrwt>
<rscale>  0 0.74670411E+02</rscale>
<asrwt>0</asrwt>
<pdfrwt beam="1">  1        1 0.11003088E-01 0.74670411E+02</pdfrwt>
<pdfrwt beam="2">  1       -2 0.29984430E-02 0.74670411E+02</pdfrwt>
<totfact> 0.16789839E+05</totfact>
</mgrwt>
</event>
<event>
 8    1  0.1319619E-020  0.8000752E+02  0.7818608E-02  0.1329030E+00
         -2   -1    0    0    0  501 -0.00000000000E+00  0.00000000000E+00  0.50144648140E+02  0.50144648205E+02  0.25500000000E-02 0.  1.
          1   -1    0    0  501    0  0.00000000000E+00 -0.00000000000E+00 -0.31913688311E+02  0.31913688709E+02  0.50400000000E-02 0. -1.
        -24    2    1    2    0    0  0.35527136788E-14  0.35527136788E-14  0.18230959829E+02  0.82058336914E+02  0.80007516902E+02 0.  0.
         66    2    3    3    0    0  0.29896985562E+02  0.22126764371E+02  0.24155422222E+02  0.44394908155E+02  0.20000000507E+01 0.  0.
         13    1    3    3    0    0 -0.29896985562E+02 -0.22126764371E+02 -0.59244623935E+01  0.37663428759E+02  0.10566000000E+00 0. -1.
         13    1    4    4    0    0  0.55744658338E+01  0.49674045163E+01  0.47110380681E+01  0.88292027202E+01  0.10566000000E+00 0. -1.
        -13    1    4    4    0    0  0.78604762986E+01  0.50472140151E+01  0.61170981027E+01  0.11166535281E+02  0.10566000000E+00 0.  1.
        -14    1    4    4    0    0  0.16462043429E+02  0.12112145839E+02  0.13327286051E+02  0.24399170154E+02  0.00000000000E+00 0.  1.
<mgrwt>
<rscale>  0 0.80007517E+02</rscale>
<asrwt>0</asrwt>
<pdfrwt beam="1">  1        1 0.49097983E-02 0.80007517E+02</pdfrwt>
<pdfrwt beam="2">  1       -2 0.77145612E-02 0.80007517E+02</pdfrwt>
<totfact> 0.12223180E+05</totfact>
</mgrwt>
</event>
<event>
 8    1  0.1319619E-020  0.8323095E+02  0.7818608E-02  0.1320125E+00
         -2   -1    0    0    0  501 -0.00000000000E+00  0.00000000000E+00  0.25438557854E+03  0.25438557855E+03  0.25500000000E-02 0.  1.
          1   -1    0    0  501    0  0.00000000000E+00 -0.00000000000E+00 -0.68079632549E+01  0.68079651205E+01  0.50400000000E-02 0. -1.
        -24    2    1    2    0    0  0.00000000000E+00 -0.35527136788E-14  0.24757761528E+03  0.26119354367E+03  0.83230953775E+02 0.  0.
         66    2    3    3    0    0  0.31424580750E+02  0.21937545067E+02  0.17456693865E+03  0.17873549237E+03  0.20000005296E+01 0.  0.
         13    1    3    3    0    0 -0.31424580750E+02 -0.21937545067E+02  0.73010676633E+02  0.82458051307E+02  0.10566000000E+00 0. -1.
         13    1    4    4    0    0  0.15396355518E+02  0.11077528055E+02  0.88123051816E+02  0.90141238156E+02  0.10566000000E+00 0. -1.
        -13    1    4    4    0    0  0.10204860213E+01  0.66104245048E+00  0.68883621255E+01  0.69956461924E+01  0.10566000000E+00 0.  1.
         14    1    4    4    0    0  0.15007739211E+02  0.10198974562E+02  0.79555524711E+02  0.81598608017E+02  0.00000000000E+00 0. -1.
<mgrwt>
<rscale>  0 0.83230954E+02</rscale>
<asrwt>0</asrwt>
<pdfrwt beam="1">  1        1 0.10473792E-02 0.83230954E+02</pdfrwt>
<pdfrwt beam="2">  1       -2 0.39136238E-01 0.83230954E+02</pdfrwt>
<totfact> 0.69031732E+04</totfact>
</mgrwt>
</event>
<event>
 8    1  0.1319619E-020  0.7856735E+02  0.7818608E-02  0.1333167E+00
          1   -1    0    0  501    0  0.00000000000E+00  0.00000000000E+00  0.40443537850E+02  0.40443538164E+02  0.50400000000E-02 0. -1.
         -2   -1    0    0    0  501 -0.00000000000E+00 -0.00000000000E+00 -0.38157079654E+02  0.38157079739E+02  0.25500000000E-02 0.  1.
        -24    2    1    2    0    0  0.35527136788E-14  0.00000000000E+00  0.22864581966E+01  0.78600617903E+02  0.78567354822E+02 0.  0.
         66    2    3    3    0    0  0.22305616470E+02  0.23101656069E+02 -0.21448226408E+02  0.38668507309E+02  0.20000005543E+01 0.  0.
         13    1    3    3    0    0 -0.22305616470E+02 -0.23101656069E+02  0.23734684604E+02  0.39932110595E+02  0.10566000000E+00 0. -1.
         13    1    4    4    0    0  0.17586798517E+02  0.17391530308E+02 -0.17153403453E+02  0.30100020308E+02  0.10566000000E+00 0. -1.
        -13    1    4    4    0    0  0.34488008771E+01  0.39752414477E+01 -0.30033815102E+01  0.60603825448E+01  0.10566000000E+00 0.  1.
         14    1    4    4    0    0  0.12700170756E+01  0.17348843138E+01 -0.12914414447E+01  0.25081044555E+01  0.00000000000E+00 0. -1.
<mgrwt>
<rscale>  0 0.78567355E+02</rscale>
<asrwt>0</asrwt>
<pdfrwt beam="1">  1        1 0.62220828E-02 0.78567355E+02</pdfrwt>
<pdfrwt beam="2">  1       -2 0.58703200E-02 0.78567355E+02</pdfrwt>
<totfact> 0.13382997E+05</totfact>
</mgrwt>
</event>
<event>
 8    1  0.1319619E-020  0.7963681E+02  0.7818608E-02  0.1330085E+00
         -2   -1    0    0    0  501 -0.00000000000E+00  0.00000000000E+00  0.18411845785E+01  0.18411863444E+01  0.25500000000E-02 0.  1.
          1   -1    0    0  501    0  0.00000000000E+00 -0.00000000000E+00 -0.86113291644E+03  0.86113291645E+03  0.50400000000E-02 0. -1.
        -24    2    1    2    0    0 -0.71054273576E-14 -0.88817841970E-15 -0.85929173186E+03  0.86297410280E+03  0.79636810938E+02 0.  0.
         66    2    3    3    0    0 -0.33174146950E+02 -0.73405841174E+01 -0.65438657650E+03  0.65527108872E+03  0.20000009972E+01 0.  0.
         13    1    3    3    0    0  0.33174146950E+02  0.73405841174E+01 -0.20490515536E+03  0.20770301408E+03  0.10566000000E+00 0. -1.
         13    1    4    4    0    0 -0.29394032681E+01 -0.19154885674E+00 -0.57583373144E+02  0.57658761773E+02  0.10566000000E+00 0. -1.
        -13    1    4    4    0    0 -0.20715816071E+02 -0.53665253520E+01 -0.40689456955E+03  0.40745692597E+03  0.10566000000E+00 0.  1.
        -14    1    4    4    0    0 -0.95189276107E+01 -0.17825099086E+01 -0.18990863381E+03  0.19015540097E+03  0.00000000000E+00 0.  1.
<mgrwt>
<rscale>  0 0.79636811E+02</rscale>
<asrwt>0</asrwt>
<pdfrwt beam="1">  1        1 0.13248167E+00 0.79636811E+02</pdfrwt>
<pdfrwt beam="2">  1       -2 0.28325999E-03 0.79636811E+02</pdfrwt>
<totfact> 0.19971390E+05</totfact>
</mgrwt>
</event>
<event>
 8    1  0.1319619E-020  0.7958552E+02  0.7818608E-02  0.1330232E+00
         -2   -1    0    0    0  501 -0.00000000000E+00  0.00000000000E+00  0.64947155481E+02  0.64947155531E+02  0.25500000000E-02 0.  1.
          1   -1    0    0  501    0  0.00000000000E+00 -0.00000000000E+00 -0.24380804480E+02  0.24380805001E+02  0.50400000000E-02 0. -1.
        -24    2    1    2    0    0  0.88817841970E-15  0.35527136788E-14  0.40566351001E+02  0.89327960533E+02  0.79585524434E+02 0.  0.
         66    2    3    3    0    0  0.71554291702E+01 -0.30983164723E+02  0.47100337372E+02  0.56864738191E+02  0.20000015366E+01 0.  0.
         13    1    3    3    0    0 -0.71554291702E+01  0.30983164723E+02 -0.65339863714E+01  0.32463222341E+02  0.10566000000E+00 0. -1.
         13    1    4    4    0    0  0.27551816171E+01 -0.14752815395E+02  0.22884298499E+02  0.27366747517E+02  0.10566000000E+00 0. -1.
        -13    1    4    4    0    0  0.43233337676E+01 -0.15400371380E+02  0.23262373469E+02  0.28231398069E+02  0.10566000000E+00 0.  1.
        -14    1    4    4    0    0  0.76913785488E-01 -0.82997794786E+00  0.95366540478E+00  0.12665926056E+01  0.00000000000E+00 0.  1.
<mgrwt>
<rscale>  0 0.79585524E+02</rscale>
<asrwt>0</asrwt>
<pdfrwt beam="1">  1        1 0.37508930E-02 0.79585524E+02</pdfrwt>
<pdfrwt beam="2">  1       -2 0.99918702E-02 0.79585524E+02</pdfrwt>
<totfact> 0.11816678E+05</totfact>
</mgrwt>
</event>
<event>
 8    1  0.1319619E-020  0.8433301E+02  0.7818608E-02  0.1317186E+00
          1   -1    0    0  501    0  0.00000000000E+00  0.00000000000E+00  0.12362543448E+03  0.12362543459E+03  0.50400000000E-02 0. -1.
         -2   -1    0    0    0  501 -0.00000000000E+00 -0.00000000000E+00 -0.14382268117E+02  0.14382268343E+02  0.25500000000E-02 0.  1.
        -24    2    1    2    0    0  0.00000000000E+00  0.00000000000E+00  0.10924316637E+03  0.13800770293E+03  0.84333010560E+02 0.  0.
         66    2    3    3    0    0  0.33056618193E+02 -0.16798006347E+02  0.21878180001E+02  0.43099510290E+02  0.20000008593E+01 0.  0.
         13    1    3    3    0    0 -0.33056618193E+02  0.16798006347E+02  0.87364986366E+02  0.94908192641E+02  0.10566000000E+00 0. -1.
         13    1    4    4    0    0  0.88757185768E+01 -0.45150091833E+01  0.64958543422E+01  0.11889952727E+02  0.10566000000E+00 0. -1.
        -13    1    4    4    0    0  0.15474474706E+02 -0.73155711965E+01  0.92023889563E+01  0.19433786968E+02  0.10566000000E+00 0.  1.
        -14    1    4    4    0    0  0.87064249098E+01 -0.49674259675E+01  0.61799367029E+01  0.11775770595E+02  0.00000000000E+00 0.  1.
<mgrwt>
<rscale>  0 0.84333011E+02</rscale>
<asrwt>0</asrwt>
<pdfrwt beam="1">  1        1 0.19019299E-01 0.84333011E+02</pdfrwt>
<pdfrwt beam="2">  1       -2 0.22126566E-02 0.84333011E+02</pdfrwt>
<totfact> 0.13226126E+05</totfact>
</mgrwt>
</event>
<event>
 8    1  0.1319619E-020  0.8531329E+02  0.7818608E-02  0.1314615E+00
         -2   -1    0    0    0  501 -0.00000000000E+00  0.00000000000E+00  0.80959794061E+01  0.80959798077E+01  0.25500000000E-02 0.  1.
          1   -1    0    0  501    0  0.00000000000E+00 -0.00000000000E+00 -0.22475223083E+03  0.22475223089E+03  0.50400000000E-02 0. -1.
        -24    2    1    2    0    0  0.00000000000E+00  0.00000000000E+00 -0.21665625143E+03  0.23284821070E+03  0.85313292883E+02 0.  0.
         66    2    3    3    0    0  0.35267582599E+02  0.16411385321E+02 -0.60764891686E+02  0.72176921550E+02  0.19999980457E+01 0.  0.
         13    1    3    3    0    0 -0.35267582599E+02 -0.16411385321E+02 -0.15589135974E+03  0.16067128915E+03  0.10566000000E+00 0. -1.
         13    1    4    4    0    0  0.25641314007E+02  0.11561337043E+02 -0.44016957296E+02  0.52236435482E+02  0.10566000000E+00 0. -1.
        -13    1    4    4    0    0  0.92323312016E+01  0.47404476958E+01 -0.16374784136E+02  0.19386915776E+02  0.10566000000E+00 0.  1.
         14    1    4    4    0    0  0.39393739101E+00  0.10960058214E+00 -0.37315025445E+00  0.55357029187E+00  0.00000000000E+00 0. -1.
<mgrwt>
<rscale>  0 0.85313293E+02</rscale>
<asrwt>0</asrwt>
<pdfrwt beam="1">  1        1 0.34577262E-01 0.85313293E+02</pdfrwt>
<pdfrwt beam="2">  1       -2 0.12455355E-02 0.85313293E+02</pdfrwt>
<totfact> 0.14376964E+05</totfact>
</mgrwt>
</event>
<event>
 8    1  0.1319619E-020  0.8078773E+02  0.7818608E-02  0.1326831E+00
          1   -1    0    0  501    0  0.00000000000E+00  0.00000000000E+00  0.21817647065E+01  0.21817705279E+01  0.50400000000E-02 0. -1.
         -2   -1    0    0    0  501 -0.00000000000E+00 -0.00000000000E+00 -0.74786344102E+03  0.74786344103E+03  0.25500000000E-02 0.  1.
        -24    2    1    2    0    0  0.88817841970E-15  0.00000000000E+00 -0.74568167632E+03  0.75004521155E+03  0.80787727922E+02 0.  0.
         66    2    3    3    0    0  0.70905554263E+01  0.14739466291E+02 -0.71571935040E+03  0.71590901403E+03  0.19999991600E+01 0.  0.
         13    1    3    3    0    0 -0.70905554263E+01 -0.14739466291E+02 -0.29962325918E+02  0.34136197522E+02  0.10566000000E+00 0. -1.
         13    1    4    4    0    0 -0.81802436132E-02  0.86205784915E+00 -0.35862355392E+02  0.35872871490E+02  0.10566000000E+00 0.  1.
        -13    1    4    4    0    0  0.68260333966E+01  0.13529678690E+02 -0.65565065456E+03  0.65582576873E+03  0.10566000000E+00 0.  1.
        -14    1    4    4    0    0  0.27270227333E+00  0.34772975206E+00 -0.24206340442E+02  0.24210373811E+02  0.00000000000E+00 0.  1.
<mgrwt>
<rscale>  0 0.80787728E+02</rscale>
<asrwt>0</asrwt>
<pdfrwt beam="1">  1        1 0.33565716E-03 0.80787728E+02</pdfrwt>
<pdfrwt beam="2">  1       -2 0.11505571E+00 0.80787728E+02</pdfrwt>
<totfact> 0.34641067E+04</totfact>
</mgrwt>
</event>
<event>
 8    1  0.1319619E-020  0.8046699E+02  0.7818608E-02  0.1327731E+00
         -2   -1    0    0    0  501 -0.00000000000E+00  0.00000000000E+00  0.29358872640E+02  0.29358872751E+02  0.25500000000E-02 0.  1.
          1   -1    0    0  501    0  0.00000000000E+00 -0.00000000000E+00 -0.55136119236E+02  0.55136119466E+02  0.50400000000E-02 0. -1.
        -24    2    1    2    0    0 -0.35527136788E-14  0.00000000000E+00 -0.25777246596E+02  0.84494992217E+02  0.80466994897E+02 0.  0.
         66    2    3    3    0    0  0.28045501839E+02 -0.58207763530E+01  0.16734752127E+02  0.33233770906E+02  0.19999972838E+01 0.  0.
         13    1    3    3    0    0 -0.28045501839E+02  0.58207763530E+01 -0.42511998723E+02  0.51261221311E+02  0.10566000000E+00 0. -1.
         13    1    4    4    0    0  0.45891362015E+01 -0.69549648508E+00  0.21436281444E+01  0.51137258524E+01  0.10566000000E+00 0. -1.
        -13    1    4    4    0    0  0.49954844996E+00 -0.25137229132E+00  0.37599586243E+00  0.68210967363E+00  0.10566000000E+00 0.  1.
        -14    1    4    4    0    0  0.22956817188E+02 -0.48739075766E+01  0.14215128121E+02  0.27437935380E+02  0.00000000000E+00 0.  1.
<mgrwt>
<rscale>  0 0.80466995E+02</rscale>
<asrwt>0</asrwt>
<pdfrwt beam="1">  1        1 0.84824799E-02 0.80466995E+02</pdfrwt>
<pdfrwt beam="2">  1       -2 0.45167497E-02 0.80466995E+02</pdfrwt>
<totfact> 0.13146851E+05</totfact>
</mgrwt>
</event>
<event>
 8    1  0.1319619E-020  0.7853786E+02  0.7818608E-02  0.1333253E+00
         -2   -1    0    0    0  501 -0.00000000000E+00  0.00000000000E+00  0.39237637308E+02  0.39237637391E+02  0.25500000000E-02 0.  1.
          1   -1    0    0  501    0  0.00000000000E+00 -0.00000000000E+00 -0.39300248438E+02  0.39300248761E+02  0.50400000000E-02 0. -1.
        -24    2    1    2    0    0  0.00000000000E+00  0.00000000000E+00 -0.62611130394E-01  0.78537886152E+02  0.78537861195E+02 0.  0.
         66    2    3    3    0    0 -0.98576410808E+01  0.12983162244E+02  0.35666141789E+02  0.39265879089E+02  0.20000002607E+01 0.  0.
         13    1    3    3    0    0  0.98576410808E+01 -0.12983162244E+02 -0.35728752919E+02  0.39272007063E+02  0.10566000000E+00 0. -1.
         13    1    4    4    0    0 -0.31957676154E+01  0.44530800891E+01  0.13592704676E+02  0.14656590237E+02  0.10566000000E+00 0. -1.
        -13    1    4    4    0    0 -0.37513746903E+01  0.39487649135E+01  0.11429467601E+02  0.12661336821E+02  0.10566000000E+00 0.  1.
         14    1    4    4    0    0 -0.29104987751E+01  0.45813172413E+01  0.10643969511E+02  0.11947952031E+02  0.00000000000E+00 0. -1.
<mgrwt>
<rscale>  0 0.78537861E+02</rscale>
<asrwt>0</asrwt>
<pdfrwt beam="1">  1        1 0.60461921E-02 0.78537861E+02</pdfrwt>
<pdfrwt beam="2">  1       -2 0.60365596E-02 0.78537861E+02</pdfrwt>
<totfact> 0.13336076E+05</totfact>
</mgrwt>
</event>
<event>
 8    1  0.1319619E-020  0.8006591E+02  0.7818608E-02  0.1328864E+00
          1   -1    0    0  501    0  0.00000000000E+00  0.00000000000E+00  0.61212443117E+02  0.61212443325E+02  0.50400000000E-02 0. -1.
         -2   -1    0    0    0  501 -0.00000000000E+00 -0.00000000000E+00 -0.26181565889E+02  0.26181566013E+02  0.25500000000E-02 0.  1.
        -24    2    1    2    0    0  0.00000000000E+00  0.00000000000E+00  0.35030877229E+02  0.87394009338E+02  0.80065913526E+02 0.  0.
         66    2    3    3    0    0  0.79212718551E+01 -0.34414637712E+02 -0.29966358195E+01  0.35497798018E+02  0.20000003200E+01 0.  0.
         13    1    3    3    0    0 -0.79212718551E+01  0.34414637712E+02  0.38027513048E+02  0.51896211319E+02  0.10566000000E+00 0. -1.
         13    1    4    4    0    0  0.24067567116E+00 -0.23533203012E+01 -0.53679703763E+00  0.24280354845E+01  0.10566000000E+00 0. -1.
        -13    1    4    4    0    0  0.48061786003E+01 -0.18426595763E+02 -0.13435650498E+01  0.19090707562E+02  0.10566000000E+00 0.  1.
         14    1    4    4    0    0  0.28744175836E+01 -0.13634721648E+02 -0.11162737320E+01  0.13979054972E+02  0.00000000000E+00 0. -1.
<mgrwt>
<rscale>  0 0.80065914E+02</rscale>
<asrwt>0</asrwt>
<pdfrwt beam="1">  1        1 0.94172990E-02 0.80065914E+02</pdfrwt>
<pdfrwt beam="2">  1       -2 0.40279332E-02 0.80065914E+02</pdfrwt>
<totfact> 0.13550173E+05</totfact>
</mgrwt>
</event>
<event>
 8    1  0.1319619E-020  0.7885913E+02  0.7818608E-02  0.1332321E+00
          1   -1    0    0  501    0  0.00000000000E+00  0.00000000000E+00  0.18119677084E+02  0.18119677785E+02  0.50400000000E-02 0. -1.
         -2   -1    0    0    0  501 -0.00000000000E+00 -0.00000000000E+00 -0.85801235266E+02  0.85801235304E+02  0.25500000000E-02 0.  1.
        -24    2    1    2    0    0 -0.71054273576E-14  0.00000000000E+00 -0.67681558182E+02  0.10392091309E+03  0.78859133012E+02 0.  0.
         66    2    3    3    0    0  0.32890469430E+02 -0.17204824655E+02 -0.51290257931E+02  0.63344135757E+02  0.20000013585E+01 0.  0.
         13    1    3    3    0    0 -0.32890469430E+02  0.17204824655E+02 -0.16391300251E+02  0.40576777332E+02  0.10566000000E+00 0. -1.
         13    1    4    4    0    0  0.11638471402E+02 -0.53605707702E+01 -0.17176001174E+02  0.21429323739E+02  0.10566000000E+00 0. -1.
        -13    1    4    4    0    0  0.18790130763E+02 -0.10154168177E+02 -0.29561836928E+02  0.36470392266E+02  0.10566000000E+00 0.  1.
         14    1    4    4    0    0  0.24618672643E+01 -0.16900857083E+01 -0.45524198293E+01  0.54444197515E+01  0.00000000000E+00 0. -1.
<mgrwt>
<rscale>  0 0.78859133E+02</rscale>
<asrwt>0</asrwt>
<pdfrwt beam="1">  1        1 0.27876427E-02 0.78859133E+02</pdfrwt>
<pdfrwt beam="2">  1       -2 0.13200190E-01 0.78859133E+02</pdfrwt>
<totfact> 0.11415417E+05</totfact>
</mgrwt>
</event>
<event>
 8    1  0.1319619E-020  0.8153352E+02  0.7818608E-02  0.1324755E+00
          1   -1    0    0  501    0  0.00000000000E+00  0.00000000000E+00  0.38726361088E+01  0.38726393884E+01  0.50400000000E-02 0. -1.
         -2   -1    0    0    0  501 -0.00000000000E+00 -0.00000000000E+00 -0.42914645719E+03  0.42914645720E+03  0.25500000000E-02 0.  1.
        -24    2    1    2    0    0  0.00000000000E+00  0.00000000000E+00 -0.42527382108E+03  0.43301909659E+03  0.81533521395E+02 0.  0.
         66    2    3    3    0    0 -0.81954492008E+01 -0.17186417595E+02 -0.40406026731E+03  0.40451358195E+03  0.20000050158E+01 0.  0.
         13    1    3    3    0    0  0.81954492008E+01  0.17186417595E+02 -0.21213553765E+02  0.28505514638E+02  0.10566000000E+00 0. -1.
         13    1    4    4    0    0 -0.64949855323E+00 -0.19041495921E+01 -0.35436607730E+02  0.35493829964E+02  0.10566000000E+00 0. -1.
        -13    1    4    4    0    0 -0.12041117454E+01 -0.33432851041E+01 -0.84105940863E+02  0.84181042361E+02  0.10566000000E+00 0.  1.
         14    1    4    4    0    0 -0.63418389021E+01 -0.11938982899E+02 -0.28451771872E+03  0.28483870962E+03  0.00000000000E+00 0. -1.
<mgrwt>
<rscale>  0 0.81533521E+02</rscale>
<asrwt>0</asrwt>
<pdfrwt beam="1">  1        1 0.59579076E-03 0.81533521E+02</pdfrwt>
<pdfrwt beam="2">  1       -2 0.66022494E-01 0.81533521E+02</pdfrwt>
<totfact> 0.53639765E+04</totfact>
</mgrwt>
</event>
<event>
 8    1  0.1319619E-020  0.8158774E+02  0.7818608E-02  0.1324605E+00
          1   -1    0    0  501    0  0.00000000000E+00  0.00000000000E+00  0.48723591255E+02  0.48723591515E+02  0.50400000000E-02 0. -1.
         -2   -1    0    0    0  501 -0.00000000000E+00 -0.00000000000E+00 -0.34154707219E+02  0.34154707314E+02  0.25500000000E-02 0.  1.
        -24    2    1    2    0    0  0.00000000000E+00 -0.35527136788E-14  0.14568884036E+02  0.82878298829E+02  0.81587744391E+02 0.  0.
         66    2    3    3    0    0  0.42453119361E+01 -0.29628752303E+02 -0.20830264148E+02  0.36521028713E+02  0.19999993235E+01 0.  0.
         13    1    3    3    0    0 -0.42453119361E+01  0.29628752303E+02  0.35399148184E+02  0.46357270116E+02  0.10566000000E+00 0. -1.
         13    1    4    4    0    0  0.14742165655E+01 -0.13776858601E+02 -0.97300773196E+01  0.16931057736E+02  0.10566000000E+00 0. -1.
        -13    1    4    4    0    0  0.32370423996E+00 -0.16232090941E+01 -0.71967429727E+00  0.18079511409E+01  0.10566000000E+00 0.  1.
        -14    1    4    4    0    0  0.24473911306E+01 -0.14228684608E+02 -0.10380512531E+02  0.17782019836E+02  0.00000000000E+00 0.  1.
<mgrwt>
<rscale>  0 0.81587744E+02</rscale>
<asrwt>0</asrwt>
<pdfrwt beam="1">  1        1 0.74959371E-02 0.81587744E+02</pdfrwt>
<pdfrwt beam="2">  1       -2 0.52545704E-02 0.81587744E+02</pdfrwt>
<totfact> 0.12404482E+05</totfact>
</mgrwt>
</event>
<event>
 8    1  0.1319619E-020  0.8139070E+02  0.7818608E-02  0.1325151E+00
         -2   -1    0    0    0  501 -0.00000000000E+00  0.00000000000E+00  0.86819260094E+01  0.86819263839E+01  0.25500000000E-02 0.  1.
          1   -1    0    0  501    0  0.00000000000E+00 -0.00000000000E+00 -0.19075392897E+03  0.19075392903E+03  0.50400000000E-02 0. -1.
        -24    2    1    2    0    0 -0.35527136788E-14  0.00000000000E+00 -0.18207200296E+03  0.19943585542E+03  0.81390700728E+02 0.  0.
         66    2    3    3    0    0 -0.19938246532E+02 -0.33098856906E+02 -0.59995615496E+02  0.71390068517E+02  0.20000002187E+01 0.  0.
         13    1    3    3    0    0  0.19938246532E+02  0.33098856906E+02 -0.12207638746E+03  0.12804578690E+03  0.10566000000E+00 0. -1.
         13    1    4    4    0    0 -0.12560702612E+02 -0.20166988328E+02 -0.38277196542E+02  0.45051455110E+02  0.10566000000E+00 0. -1.
        -13    1    4    4    0    0 -0.24137780034E+01 -0.38317916975E+01 -0.69222988174E+01  0.82727466307E+01  0.10566000000E+00 0.  1.
         14    1    4    4    0    0 -0.49637659168E+01 -0.91000768798E+01 -0.14796120136E+02  0.18065866776E+02  0.00000000000E+00 0. -1.
<mgrwt>
<rscale>  0 0.81390701E+02</rscale>
<asrwt>0</asrwt>
<pdfrwt beam="1">  1        1 0.29346755E-01 0.81390701E+02</pdfrwt>
<pdfrwt beam="2">  1       -2 0.13356811E-02 0.81390701E+02</pdfrwt>
<totfact> 0.15781471E+05</totfact>
</mgrwt>
</event>
<event>
 8    1  0.1319619E-020  0.7958172E+02  0.7818608E-02  0.1330243E+00
          1   -1    0    0  501    0  0.00000000000E+00  0.00000000000E+00  0.45610522021E+02  0.45610522300E+02  0.50400000000E-02 0. -1.
         -2   -1    0    0    0  501 -0.00000000000E+00 -0.00000000000E+00 -0.34713757112E+02  0.34713757206E+02  0.25500000000E-02 0.  1.
        -24    2    1    2    0    0  0.00000000000E+00  0.00000000000E+00  0.10896764909E+02  0.80324279506E+02  0.79581721473E+02 0.  0.
         66    2    3    3    0    0 -0.33257593407E+02 -0.44634573502E+01  0.26989089396E+02  0.43109174478E+02  0.20000017507E+01 0.  0.
         13    1    3    3    0    0  0.33257593407E+02  0.44634573502E+01 -0.16092324487E+02  0.37215105027E+02  0.10566000000E+00 0. -1.
         13    1    4    4    0    0 -0.36399562065E+01 -0.71963147115E+00  0.32939893722E+01  0.49627291543E+01  0.10566000000E+00 0. -1.
        -13    1    4    4    0    0 -0.24825934792E+02 -0.35417536888E+01  0.20407505328E+02  0.32331849549E+02  0.10566000000E+00 0.  1.
         14    1    4    4    0    0 -0.47917024093E+01 -0.20207219019E+00  0.32875946955E+01  0.58145957754E+01  0.00000000000E+00 0. -1.
<mgrwt>
<rscale>  0 0.79581721E+02</rscale>
<asrwt>0</asrwt>
<pdfrwt beam="1">  1        1 0.70170035E-02 0.79581721E+02</pdfrwt>
<pdfrwt beam="2">  1       -2 0.53405780E-02 0.79581721E+02</pdfrwt>
<totfact> 0.13158939E+05</totfact>
</mgrwt>
</event>
<event>
 8    1  0.1319619E-020  0.7991745E+02  0.7818608E-02  0.1329286E+00
          1   -1    0    0  501    0  0.00000000000E+00  0.00000000000E+00  0.54906939713E+02  0.54906939945E+02  0.50400000000E-02 0. -1.
         -2   -1    0    0    0  501 -0.00000000000E+00 -0.00000000000E+00 -0.29080104321E+02  0.29080104433E+02  0.25500000000E-02 0.  1.
        -24    2    1    2    0    0 -0.35527136788E-14  0.35527136788E-14  0.25826835392E+02  0.83987044378E+02  0.79917446136E+02 0.  0.
         66    2    3    3    0    0  0.31195695430E+02  0.22436533582E+02  0.24343475615E+02  0.45532123070E+02  0.19999934138E+01 0.  0.
         13    1    3    3    0    0 -0.31195695430E+02 -0.22436533582E+02  0.14833597768E+01  0.38454921308E+02  0.10566000000E+00 0. -1.
         13    1    4    4    0    0  0.18026140006E+02  0.13689723222E+02  0.14460973339E+02  0.26860401325E+02  0.10566000000E+00 0. -1.
        -13    1    4    4    0    0  0.79184329817E+01  0.55477662561E+01  0.55353466138E+01  0.11141387593E+02  0.10566000000E+00 0.  1.
        -14    1    4    4    0    0  0.52511224427E+01  0.31990441043E+01  0.43471556619E+01  0.75303341519E+01  0.00000000000E+00 0.  1.
<mgrwt>
<rscale>  0 0.79917446E+02</rscale>
<asrwt>0</asrwt>
<pdfrwt beam="1">  1        1 0.84472215E-02 0.79917446E+02</pdfrwt>
<pdfrwt beam="2">  1       -2 0.44738622E-02 0.79917446E+02</pdfrwt>
<totfact> 0.13389975E+05</totfact>
</mgrwt>
</event>
<event>
 8    1  0.1319619E-020  0.8124147E+02  0.7818608E-02  0.1325565E+00
         -2   -1    0    0    0  501 -0.00000000000E+00  0.00000000000E+00  0.70785969456E+01  0.70785974049E+01  0.25500000000E-02 0.  1.
          1   -1    0    0  501    0  0.00000000000E+00 -0.00000000000E+00 -0.23310329148E+03  0.23310329154E+03  0.50400000000E-02 0. -1.
        -24    2    1    2    0    0  0.00000000000E+00  0.00000000000E+00 -0.22602469454E+03  0.24018188894E+03  0.81241474846E+02 0.  0.
         66    2    3    3    0    0  0.11271349452E+02  0.38225913374E+02 -0.13593791251E+03  0.14167349726E+03  0.19999991317E+01 0.  0.
         13    1    3    3    0    0 -0.11271349452E+02 -0.38225913374E+02 -0.90086782027E+02  0.98508391682E+02  0.10566000000E+00 0. -1.
         13    1    4    4    0    0  0.11196562822E+01  0.48216725233E+01 -0.18210047247E+02  0.18871119227E+02  0.10566000000E+00 0. -1.
        -13    1    4    4    0    0  0.98206921119E+01  0.31244519142E+02 -0.11033182993E+03  0.11509035507E+03  0.10566000000E+00 0.  1.
        -14    1    4    4    0    0  0.33100105772E+00  0.21597217086E+01 -0.73960353329E+01  0.77120229645E+01  0.00000000000E+00 0.  1.
<mgrwt>
<rscale>  0 0.81241475E+02</rscale>
<asrwt>0</asrwt>
<pdfrwt beam="1">  1        1 0.35862039E-01 0.81241475E+02</pdfrwt>
<pdfrwt beam="2">  1       -2 0.10890151E-02 0.81241475E+02</pdfrwt>
<totfact> 0.16492362E+05</totfact>
</mgrwt>
</event>
<event>
 8    1  0.1319619E-020  0.7795915E+02  0.7818608E-02  0.1334945E+00
         -2   -1    0    0    0  501 -0.00000000000E+00  0.00000000000E+00  0.15147587471E+03  0.15147587473E+03  0.25500000000E-02 0.  1.
          1   -1    0    0  501    0  0.00000000000E+00 -0.00000000000E+00 -0.10030688193E+02  0.10030689459E+02  0.50400000000E-02 0. -1.
        -24    2    1    2    0    0 -0.71054273576E-14  0.00000000000E+00  0.14144518652E+03  0.16150656419E+03  0.77959152688E+02 0.  0.
         66    2    3    3    0    0  0.37703200460E+02 -0.54444389965E+01  0.53909388436E+02  0.66040861707E+02  0.20000031646E+01 0.  0.
         13    1    3    3    0    0 -0.37703200460E+02  0.54444389965E+01  0.87535798085E+02  0.95465702486E+02  0.10566000000E+00 0. -1.
         13    1    4    4    0    0  0.16581273749E+02 -0.26877472767E+01  0.24080627334E+02  0.29360694839E+02  0.10566000000E+00 0. -1.
        -13    1    4    4    0    0  0.63740792213E+01 -0.11072537226E+01  0.10062488601E+02  0.11963266176E+02  0.10566000000E+00 0.  1.
         14    1    4    4    0    0  0.14747847489E+02 -0.16494379972E+01  0.19766272500E+02  0.24716900692E+02  0.00000000000E+00 0. -1.
<mgrwt>
<rscale>  0 0.77959153E+02</rscale>
<asrwt>0</asrwt>
<pdfrwt beam="1">  1        1 0.15431829E-02 0.77959153E+02</pdfrwt>
<pdfrwt beam="2">  1       -2 0.23303981E-01 0.77959153E+02</pdfrwt>
<totfact> 0.10067986E+05</totfact>
</mgrwt>
</event>
<event>
 8    1  0.1319619E-020  0.7476138E+02  0.7818608E-02  0.1344612E+00
          1   -1    0    0  501    0  0.00000000000E+00  0.00000000000E+00  0.26136841294E+02  0.26136841780E+02  0.50400000000E-02 0. -1.
         -2   -1    0    0    0  501 -0.00000000000E+00 -0.00000000000E+00 -0.53461541650E+02  0.53461541710E+02  0.25500000000E-02 0.  1.
        -24    2    1    2    0    0  0.88817841970E-15  0.35527136788E-14 -0.27324700356E+02  0.79598383491E+02  0.74761376424E+02 0.  0.
         66    2    3    3    0    0 -0.54578435309E+01 -0.31493441915E+02 -0.34253760356E+02  0.46892910307E+02  0.19999997305E+01 0.  0.
         13    1    3    3    0    0  0.54578435309E+01  0.31493441915E+02  0.69290600002E+01  0.32705473184E+02  0.10566000000E+00 0. -1.
         13    1    4    4    0    0 -0.29441590162E+00 -0.23186317902E+01 -0.20153261749E+01  0.30879504090E+01  0.10566000000E+00 0. -1.
        -13    1    4    4    0    0 -0.16521097538E+00 -0.71071877141E+00 -0.10781735772E+01  0.13061539483E+01  0.10566000000E+00 0.  1.
        -14    1    4    4    0    0 -0.49982166539E+01 -0.28464091353E+02 -0.31160260604E+02  0.42498805950E+02  0.00000000000E+00 0.  1.
<mgrwt>
<rscale>  0 0.74761376E+02</rscale>
<asrwt>0</asrwt>
<pdfrwt beam="1">  1        1 0.40210526E-02 0.74761376E+02</pdfrwt>
<pdfrwt beam="2">  1       -2 0.82248525E-02 0.74761376E+02</pdfrwt>
<totfact> 0.14337888E+05</totfact>
</mgrwt>
</event>
<event>
 8    1  0.1319619E-020  0.7751732E+02  0.7818608E-02  0.1336248E+00
         -2   -1    0    0    0  501 -0.00000000000E+00  0.00000000000E+00  0.13288496303E+02  0.13288496548E+02  0.25500000000E-02 0.  1.
          1   -1    0    0  501    0  0.00000000000E+00 -0.00000000000E+00 -0.11304767563E+03  0.11304767574E+03  0.50400000000E-02 0. -1.
        -24    2    1    2    0    0  0.00000000000E+00  0.00000000000E+00 -0.99759179322E+02  0.12633617229E+03  0.77517317864E+02 0.  0.
         66    2    3    3    0    0  0.27554247474E+02 -0.24933785059E+01 -0.57346822411E+01  0.28325608031E+02  0.19999999176E+01 0.  0.
         13    1    3    3    0    0 -0.27554247474E+02  0.24933785059E+01 -0.94024497081E+02  0.98010564255E+02  0.10566000000E+00 0. -1.
         13    1    4    4    0    0  0.10530094033E+02 -0.10441483885E+01 -0.28968398950E+01  0.10971598408E+02  0.10566000000E+00 0. -1.
        -13    1    4    4    0    0  0.11012630457E+02 -0.61242478541E+00 -0.22384943589E+01  0.11255003987E+02  0.10566000000E+00 0.  1.
        -14    1    4    4    0    0  0.60115229833E+01 -0.83680533200E+00 -0.59934798721E+00  0.60990056363E+01  0.00000000000E+00 0.  1.
<mgrwt>
<rscale>  0 0.77517318E+02</rscale>
<asrwt>0</asrwt>
<pdfrwt beam="1">  1        1 0.17391950E-01 0.77517318E+02</pdfrwt>
<pdfrwt beam="2">  1       -2 0.20443841E-02 0.77517318E+02</pdfrwt>
<totfact> 0.16336621E+05</totfact>
</mgrwt>
</event>
<event>
 8    1  0.1319619E-020  0.8541867E+02  0.7818608E-02  0.1314341E+00
          1   -1    0    0  501    0  0.00000000000E+00  0.00000000000E+00  0.20251402674E+03  0.20251402680E+03  0.50400000000E-02 0. -1.
         -2   -1    0    0    0  501 -0.00000000000E+00 -0.00000000000E+00 -0.90072143967E+01  0.90072147576E+01  0.25500000000E-02 0.  1.
        -24    2    1    2    0    0 -0.71054273576E-14 -0.71054273576E-14  0.19350681234E+03  0.21152124156E+03  0.85418670137E+02 0.  0.
         66    2    3    3    0    0 -0.30159464284E+02 -0.29680452090E+02  0.82894993944E+02  0.93091903743E+02  0.19999998227E+01 0.  0.
         13    1    3    3    0    0  0.30159464284E+02  0.29680452090E+02  0.11061181840E+03  0.11842933782E+03  0.10566000000E+00 0. -1.
         13    1    4    4    0    0 -0.52076554489E+01 -0.49951773088E+01  0.12764953903E+02  0.14663788180E+02  0.10566000000E+00 0. -1.
        -13    1    4    4    0    0 -0.24747498243E+02 -0.24567029106E+02  0.69562232871E+02  0.77813192933E+02  0.10566000000E+00 0.  1.
         14    1    4    4    0    0 -0.20431059222E+00 -0.11824567598E+00  0.56780717050E+00  0.61492262997E+00  0.00000000000E+00 0. -1.
<mgrwt>
<rscale>  0 0.85418670E+02</rscale>
<asrwt>0</asrwt>
<pdfrwt beam="1">  1        1 0.31156000E-01 0.85418670E+02</pdfrwt>
<pdfrwt beam="2">  1       -2 0.13857255E-02 0.85418670E+02</pdfrwt>
<totfact> 0.14036685E+05</totfact>
</mgrwt>
</event>
<event>
 8    1  0.1319619E-020  0.8520267E+02  0.7818608E-02  0.1314903E+00
         -2   -1    0    0    0  501 -0.00000000000E+00  0.00000000000E+00  0.74105490957E+01  0.74105495345E+01  0.25500000000E-02 0.  1.
          1   -1    0    0  501    0  0.00000000000E+00 -0.00000000000E+00 -0.24490404952E+03  0.24490404957E+03  0.50400000000E-02 0. -1.
        -24    2    1    2    0    0  0.00000000000E+00 -0.35527136788E-14 -0.23749350043E+03  0.25231459911E+03  0.85202665325E+02 0.  0.
         66    2    3    3    0    0  0.32541804103E+02  0.17119400438E+02 -0.55241221093E+02  0.66390024692E+02  0.19999962915E+01 0.  0.
         13    1    3    3    0    0 -0.32541804103E+02 -0.17119400438E+02 -0.18225227933E+03  0.18592457442E+03  0.10566000000E+00 0. -1.
         13    1    4    4    0    0  0.67962316020E+01  0.41844697100E+01 -0.12699916094E+02  0.14999919452E+02  0.10566000000E+00 0. -1.
        -13    1    4    4    0    0  0.38923426725E+01  0.21039442579E+01 -0.71327291391E+01  0.83942779277E+01  0.10566000000E+00 0.  1.
        -14    1    4    4    0    0  0.21853229828E+02  0.10830986470E+02 -0.35408575860E+02  0.42995827312E+02  0.00000000000E+00 0.  1.
<mgrwt>
<rscale>  0 0.85202665E+02</rscale>
<asrwt>0</asrwt>
<pdfrwt beam="1">  1        1 0.37677540E-01 0.85202665E+02</pdfrwt>
<pdfrwt beam="2">  1       -2 0.11400847E-02 0.85202665E+02</pdfrwt>
<totfact> 0.14674493E+05</totfact>
</mgrwt>
</event>
<event>
 8    1  0.1319619E-020  0.8026595E+02  0.7818608E-02  0.1328298E+00
         -2   -1    0    0    0  501 -0.00000000000E+00  0.00000000000E+00  0.81549002241E+02  0.81549002281E+02  0.25500000000E-02 0.  1.
          1   -1    0    0  501    0  0.00000000000E+00 -0.00000000000E+00 -0.19750769200E+02  0.19750769843E+02  0.50400000000E-02 0. -1.
        -24    2    1    2    0    0  0.35527136788E-14  0.35527136788E-14  0.61798233040E+02  0.10129977212E+03  0.80265946861E+02 0.  0.
         66    2    3    3    0    0 -0.25665498494E+02 -0.29741676252E+02  0.41121798199E+02  0.56905952273E+02  0.19999994203E+01 0.  0.
         13    1    3    3    0    0  0.25665498494E+02  0.29741676252E+02  0.20676434841E+02  0.44393819851E+02  0.10566000000E+00 0. -1.
         13    1    4    4    0    0 -0.10649118940E+01 -0.17488576701E+01  0.23264096369E+01  0.31009492622E+01  0.10566000000E+00 0. -1.
        -13    1    4    4    0    0 -0.22439381940E+02 -0.25264012861E+02  0.34806661831E+02  0.48510937731E+02  0.10566000000E+00 0.  1.
        -14    1    4    4    0    0 -0.21612046606E+01 -0.27288057207E+01  0.39887267320E+01  0.52940652800E+01  0.00000000000E+00 0.  1.
<mgrwt>
<rscale>  0 0.80265947E+02</rscale>
<asrwt>0</asrwt>
<pdfrwt beam="1">  1        1 0.30385799E-02 0.80265947E+02</pdfrwt>
<pdfrwt beam="2">  1       -2 0.12546001E-01 0.80265947E+02</pdfrwt>
<totfact> 0.11035778E+05</totfact>
</mgrwt>
</event>
<event>
 8    1  0.1319619E-020  0.8026637E+02  0.7818608E-02  0.1328297E+00
          1   -1    0    0  501    0  0.00000000000E+00  0.00000000000E+00  0.89963077530E+01  0.89963091648E+01  0.50400000000E-02 0. -1.
         -2   -1    0    0    0  501 -0.00000000000E+00 -0.00000000000E+00 -0.17903702882E+03  0.17903702884E+03  0.25500000000E-02 0.  1.
        -24    2    1    2    0    0  0.17763568394E-14  0.00000000000E+00 -0.17004072107E+03  0.18803333801E+03  0.80266365183E+02 0.  0.
         66    2    3    3    0    0 -0.10752337673E+02 -0.38639780933E+02 -0.84725989274E+02  0.93761072405E+02  0.20000010540E+01 0.  0.
         13    1    3    3    0    0  0.10752337673E+02  0.38639780933E+02 -0.85314731798E+02  0.94272265602E+02  0.10566000000E+00 0. -1.
         13    1    4    4    0    0 -0.23639911886E+01 -0.96972847851E+01 -0.22756266599E+02  0.24849237817E+02  0.10566000000E+00 0.  1.
        -13    1    4    4    0    0 -0.40991990158E+00 -0.18840667706E+01 -0.37945423804E+01  0.42576352396E+01  0.10566000000E+00 0. -1.
         14    1    4    4    0    0 -0.79784265828E+01 -0.27058429377E+02 -0.58175180294E+02  0.64654199348E+02  0.00000000000E+00 0. -1.
<mgrwt>
<rscale>  0 0.80266365E+02</rscale>
<asrwt>0</asrwt>
<pdfrwt beam="1">  1        1 0.13840476E-02 0.80266365E+02</pdfrwt>
<pdfrwt beam="2">  1       -2 0.27544156E-01 0.80266365E+02</pdfrwt>
<totfact> 0.88070207E+04</totfact>
</mgrwt>
</event>
<event>
 8    1  0.1319619E-020  0.8139034E+02  0.7818608E-02  0.1325152E+00
         -2   -1    0    0    0  501 -0.00000000000E+00  0.00000000000E+00  0.22570088324E+03  0.22570088325E+03  0.25500000000E-02 0.  1.
          1   -1    0    0  501    0  0.00000000000E+00 -0.00000000000E+00 -0.73375730358E+01  0.73375747667E+01  0.50400000000E-02 0. -1.
        -24    2    1    2    0    0  0.00000000000E+00  0.00000000000E+00  0.21836331020E+03  0.23303845802E+03  0.81390341401E+02 0.  0.
         66    2    3    3    0    0  0.10131048984E+02 -0.35733642274E+02  0.15669058251E+03  0.16104493159E+03  0.19999993212E+01 0.  0.
         13    1    3    3    0    0 -0.10131048984E+02  0.35733642274E+02  0.61672727686E+02  0.71993526431E+02  0.10566000000E+00 0. -1.
         13    1    4    4    0    0  0.58036328438E+01 -0.19126402704E+02  0.87067365654E+02  0.89332182110E+02  0.10566000000E+00 0. -1.
        -13    1    4    4    0    0  0.28156506513E+01 -0.10044202652E+02  0.40680252948E+02  0.41996524136E+02  0.10566000000E+00 0.  1.
         14    1    4    4    0    0  0.15117654886E+01 -0.65630369185E+01  0.28942963911E+02  0.29716225340E+02  0.00000000000E+00 0. -1.
<mgrwt>
<rscale>  0 0.81390341E+02</rscale>
<asrwt>0</asrwt>
<pdfrwt beam="1">  1        1 0.11288573E-02 0.81390341E+02</pdfrwt>
<pdfrwt beam="2">  1       -2 0.34723220E-01 0.81390341E+02</pdfrwt>
<totfact> 0.77307506E+04</totfact>
</mgrwt>
</event>
<event>
 8    1  0.1319619E-020  0.7944077E+02  0.7818608E-02  0.1330646E+00
         -2   -1    0    0    0  501 -0.00000000000E+00  0.00000000000E+00  0.25771898322E+03  0.25771898323E+03  0.25500000000E-02 0.  1.
          1   -1    0    0  501    0  0.00000000000E+00 -0.00000000000E+00 -0.61218186506E+01  0.61218207253E+01  0.50400000000E-02 0. -1.
        -24    2    1    2    0    0 -0.71054273576E-14  0.88817841970E-15  0.25159716457E+03  0.26384080396E+03  0.79440774252E+02 0.  0.
         66    2    3    3    0    0  0.38681283761E+02 -0.60399057626E+01  0.14765228129E+03  0.15276753039E+03  0.19999997969E+01 0.  0.
         13    1    3    3    0    0 -0.38681283761E+02  0.60399057626E+01  0.10394488328E+03  0.11107327356E+03  0.10566000000E+00 0. -1.
         13    1    4    4    0    0  0.18411994636E+02 -0.30543627309E+01  0.73513941261E+02  0.75846169329E+02  0.10566000000E+00 0. -1.
        -13    1    4    4    0    0  0.51747894302E+01 -0.42615659675E+00  0.18985571293E+02  0.19683067252E+02  0.10566000000E+00 0.  1.
         14    1    4    4    0    0  0.15094499694E+02 -0.25593864350E+01  0.55152768732E+02  0.57238293814E+02  0.00000000000E+00 0. -1.
<mgrwt>
<rscale>  0 0.79440774E+02</rscale>
<asrwt>0</asrwt>
<pdfrwt beam="1">  1        1 0.94181836E-03 0.79440774E+02</pdfrwt>
<pdfrwt beam="2">  1       -2 0.39649077E-01 0.79440774E+02</pdfrwt>
<totfact> 0.77381818E+04</totfact>
</mgrwt>
</event>
<event>
 8    1  0.1319619E-020  0.8129672E+02  0.7818608E-02  0.1325411E+00
         -2   -1    0    0    0  501 -0.00000000000E+00  0.00000000000E+00  0.70041881465E+02  0.70041881511E+02  0.25500000000E-02 0.  1.
          1   -1    0    0  501    0  0.00000000000E+00 -0.00000000000E+00 -0.23590015300E+02  0.23590015838E+02  0.50400000000E-02 0. -1.
        -24    2    1    2    0    0  0.35527136788E-14  0.17763568394E-14  0.46451866165E+02  0.93631897350E+02  0.81296717837E+02 0.  0.
         66    2    3    3    0    0 -0.30589499195E+02 -0.15271921308E+02  0.48508165463E+02  0.59380056928E+02  0.20000006988E+01 0.  0.
         13    1    3    3    0    0  0.30589499195E+02  0.15271921308E+02 -0.20562992980E+01  0.34251840422E+02  0.10566000000E+00 0. -1.
         13    1    4    4    0    0 -0.73830434320E+01 -0.38565342770E+01  0.12998944324E+02  0.15439103099E+02  0.10566000000E+00 0. -1.
        -13    1    4    4    0    0 -0.17619093275E+02 -0.88500205174E+01  0.27737691718E+02  0.34031544439E+02  0.10566000000E+00 0.  1.
         14    1    4    4    0    0 -0.55873624881E+01 -0.25653665138E+01  0.77715294208E+01  0.99094093902E+01  0.00000000000E+00 0. -1.
<mgrwt>
<rscale>  0 0.81296718E+02</rscale>
<asrwt>0</asrwt>
<pdfrwt beam="1">  1        1 0.36292332E-02 0.81296718E+02</pdfrwt>
<pdfrwt beam="2">  1       -2 0.10775674E-01 0.81296718E+02</pdfrwt>
<totfact> 0.11029842E+05</totfact>
</mgrwt>
</event>
<event>
 8    1  0.1319619E-020  0.8114978E+02  0.7818608E-02  0.1325820E+00
          1   -1    0    0  501    0  0.00000000000E+00  0.00000000000E+00  0.12113907319E+02  0.12113908367E+02  0.50400000000E-02 0. -1.
         -2   -1    0    0    0  501 -0.00000000000E+00 -0.00000000000E+00 -0.13590343852E+03  0.13590343855E+03  0.25500000000E-02 0.  1.
        -24    2    1    2    0    0  0.00000000000E+00  0.00000000000E+00 -0.12378953120E+03  0.14801734691E+03  0.81149780972E+02 0.  0.
         66    2    3    3    0    0 -0.34766918888E+02  0.15643635276E+02 -0.87130878538E+02  0.95127556284E+02  0.19999990269E+01 0.  0.
         13    1    3    3    0    0  0.34766918888E+02 -0.15643635276E+02 -0.36658652666E+02  0.52889790630E+02  0.10566000000E+00 0. -1.
         13    1    4    4    0    0 -0.56899225655E+01  0.24121695710E+01 -0.15061744958E+02  0.16280697345E+02  0.10566000000E+00 0. -1.
        -13    1    4    4    0    0 -0.15721732703E+02  0.68633118505E+01 -0.40437512427E+02  0.43925863726E+02  0.10566000000E+00 0.  1.
        -14    1    4    4    0    0 -0.13355263619E+02  0.63681538542E+01 -0.31631621153E+02  0.34920995213E+02  0.00000000000E+00 0.  1.
<mgrwt>
<rscale>  0 0.81149781E+02</rscale>
<asrwt>0</asrwt>
<pdfrwt beam="1">  1        1 0.18636782E-02 0.81149781E+02</pdfrwt>
<pdfrwt beam="2">  1       -2 0.20908220E-01 0.81149781E+02</pdfrwt>
<totfact> 0.94003857E+04</totfact>
</mgrwt>
</event>
<event>
 8    1  0.1319619E-020  0.7926185E+02  0.7818608E-02  0.1331159E+00
         -2   -1    0    0    0  501 -0.00000000000E+00  0.00000000000E+00  0.10898193346E+02  0.10898193644E+02  0.25500000000E-02 0.  1.
          1   -1    0    0  501    0  0.00000000000E+00 -0.00000000000E+00 -0.14411657023E+03  0.14411657032E+03  0.50400000000E-02 0. -1.
        -24    2    1    2    0    0  0.00000000000E+00  0.00000000000E+00 -0.13321837688E+03  0.15501476396E+03  0.79261851522E+02 0.  0.
         66    2    3    3    0    0  0.33788974425E+02 -0.19953915101E+02 -0.77138238455E+02  0.86568824632E+02  0.20000114129E+01 0.  0.
         13    1    3    3    0    0 -0.33788974425E+02  0.19953915101E+02 -0.56080138427E+02  0.68445939328E+02  0.10566000000E+00 0. -1.
         13    1    4    4    0    0  0.11733189249E+02 -0.75661926600E+01 -0.27459817105E+02  0.30805319683E+02  0.10566000000E+00 0. -1.
        -13    1    4    4    0    0  0.20438659747E+02 -0.11559507249E+02 -0.46783699098E+02  0.52345837327E+02  0.10566000000E+00 0.  1.
         14    1    4    4    0    0  0.16171254289E+01 -0.82821519250E+00 -0.28947222519E+01  0.34176676219E+01  0.00000000000E+00 0. -1.
<mgrwt>
<rscale>  0 0.79261852E+02</rscale>
<asrwt>0</asrwt>
<pdfrwt beam="1">  1        1 0.22171779E-01 0.79261852E+02</pdfrwt>
<pdfrwt beam="2">  1       -2 0.16766453E-02 0.79261852E+02</pdfrwt>
<totfact> 0.16065997E+05</totfact>
</mgrwt>
</event>
<event>
 8    1  0.1319619E-020  0.8379679E+02  0.7818608E-02  0.1318609E+00
         -2   -1    0    0    0  501 -0.00000000000E+00  0.00000000000E+00  0.76485957504E+02  0.76485957546E+02  0.25500000000E-02 0.  1.
          1   -1    0    0  501    0  0.00000000000E+00 -0.00000000000E+00 -0.22951603184E+02  0.22951603737E+02  0.50400000000E-02 0. -1.
        -24    2    1    2    0    0  0.00000000000E+00  0.71054273576E-14  0.53534354320E+02  0.99437561284E+02  0.83796786941E+02 0.  0.
         66    2    3    3    0    0  0.12700321480E+02  0.36234650168E+02  0.46611260580E+02  0.60422327983E+02  0.20000168875E+01 0.  0.
         13    1    3    3    0    0 -0.12700321480E+02 -0.36234650168E+02  0.69230937395E+01  0.39015233300E+02  0.10566000000E+00 0. -1.
         13    1    4    4    0    0  0.39355626164E+01  0.13535921340E+02  0.16353909231E+02  0.21591001153E+02  0.10566000000E+00 0. -1.
        -13    1    4    4    0    0  0.62352908166E+01  0.16603948682E+02  0.21767505839E+02  0.28078558330E+02  0.10566000000E+00 0.  1.
         14    1    4    4    0    0  0.25294680468E+01  0.60947801468E+01  0.84898455103E+01  0.10752768501E+02  0.00000000000E+00 0. -1.
<mgrwt>
<rscale>  0 0.83796787E+02</rscale>
<asrwt>0</asrwt>
<pdfrwt beam="1">  1        1 0.35310160E-02 0.83796787E+02</pdfrwt>
<pdfrwt beam="2">  1       -2 0.11767070E-01 0.83796787E+02</pdfrwt>
<totfact> 0.10026614E+05</totfact>
</mgrwt>
</event>
<event>
 8    1  0.1319619E-020  0.8148819E+02  0.7818608E-02  0.1324880E+00
         -2   -1    0    0    0  501 -0.00000000000E+00  0.00000000000E+00  0.18857064124E+02  0.18857064296E+02  0.25500000000E-02 0.  1.
          1   -1    0    0  501    0  0.00000000000E+00 -0.00000000000E+00 -0.88034982290E+02  0.88034982434E+02  0.50400000000E-02 0. -1.
        -24    2    1    2    0    0 -0.44408920985E-15  0.00000000000E+00 -0.69177918166E+02  0.10689204673E+03  0.81488191123E+02 0.  0.
         66    2    3    3    0    0 -0.35576267548E+01 -0.39286444221E+02 -0.47857422179E+02  0.62051706401E+02  0.20000005077E+01 0.  0.
         13    1    3    3    0    0  0.35576267548E+01  0.39286444221E+02 -0.21320495987E+02  0.44840340329E+02  0.10566000000E+00 0. -1.
         13    1    4    4    0    0 -0.48133228005E+00 -0.45575376624E+01 -0.50596962953E+01  0.68274827678E+01  0.10566000000E+00 0. -1.
        -13    1    4    4    0    0 -0.29869733252E+01 -0.26195541642E+02 -0.32109983793E+02  0.41547450401E+02  0.10566000000E+00 0.  1.
         14    1    4    4    0    0 -0.89321149543E-01 -0.85333649164E+01 -0.10687742090E+02  0.13676773233E+02  0.00000000000E+00 0. -1.
<mgrwt>
<rscale>  0 0.81488191E+02</rscale>
<asrwt>0</asrwt>
<pdfrwt beam="1">  1        1 0.13543843E-01 0.81488191E+02</pdfrwt>
<pdfrwt beam="2">  1       -2 0.29010869E-02 0.81488191E+02</pdfrwt>
<totfact> 0.13688370E+05</totfact>
</mgrwt>
</event>
<event>
 8    1  0.1319619E-020  0.7010008E+02  0.7818608E-02  0.1359753E+00
          1   -1    0    0  501    0  0.00000000000E+00  0.00000000000E+00  0.35189033070E+02  0.35189033431E+02  0.50400000000E-02 0. -1.
         -2   -1    0    0    0  501 -0.00000000000E+00 -0.00000000000E+00 -0.34911599403E+02  0.34911599496E+02  0.25500000000E-02 0.  1.
        -24    2    1    2    0    0  0.00000000000E+00  0.00000000000E+00  0.27743366706E+00  0.70100632927E+02  0.70100083932E+02 0.  0.
         66    2    3    3    0    0  0.22828301442E+02 -0.13132858533E+02 -0.22945920868E+02  0.34987406361E+02  0.19999998671E+01 0.  0.
         13    1    3    3    0    0 -0.22828301442E+02  0.13132858533E+02  0.23223354535E+02  0.35113226566E+02  0.10566000000E+00 0. -1.
         13    1    4    4    0    0  0.51025187302E+01 -0.35205711891E+01 -0.46938276176E+01  0.77764581031E+01  0.10566000000E+00 0. -1.
        -13    1    4    4    0    0  0.76113325899E+01 -0.41529080851E+01 -0.73046194201E+01  0.11337885970E+02  0.10566000000E+00 0.  1.
        -14    1    4    4    0    0  0.10114450122E+02 -0.54593792584E+01 -0.10947473830E+02  0.15873062288E+02  0.00000000000E+00 0.  1.
<mgrwt>
<rscale>  0 0.70100084E+02</rscale>
<asrwt>0</asrwt>
<pdfrwt beam="1">  1        1 0.54136974E-02 0.70100084E+02</pdfrwt>
<pdfrwt beam="2">  1       -2 0.53710153E-02 0.70100084E+02</pdfrwt>
<totfact> 0.17998655E+05</totfact>
</mgrwt>
</event>
<event>
 8    1  0.1319619E-020  0.7665312E+02  0.7818608E-02  0.1338827E+00
          1   -1    0    0  501    0  0.00000000000E+00  0.00000000000E+00  0.58178718923E+02  0.58178719142E+02  0.50400000000E-02 0. -1.
         -2   -1    0    0    0  501 -0.00000000000E+00 -0.00000000000E+00 -0.25248499647E+02  0.25248499776E+02  0.25500000000E-02 0.  1.
        -24    2    1    2    0    0  0.00000000000E+00  0.00000000000E+00  0.32930219277E+02  0.83427218917E+02  0.76653124624E+02 0.  0.
         66    2    3    3    0    0 -0.23110703987E+02  0.15627608646E+02 -0.12083792678E+02  0.30468751917E+02  0.20000017744E+01 0.  0.
         13    1    3    3    0    0  0.23110703987E+02 -0.15627608646E+02  0.45014011955E+02  0.52958467001E+02  0.10566000000E+00 0. -1.
         13    1    4    4    0    0 -0.14367390250E+02  0.97257777894E+01 -0.65658743431E+01  0.18550863218E+02  0.10566000000E+00 0. -1.
        -13    1    4    4    0    0 -0.67171301691E+01  0.44682160007E+01 -0.39626097052E+01  0.89887836579E+01  0.10566000000E+00 0.  1.
        -14    1    4    4    0    0 -0.20261835684E+01  0.14336148556E+01 -0.15553086297E+01  0.29291050409E+01  0.00000000000E+00 0.  1.
<mgrwt>
<rscale>  0 0.76653125E+02</rscale>
<asrwt>0</asrwt>
<pdfrwt beam="1">  1        1 0.89505720E-02 0.76653125E+02</pdfrwt>
<pdfrwt beam="2">  1       -2 0.38843846E-02 0.76653125E+02</pdfrwt>
<totfact> 0.15154183E+05</totfact>
</mgrwt>
</event>
<event>
 8    1  0.1319619E-020  0.8205946E+02  0.7818608E-02  0.1323307E+00
         -2   -1    0    0    0  501 -0.00000000000E+00  0.00000000000E+00  0.17868421805E+02  0.17868421987E+02  0.25500000000E-02 0.  1.
          1   -1    0    0  501    0  0.00000000000E+00 -0.00000000000E+00 -0.94213070317E+02  0.94213070451E+02  0.50400000000E-02 0. -1.
        -24    2    1    2    0    0  0.00000000000E+00  0.00000000000E+00 -0.76344648512E+02  0.11208149244E+03  0.82059463750E+02 0.  0.
         66    2    3    3    0    0 -0.44042087863E+01 -0.21063440602E+02  0.94804840854E+01  0.23599685640E+02  0.19999996930E+01 0.  0.
         13    1    3    3    0    0  0.44042087863E+01  0.21063440602E+02 -0.85825132597E+02  0.88481806799E+02  0.10566000000E+00 0. -1.
         13    1    4    4    0    0 -0.29473433534E+00 -0.29334177203E+01  0.18814415731E+01  0.34989704598E+01  0.10566000000E+00 0. -1.
        -13    1    4    4    0    0 -0.41254581633E+01 -0.17663218762E+02  0.73508145538E+01  0.19571774083E+02  0.10566000000E+00 0.  1.
        -14    1    4    4    0    0  0.15983712399E-01 -0.46680411966E+00  0.24822795849E+00  0.52894109745E+00  0.00000000000E+00 0.  1.
<mgrwt>
<rscale>  0 0.82059464E+02</rscale>
<asrwt>0</asrwt>
<pdfrwt beam="1">  1        1 0.14494318E-01 0.82059464E+02</pdfrwt>
<pdfrwt beam="2">  1       -2 0.27489880E-02 0.82059464E+02</pdfrwt>
<totfact> 0.13583822E+05</totfact>
</mgrwt>
</event>
<event>
 8    1  0.1319619E-020  0.8040213E+02  0.7818608E-02  0.1327914E+00
         -2   -1    0    0    0  501 -0.00000000000E+00  0.00000000000E+00  0.24993969823E+02  0.24993969953E+02  0.25500000000E-02 0.  1.
          1   -1    0    0  501    0  0.00000000000E+00 -0.00000000000E+00 -0.64660623098E+02  0.64660623295E+02  0.50400000000E-02 0. -1.
        -24    2    1    2    0    0  0.00000000000E+00  0.00000000000E+00 -0.39666653275E+02  0.89654593248E+02  0.80402131243E+02 0.  0.
         66    2    3    3    0    0 -0.32619930792E+02  0.19586316408E+02 -0.54598984732E+01  0.38490182634E+02  0.19999981311E+01 0.  0.
         13    1    3    3    0    0  0.32619930792E+02 -0.19586316408E+02 -0.34206754802E+02  0.51164410614E+02  0.10566000000E+00 0. -1.
         13    1    4    4    0    0 -0.45852583775E+01  0.34365533876E+01 -0.50866773175E+00  0.57536423656E+01  0.10566000000E+00 0. -1.
        -13    1    4    4    0    0 -0.58208149024E+01  0.30965850715E+01 -0.10993886184E+01  0.66850986981E+01  0.10566000000E+00 0.  1.
        -14    1    4    4    0    0 -0.22213857512E+02  0.13053177949E+02 -0.38518421231E+01  0.26051441570E+02  0.00000000000E+00 0.  1.
<mgrwt>
<rscale>  0 0.80402131E+02</rscale>
<asrwt>0</asrwt>
<pdfrwt beam="1">  1        1 0.99477881E-02 0.80402131E+02</pdfrwt>
<pdfrwt beam="2">  1       -2 0.38452262E-02 0.80402131E+02</pdfrwt>
<totfact> 0.13510735E+05</totfact>
</mgrwt>
</event>
<event>
 8    1  0.1319619E-020  0.7912814E+02  0.7818608E-02  0.1331544E+00
          1   -1    0    0  501    0  0.00000000000E+00  0.00000000000E+00  0.12113873507E+02  0.12113874556E+02  0.50400000000E-02 0. -1.
         -2   -1    0    0    0  501 -0.00000000000E+00 -0.00000000000E+00 -0.12921677847E+03  0.12921677849E+03  0.25500000000E-02 0.  1.
        -24    2    1    2    0    0  0.00000000000E+00  0.00000000000E+00 -0.11710290496E+03  0.14133065305E+03  0.79128143797E+02 0.  0.
         66    2    3    3    0    0 -0.24123177536E+02  0.24802414749E+02 -0.92769253803E+02  0.99031418841E+02  0.19999986640E+01 0.  0.
         13    1    3    3    0    0  0.24123177536E+02 -0.24802414749E+02 -0.24333651156E+02  0.42299234206E+02  0.10566000000E+00 0. -1.
         13    1    4    4    0    0 -0.34111696629E+01  0.42304870473E+01 -0.14324172771E+02  0.15320776375E+02  0.10566000000E+00 0.  1.
        -13    1    4    4    0    0 -0.73188788933E+01  0.66339558786E+01 -0.25400805167E+02  0.27254126770E+02  0.10566000000E+00 0. -1.
         14    1    4    4    0    0 -0.13393128979E+02  0.13937971823E+02 -0.53044275866E+02  0.56456515696E+02  0.00000000000E+00 0. -1.
<mgrwt>
<rscale>  0 0.79128144E+02</rscale>
<asrwt>0</asrwt>
<pdfrwt beam="1">  1        1 0.18636730E-02 0.79128144E+02</pdfrwt>
<pdfrwt beam="2">  1       -2 0.19879503E-01 0.79128144E+02</pdfrwt>
<totfact> 0.10183702E+05</totfact>
</mgrwt>
</event>
<event>
 8    1  0.1319619E-020  0.7895624E+02  0.7818608E-02  0.1332040E+00
          1   -1    0    0  501    0  0.00000000000E+00  0.00000000000E+00  0.24988160005E+03  0.24988160010E+03  0.50400000000E-02 0. -1.
         -2   -1    0    0    0  501 -0.00000000000E+00 -0.00000000000E+00 -0.62370421741E+01  0.62370426953E+01  0.25500000000E-02 0.  1.
        -24    2    1    2    0    0  0.00000000000E+00 -0.71054273576E-14  0.24364455787E+03  0.25611864279E+03  0.78956244877E+02 0.  0.
         66    2    3    3    0    0  0.11470644715E+02  0.33689883401E+02  0.66666577168E+02  0.75597727794E+02  0.20000006387E+01 0.  0.
         13    1    3    3    0    0 -0.11470644715E+02 -0.33689883401E+02  0.17697798070E+03  0.18052091500E+03  0.10566000000E+00 0. -1.
         13    1    4    4    0    0  0.30031941371E+01  0.98954016765E+01  0.20030080496E+02  0.22542258939E+02  0.10566000000E+00 0. -1.
        -13    1    4    4    0    0  0.83305760547E+01  0.22767457806E+02  0.45079662558E+02  0.51185376552E+02  0.10566000000E+00 0.  1.
        -14    1    4    4    0    0  0.13687452352E+00  0.10270239182E+01  0.15568341138E+01  0.18700923030E+01  0.00000000000E+00 0.  1.
<mgrwt>
<rscale>  0 0.78956245E+02</rscale>
<asrwt>0</asrwt>
<pdfrwt beam="1">  1        1 0.38443318E-01 0.78956245E+02</pdfrwt>
<pdfrwt beam="2">  1       -2 0.95954512E-03 0.78956245E+02</pdfrwt>
<totfact> 0.18028551E+05</totfact>
</mgrwt>
</event>
<event>
 8    1  0.1319619E-020  0.7484507E+02  0.7818608E-02  0.1344351E+00
          1   -1    0    0  501    0  0.00000000000E+00  0.00000000000E+00  0.31034483264E+03  0.31034483268E+03  0.50400000000E-02 0. -1.
         -2   -1    0    0    0  501 -0.00000000000E+00 -0.00000000000E+00 -0.45125479985E+01  0.45125487190E+01  0.25500000000E-02 0.  1.
        -24    2    1    2    0    0  0.35527136788E-14 -0.71054273576E-14  0.30583228464E+03  0.31485738140E+03  0.74845068594E+02 0.  0.
         66    2    3    3    0    0  0.16624808648E+02 -0.33374875837E+02  0.14099729080E+03  0.14585781644E+03  0.20000006024E+01 0.  0.
         13    1    3    3    0    0 -0.16624808648E+02  0.33374875837E+02  0.16483499384E+03  0.16899956496E+03  0.10566000000E+00 0. -1.
         13    1    4    4    0    0  0.17583025728E+01 -0.39073230817E+01  0.18263447006E+02  0.18759623189E+02  0.10566000000E+00 0. -1.
        -13    1    4    4    0    0  0.74181517583E+01 -0.15604461319E+02  0.65323946358E+02  0.67570387896E+02  0.10566000000E+00 0.  1.
        -14    1    4    4    0    0  0.74483543165E+01 -0.13863091436E+02  0.57409897437E+02  0.59527805351E+02  0.00000000000E+00 0.  1.
<mgrwt>
<rscale>  0 0.74845069E+02</rscale>
<asrwt>0</asrwt>
<pdfrwt beam="1">  1        1 0.47745374E-01 0.74845069E+02</pdfrwt>
<pdfrwt beam="2">  1       -2 0.69423799E-03 0.74845069E+02</pdfrwt>
<totfact> 0.21627733E+05</totfact>
</mgrwt>
</event>
<event>
 8    1  0.1319619E-020  0.8354208E+02  0.7818608E-02  0.1319290E+00
          1   -1    0    0  501    0  0.00000000000E+00  0.00000000000E+00  0.39702162666E+02  0.39702162986E+02  0.50400000000E-02 0. -1.
         -2   -1    0    0    0  501 -0.00000000000E+00 -0.00000000000E+00 -0.43947726982E+02  0.43947727056E+02  0.25500000000E-02 0.  1.
        -24    2    1    2    0    0  0.35527136788E-14  0.00000000000E+00 -0.42455643155E+01  0.83649890042E+02  0.83542080940E+02 0.  0.
         66    2    3    3    0    0 -0.26718545624E+02 -0.16350173306E+02 -0.29756818279E+02  0.43251324595E+02  0.19999994417E+01 0.  0.
         13    1    3    3    0    0  0.26718545624E+02  0.16350173306E+02  0.25511253963E+02  0.40398565447E+02  0.10566000000E+00 0. -1.
         13    1    4    4    0    0 -0.55225582393E+01 -0.27097767904E+01 -0.64009594246E+01  0.88783436153E+01  0.10566000000E+00 0. -1.
        -13    1    4    4    0    0 -0.19352884935E+02 -0.12501048308E+02 -0.21645139636E+02  0.31612238105E+02  0.10566000000E+00 0.  1.
        -14    1    4    4    0    0 -0.18431024492E+01 -0.11393482081E+01 -0.17107192177E+01  0.27607428745E+01  0.00000000000E+00 0.  1.
<mgrwt>
<rscale>  0 0.83542081E+02</rscale>
<asrwt>0</asrwt>
<pdfrwt beam="1">  1        1 0.61080251E-02 0.83542081E+02</pdfrwt>
<pdfrwt beam="2">  1       -2 0.67611888E-02 0.83542081E+02</pdfrwt>
<totfact> 0.11218334E+05</totfact>
</mgrwt>
</event>
<event>
 8    1  0.1319619E-020  0.7979139E+02  0.7818608E-02  0.1329644E+00
         -2   -1    0    0    0  501 -0.00000000000E+00  0.00000000000E+00  0.50683069373E+02  0.50683069437E+02  0.25500000000E-02 0.  1.
          1   -1    0    0  501    0  0.00000000000E+00 -0.00000000000E+00 -0.31404301785E+02  0.31404302190E+02  0.50400000000E-02 0. -1.
        -24    2    1    2    0    0  0.00000000000E+00  0.00000000000E+00  0.19278767588E+02  0.82087371627E+02  0.79791388639E+02 0.  0.
         66    2    3    3    0    0 -0.32705716672E+02 -0.11123772549E+02  0.30124483718E+02  0.45879044668E+02  0.20000004132E+01 0.  0.
         13    1    3    3    0    0  0.32705716672E+02  0.11123772549E+02 -0.10845716130E+02  0.36208326959E+02  0.10566000000E+00 0. -1.
         13    1    4    4    0    0 -0.31628496521E+01 -0.13106100053E+01  0.35683246108E+01  0.49462532356E+01  0.10566000000E+00 0. -1.
        -13    1    4    4    0    0 -0.17610144989E+02 -0.55030187211E+01  0.16280912827E+02  0.24606497274E+02  0.10566000000E+00 0.  1.
        -14    1    4    4    0    0 -0.11932722030E+02 -0.43101438225E+01  0.10275246280E+02  0.16326294158E+02  0.00000000000E+00 0.  1.
<mgrwt>
<rscale>  0 0.79791389E+02</rscale>
<asrwt>0</asrwt>
<pdfrwt beam="1">  1        1 0.48314311E-02 0.79791389E+02</pdfrwt>
<pdfrwt beam="2">  1       -2 0.77973953E-02 0.79791389E+02</pdfrwt>
<totfact> 0.12283854E+05</totfact>
</mgrwt>
</event>
<event>
 8    1  0.1319619E-020  0.8077397E+02  0.7818608E-02  0.1326869E+00
         -2   -1    0    0    0  501 -0.00000000000E+00  0.00000000000E+00  0.27922502033E+02  0.27922502150E+02  0.25500000000E-02 0.  1.
          1   -1    0    0  501    0  0.00000000000E+00 -0.00000000000E+00 -0.58415562316E+02  0.58415562534E+02  0.50400000000E-02 0. -1.
        -24    2    1    2    0    0  0.71054273576E-14  0.00000000000E+00 -0.30493060283E+02  0.86338064683E+02  0.80773972837E+02 0.  0.
         66    2    3    3    0    0 -0.37930222440E+02  0.98965141802E+01 -0.25533884300E+02  0.46825441919E+02  0.19999990619E+01 0.  0.
         13    1    3    3    0    0  0.37930222440E+02 -0.98965141802E+01 -0.49591759831E+01  0.39512622764E+02  0.10566000000E+00 0. -1.
         13    1    4    4    0    0 -0.12995552285E+02  0.37259250113E+01 -0.91965454342E+01  0.16350978819E+02  0.10566000000E+00 0. -1.
        -13    1    4    4    0    0 -0.13459420412E+02  0.33393247336E+01 -0.96425411453E+01  0.16890732704E+02  0.10566000000E+00 0.  1.
         14    1    4    4    0    0 -0.11475249743E+02  0.28312644353E+01 -0.66947977205E+01  0.13583730396E+02  0.00000000000E+00 0. -1.
<mgrwt>
<rscale>  0 0.80773973E+02</rscale>
<asrwt>0</asrwt>
<pdfrwt beam="1">  1        1 0.89870096E-02 0.80773973E+02</pdfrwt>
<pdfrwt beam="2">  1       -2 0.42957696E-02 0.80773973E+02</pdfrwt>
<totfact> 0.13128048E+05</totfact>
</mgrwt>
</event>
<event>
 8    1  0.1319619E-020  0.7990251E+02  0.7818608E-02  0.1329328E+00
          1   -1    0    0  501    0  0.00000000000E+00  0.00000000000E+00  0.43081357118E+01  0.43081386599E+01  0.50400000000E-02 0. -1.
         -2   -1    0    0    0  501 -0.00000000000E+00 -0.00000000000E+00 -0.37048558160E+03  0.37048558161E+03  0.25500000000E-02 0.  1.
        -24    2    1    2    0    0  0.00000000000E+00  0.00000000000E+00 -0.36617744589E+03  0.37479372027E+03  0.79902508569E+02 0.  0.
         66    2    3    3    0    0 -0.35844837775E+02  0.10624890133E+02 -0.24893183150E+03  0.25173159798E+03  0.20000002320E+01 0.  0.
         13    1    3    3    0    0  0.35844837775E+02 -0.10624890133E+02 -0.11724561439E+03  0.12306212229E+03  0.10566000000E+00 0. -1.
         13    1    4    4    0    0 -0.15042592803E+02  0.48590558018E+01 -0.11086402324E+03  0.11198541349E+03  0.10566000000E+00 0. -1.
        -13    1    4    4    0    0 -0.11170982987E+01  0.35149659104E+00 -0.71640129802E+01  0.72598694533E+01  0.10566000000E+00 0.  1.
         14    1    4    4    0    0 -0.19685146674E+02  0.54143377401E+01 -0.13090379528E+03  0.13248631503E+03  0.00000000000E+00 0. -1.
<mgrwt>
<rscale>  0 0.79902509E+02</rscale>
<asrwt>0</asrwt>
<pdfrwt beam="1">  1        1 0.66279063E-03 0.79902509E+02</pdfrwt>
<pdfrwt beam="2">  1       -2 0.56997757E-01 0.79902509E+02</pdfrwt>
<totfact> 0.62288865E+04</totfact>
</mgrwt>
</event>
<event>
 8    1  0.1319619E-020  0.8024285E+02  0.7818608E-02  0.1328364E+00
          1   -1    0    0  501    0  0.00000000000E+00  0.00000000000E+00  0.62275841891E+02  0.62275842095E+02  0.50400000000E-02 0. -1.
         -2   -1    0    0    0  501 -0.00000000000E+00 -0.00000000000E+00 -0.25848368177E+02  0.25848368303E+02  0.25500000000E-02 0.  1.
        -24    2    1    2    0    0 -0.17763568394E-14  0.00000000000E+00  0.36427473714E+02  0.88124210397E+02  0.80242853993E+02 0.  0.
         66    2    3    3    0    0 -0.14527448102E+02  0.18692625921E+02 -0.17314923737E+02  0.29398428495E+02  0.20000004548E+01 0.  0.
         13    1    3    3    0    0  0.14527448102E+02 -0.18692625921E+02  0.53742397451E+02  0.58725781902E+02  0.10566000000E+00 0. -1.
         13    1    4    4    0    0 -0.47809074478E+01  0.55322864832E+01 -0.47554805981E+01  0.87229025852E+01  0.10566000000E+00 0. -1.
        -13    1    4    4    0    0 -0.90715116099E+01  0.12190317049E+02 -0.11218516407E+02  0.18888155734E+02  0.10566000000E+00 0.  1.
         14    1    4    4    0    0 -0.67502904429E+00  0.97002238884E+00 -0.13409267319E+01  0.17873701759E+01  0.00000000000E+00 0. -1.
<mgrwt>
<rscale>  0 0.80242854E+02</rscale>
<asrwt>0</asrwt>
<pdfrwt beam="1">  1        1 0.95808988E-02 0.80242854E+02</pdfrwt>
<pdfrwt beam="2">  1       -2 0.39766720E-02 0.80242854E+02</pdfrwt>
<totfact> 0.13504512E+05</totfact>
</mgrwt>
</event>
<event>
 8    1  0.1319619E-020  0.8574239E+02  0.7818608E-02  0.1313502E+00
         -2   -1    0    0    0  501 -0.00000000000E+00  0.00000000000E+00  0.36221358283E+03  0.36221358284E+03  0.25500000000E-02 0.  1.
          1   -1    0    0  501    0  0.00000000000E+00 -0.00000000000E+00 -0.50741857024E+01  0.50741882054E+01  0.50400000000E-02 0. -1.
        -24    2    1    2    0    0  0.17763568394E-14  0.00000000000E+00  0.35713939713E+03  0.36728777105E+03  0.85742391955E+02 0.  0.
         66    2    3    3    0    0 -0.14978493536E+02 -0.85876364590E+01  0.34664956022E+03  0.34708503334E+03  0.19999991352E+01 0.  0.
         13    1    3    3    0    0  0.14978493536E+02  0.85876364590E+01  0.10489836909E+02  0.20202737710E+02  0.10566000000E+00 0. -1.
         13    1    4    4    0    0 -0.31450693896E+01 -0.13159748643E+01  0.79019149720E+02  0.79092733154E+02  0.10566000000E+00 0. -1.
        -13    1    4    4    0    0 -0.73217856154E+01 -0.39591854125E+01  0.15839583139E+03  0.15861442008E+03  0.10566000000E+00 0.  1.
        -14    1    4    4    0    0 -0.45116385313E+01 -0.33124761822E+01  0.10923457911E+03  0.10937788010E+03  0.00000000000E+00 0.  1.
<mgrwt>
<rscale>  0 0.85742392E+02</rscale>
<asrwt>0</asrwt>
<pdfrwt beam="1">  1        1 0.78064411E-03 0.85742392E+02</pdfrwt>
<pdfrwt beam="2">  1       -2 0.55725169E-01 0.85742392E+02</pdfrwt>
<totfact> 0.52622891E+04</totfact>
</mgrwt>
</event>
<event>
 8    1  0.1319619E-020  0.8145270E+02  0.7818608E-02  0.1324979E+00
         -2   -1    0    0    0  501 -0.00000000000E+00  0.00000000000E+00  0.86675657124E+01  0.86675660875E+01  0.25500000000E-02 0.  1.
          1   -1    0    0  501    0  0.00000000000E+00 -0.00000000000E+00 -0.19136119327E+03  0.19136119333E+03  0.50400000000E-02 0. -1.
        -24    2    1    2    0    0  0.00000000000E+00  0.00000000000E+00 -0.18269362755E+03  0.20002875942E+03  0.81452704353E+02 0.  0.
         66    2    3    3    0    0 -0.40241929276E+02  0.48958009428E+01 -0.82462935246E+02  0.91910377157E+02  0.20000002471E+01 0.  0.
         13    1    3    3    0    0  0.40241929276E+02 -0.48958009428E+01 -0.10023069231E+03  0.10811838226E+03  0.10566000000E+00 0. -1.
         13    1    4    4    0    0 -0.80221484839E+01  0.16307810927E+01 -0.16339725074E+02  0.18275997724E+02  0.10566000000E+00 0. -1.
        -13    1    4    4    0    0 -0.11248036527E+02  0.15906979664E+01 -0.22937309248E+02  0.25596483456E+02  0.10566000000E+00 0.  1.
         14    1    4    4    0    0 -0.20971744265E+02  0.16743218837E+01 -0.43185900924E+02  0.48037895977E+02  0.00000000000E+00 0. -1.
<mgrwt>
<rscale>  0 0.81452704E+02</rscale>
<asrwt>0</asrwt>
<pdfrwt beam="1">  1        1 0.29440181E-01 0.81452704E+02</pdfrwt>
<pdfrwt beam="2">  1       -2 0.13334718E-02 0.81452704E+02</pdfrwt>
<totfact> 0.15759224E+05</totfact>
</mgrwt>
</event>
<event>
 8    1  0.1319619E-020  0.7814371E+02  0.7818608E-02  0.1334403E+00
         -2   -1    0    0    0  501 -0.00000000000E+00  0.00000000000E+00  0.15155208677E+02  0.15155208891E+02  0.25500000000E-02 0.  1.
          1   -1    0    0  501    0  0.00000000000E+00 -0.00000000000E+00 -0.10073168311E+03  0.10073168324E+03  0.50400000000E-02 0. -1.
        -24    2    1    2    0    0  0.00000000000E+00  0.71054273576E-14 -0.85576474437E+02  0.11588689213E+03  0.78143706021E+02 0.  0.
         66    2    3    3    0    0 -0.54525537643E+01 -0.38440021132E+02 -0.36658764255E+02  0.53434357349E+02  0.19999953658E+01 0.  0.
         13    1    3    3    0    0  0.54525537643E+01  0.38440021132E+02 -0.48917710182E+02  0.62452534781E+02  0.10566000000E+00 0. -1.
         13    1    4    4    0    0 -0.15698735265E+01 -0.80171861662E+01 -0.78955311999E+01  0.11361793603E+02  0.10566000000E+00 0.  1.
        -13    1    4    4    0    0 -0.69551211868E+00 -0.10686472669E+02 -0.10315614180E+02  0.14869683762E+02  0.10566000000E+00 0.  1.
        -14    1    4    4    0    0 -0.31871681191E+01 -0.19736362296E+02 -0.18447618875E+02  0.27202879985E+02  0.00000000000E+00 0.  1.
<mgrwt>
<rscale>  0 0.78143706E+02</rscale>
<asrwt>0</asrwt>
<pdfrwt beam="1">  1        1 0.15497182E-01 0.78143706E+02</pdfrwt>
<pdfrwt beam="2">  1       -2 0.23315706E-02 0.78143706E+02</pdfrwt>
<totfact> 0.15679469E+05</totfact>
</mgrwt>
</event>
<event>
 8    1  0.1319619E-020  0.8047861E+02  0.7818608E-02  0.1327699E+00
          1   -1    0    0  501    0  0.00000000000E+00  0.00000000000E+00  0.55295072530E+02  0.55295072760E+02  0.50400000000E-02 0. -1.
         -2   -1    0    0    0  501 -0.00000000000E+00 -0.00000000000E+00 -0.29282927101E+02  0.29282927212E+02  0.25500000000E-02 0.  1.
        -24    2    1    2    0    0 -0.35527136788E-14  0.00000000000E+00  0.26012145430E+02  0.84577999972E+02  0.80478608147E+02 0.  0.
         66    2    3    3    0    0 -0.20735607264E+02 -0.18407040867E+02 -0.17597118502E+02  0.32900503643E+02  0.19999995898E+01 0.  0.
         13    1    3    3    0    0  0.20735607264E+02  0.18407040867E+02  0.43609263932E+02  0.51677496328E+02  0.10566000000E+00 0. -1.
         13    1    4    4    0    0 -0.90193626682E+01 -0.77620078485E+01 -0.76919478284E+01  0.14169505786E+02  0.10566000000E+00 0. -1.
        -13    1    4    4    0    0 -0.51686465053E+01 -0.38031605480E+01 -0.43235144373E+01  0.77384028052E+01  0.10566000000E+00 0.  1.
         14    1    4    4    0    0 -0.65475980902E+01 -0.68418724703E+01 -0.55816562360E+01  0.10992595052E+02  0.00000000000E+00 0. -1.
<mgrwt>
<rscale>  0 0.80478608E+02</rscale>
<asrwt>0</asrwt>
<pdfrwt beam="1">  1        1 0.85069341E-02 0.80478608E+02</pdfrwt>
<pdfrwt beam="2">  1       -2 0.45050658E-02 0.80478608E+02</pdfrwt>
<totfact> 0.13147552E+05</totfact>
</mgrwt>
</event>
<event>
 8    1  0.1328917E-020  0.7509487E+02  0.7818608E-02  0.1343578E+00
          1   -1    0    0  501    0  0.00000000000E+00  0.00000000000E+00  0.86963275311E+02  0.86963275457E+02  0.50400000000E-02 0. -1.
         -2   -1    0    0    0  501 -0.00000000000E+00 -0.00000000000E+00 -0.16211553164E+02  0.16211553365E+02  0.25500000000E-02 0.  1.
        -24    2    1    2    0    0  0.00000000000E+00  0.00000000000E+00  0.70751722147E+02  0.10317482882E+03  0.75094867439E+02 0.  0.
         66    2    3    3    0    0 -0.11365907544E+02 -0.16591552639E+02 -0.81190149832E+01  0.21780309272E+02  0.19999986039E+01 0.  0.
         13    1    3    3    0    0  0.11365907544E+02  0.16591552639E+02  0.78870737130E+02  0.81394519550E+02  0.10566000000E+00 0. -1.
         13    1    4    4    0    0 -0.12381134231E+01 -0.21974727363E+01 -0.60021731596E+00  0.25948479989E+01  0.10566000000E+00 0. -1.
        -13    1    4    4    0    0 -0.21446063582E+00 -0.61920639141E+00 -0.13385395509E+00  0.67711951410E+00  0.10566000000E+00 0. -1.
        -14    1    4    4    0    0 -0.99133334846E+01 -0.13774873511E+02 -0.73849437122E+01  0.18508341759E+02  0.00000000000E+00 0.  1.
<mgrwt>
<rscale>  0 0.75094867E+02</rscale>
<asrwt>0</asrwt>
<pdfrwt beam="1">  1        1 0.13378966E-01 0.75094867E+02</pdfrwt>
<pdfrwt beam="2">  1       -2 0.24940851E-02 0.75094867E+02</pdfrwt>
<totfact> 0.17041753E+05</totfact>
</mgrwt>
</event>
<event>
 8    1  0.1319619E-020  0.8062218E+02  0.7818608E-02  0.1327295E+00
          1   -1    0    0  501    0  0.00000000000E+00  0.00000000000E+00  0.10004017179E+03  0.10004017191E+03  0.50400000000E-02 0. -1.
         -2   -1    0    0    0  501 -0.00000000000E+00 -0.00000000000E+00 -0.16243314091E+02  0.16243314291E+02  0.25500000000E-02 0.  1.
        -24    2    1    2    0    0 -0.35527136788E-14  0.00000000000E+00  0.83796857694E+02  0.11628348620E+03  0.80622179357E+02 0.  0.
         66    2    3    3    0    0  0.21327999335E+02 -0.15604280797E+02 -0.19330578942E+01  0.26572802751E+02  0.19999995942E+01 0.  0.
         13    1    3    3    0    0 -0.21327999335E+02  0.15604280797E+02  0.85729915588E+02  0.89710683453E+02  0.10566000000E+00 0. -1.
         13    1    4    4    0    0  0.47599863928E+00 -0.24314410035E+00 -0.18628513564E+00  0.57581242213E+00  0.10566000000E+00 0. -1.
        -13    1    4    4    0    0  0.18735739064E+02 -0.14097553993E+02 -0.12367609601E+01  0.23479984850E+02  0.10566000000E+00 0.  1.
        -14    1    4    4    0    0  0.21162616317E+01 -0.12635827033E+01 -0.51001179844E+00  0.25170054780E+01  0.00000000000E+00 0.  1.
<mgrwt>
<rscale>  0 0.80622179E+02</rscale>
<asrwt>0</asrwt>
<pdfrwt beam="1">  1        1 0.15390796E-01 0.80622179E+02</pdfrwt>
<pdfrwt beam="2">  1       -2 0.24989714E-02 0.80622179E+02</pdfrwt>
<totfact> 0.14395377E+05</totfact>
</mgrwt>
</event>
<event>
 8    1  0.1319619E-020  0.8279553E+02  0.7818608E-02  0.1321300E+00
          1   -1    0    0  501    0  0.00000000000E+00  0.00000000000E+00  0.44010456020E+01  0.44010484879E+01  0.50400000000E-02 0. -1.
         -2   -1    0    0    0  501 -0.00000000000E+00 -0.00000000000E+00 -0.38940160177E+03  0.38940160177E+03  0.25500000000E-02 0.  1.
        -24    2    1    2    0    0  0.17763568394E-14 -0.35527136788E-14 -0.38500055616E+03  0.39380265026E+03  0.82795525887E+02 0.  0.
         66    2    3    3    0    0  0.83094338399E+01 -0.19341851180E+02 -0.36202142952E+03  0.36263848297E+03  0.19999999320E+01 0.  0.
         13    1    3    3    0    0 -0.83094338399E+01  0.19341851180E+02 -0.22979126646E+02  0.31164167296E+02  0.10566000000E+00 0. -1.
         13    1    4    4    0    0  0.31457071800E+01 -0.68892802078E+01 -0.12166236239E+03  0.12189790499E+03  0.10566000000E+00 0. -1.
        -13    1    4    4    0    0  0.32459822649E+01 -0.81552573840E+01 -0.14499521358E+03  0.14526068893E+03  0.10566000000E+00 0.  1.
         14    1    4    4    0    0  0.19177443949E+01 -0.42973135884E+01 -0.95363853547E+02  0.95479889039E+02  0.00000000000E+00 0. -1.
<mgrwt>
<rscale>  0 0.82795526E+02</rscale>
<asrwt>0</asrwt>
<pdfrwt beam="1">  1        1 0.67708447E-03 0.82795526E+02</pdfrwt>
<pdfrwt beam="2">  1       -2 0.59907912E-01 0.82795526E+02</pdfrwt>
<totfact> 0.55030293E+04</totfact>
</mgrwt>
</event>
<event>
 8    1  0.1319619E-020  0.7925038E+02  0.7818608E-02  0.1331192E+00
          1   -1    0    0  501    0  0.00000000000E+00  0.00000000000E+00  0.59822204085E+01  0.59822225315E+01  0.50400000000E-02 0. -1.
         -2   -1    0    0    0  501 -0.00000000000E+00 -0.00000000000E+00 -0.26247035260E+03  0.26247035261E+03  0.25500000000E-02 0.  1.
        -24    2    1    2    0    0  0.88817841970E-15  0.88817841970E-15 -0.25648813219E+03  0.26845257514E+03  0.79250382625E+02 0.  0.
         66    2    3    3    0    0  0.74940235051E+01  0.73579357097E+01 -0.25766252223E+03  0.25788422795E+03  0.20000150013E+01 0.  0.
         13    1    3    3    0    0 -0.74940235051E+01 -0.73579357097E+01  0.11743900425E+01  0.10568347184E+02  0.10566000000E+00 0. -1.
         13    1    4    4    0    0  0.24999357908E+00  0.77706480264E-01 -0.13377682034E+02  0.13380660511E+02  0.10566000000E+00 0. -1.
        -13    1    4    4    0    0  0.12542811239E+01  0.19041393170E+01 -0.49935229915E+02  0.49987371589E+02  0.10566000000E+00 0.  1.
        -14    1    4    4    0    0  0.59897488022E+01  0.53760899124E+01 -0.19434961028E+03  0.19451619585E+03  0.00000000000E+00 0.  1.
<mgrwt>
<rscale>  0 0.79250383E+02</rscale>
<asrwt>0</asrwt>
<pdfrwt beam="1">  1        1 0.92034197E-03 0.79250383E+02</pdfrwt>
<pdfrwt beam="2">  1       -2 0.40380045E-01 0.79250383E+02</pdfrwt>
<totfact> 0.77167304E+04</totfact>
</mgrwt>
</event>
<event>
 8    1  0.1319619E-020  0.6995412E+02  0.7818608E-02  0.1360249E+00
         -2   -1    0    0    0  501 -0.00000000000E+00  0.00000000000E+00  0.17002204572E+02  0.17002204763E+02  0.25500000000E-02 0.  1.
          1   -1    0    0  501    0  0.00000000000E+00 -0.00000000000E+00 -0.71955057479E+02  0.71955057656E+02  0.50400000000E-02 0. -1.
        -24    2    1    2    0    0  0.00000000000E+00 -0.88817841970E-15 -0.54952852907E+02  0.88957262419E+02  0.69954117065E+02 0.  0.
         66    2    3    3    0    0  0.18060782406E+02 -0.71163090672E+01  0.94569586316E+01  0.21685658436E+02  0.19999998437E+01 0.  0.
         13    1    3    3    0    0 -0.18060782406E+02  0.71163090672E+01 -0.64409811539E+02  0.67271603983E+02  0.10566000000E+00 0. -1.
         13    1    4    4    0    0  0.11187572038E+01 -0.64354254045E+00  0.30678312058E+00  0.13308059968E+01  0.10566000000E+00 0. -1.
        -13    1    4    4    0    0  0.50704753651E+00 -0.25878461263E+00  0.89926401598E-01  0.58593299388E+00  0.10566000000E+00 0.  1.
        -14    1    4    4    0    0  0.16434977666E+02 -0.62139819141E+01  0.90602491094E+01  0.19768919445E+02  0.00000000000E+00 0.  1.
<mgrwt>
<rscale>  0 0.69954117E+02</rscale>
<asrwt>0</asrwt>
<pdfrwt beam="1">  1        1 0.11070009E-01 0.69954117E+02</pdfrwt>
<pdfrwt beam="2">  1       -2 0.26157238E-02 0.69954117E+02</pdfrwt>
<totfact> 0.20028095E+05</totfact>
</mgrwt>
</event>
<event>
 8    1  0.1319619E-020  0.8019130E+02  0.7818608E-02  0.1328509E+00
          1   -1    0    0  501    0  0.00000000000E+00  0.00000000000E+00  0.12271260080E+03  0.12271260090E+03  0.50400000000E-02 0. -1.
         -2   -1    0    0    0  501 -0.00000000000E+00 -0.00000000000E+00 -0.13101028183E+02  0.13101028432E+02  0.25500000000E-02 0.  1.
        -24    2    1    2    0    0  0.00000000000E+00  0.00000000000E+00  0.10961157261E+03  0.13581362933E+03  0.80191302905E+02 0.  0.
         66    2    3    3    0    0 -0.25104650750E+02 -0.29088911519E+02  0.35585466673E+02  0.52409290192E+02  0.19999993619E+01 0.  0.
         13    1    3    3    0    0  0.25104650750E+02  0.29088911519E+02  0.74026105940E+02  0.83404339140E+02  0.10566000000E+00 0. -1.
         13    1    4    4    0    0 -0.35066062589E+01 -0.48334448598E+01  0.61643657449E+01  0.85830673853E+01  0.10566000000E+00 0. -1.
        -13    1    4    4    0    0 -0.20110126871E+02 -0.22473914119E+02  0.27485912192E+02  0.40804173214E+02  0.10566000000E+00 0.  1.
         14    1    4    4    0    0 -0.14879176201E+01 -0.17815525405E+01  0.19351887364E+01  0.30220495933E+01  0.00000000000E+00 0. -1.
<mgrwt>
<rscale>  0 0.80191303E+02</rscale>
<asrwt>0</asrwt>
<pdfrwt beam="1">  1        1 0.18878862E-01 0.80191303E+02</pdfrwt>
<pdfrwt beam="2">  1       -2 0.20155428E-02 0.80191303E+02</pdfrwt>
<totfact> 0.15128757E+05</totfact>
</mgrwt>
</event>
<event>
 8    1  0.1319619E-020  0.8005547E+02  0.7818608E-02  0.1328894E+00
         -2   -1    0    0    0  501 -0.00000000000E+00  0.00000000000E+00  0.29702126156E+02  0.29702126266E+02  0.25500000000E-02 0.  1.
          1   -1    0    0  501    0  0.00000000000E+00 -0.00000000000E+00 -0.53942924281E+02  0.53942924517E+02  0.50400000000E-02 0. -1.
        -24    2    1    2    0    0  0.00000000000E+00  0.00000000000E+00 -0.24240798125E+02  0.83645050782E+02  0.80055469686E+02 0.  0.
         66    2    3    3    0    0  0.35084205284E+02  0.70052242148E+01 -0.30825591846E+02  0.47267237501E+02  0.20000003982E+01 0.  0.
         13    1    3    3    0    0 -0.35084205284E+02 -0.70052242148E+01  0.65847937214E+01  0.36377813281E+02  0.10566000000E+00 0. -1.
         13    1    4    4    0    0  0.67714258895E+01  0.11264885516E+01 -0.50184433932E+01  0.85039475045E+01  0.10566000000E+00 0. -1.
        -13    1    4    4    0    0  0.26095467387E+02  0.52763154501E+01 -0.23887825960E+02  0.35769432705E+02  0.10566000000E+00 0.  1.
        -14    1    4    4    0    0  0.22173120073E+01  0.60242021305E+00 -0.19193224927E+01  0.29938572915E+01  0.00000000000E+00 0.  1.
<mgrwt>
<rscale>  0 0.80055470E+02</rscale>
<asrwt>0</asrwt>
<pdfrwt beam="1">  1        1 0.82989115E-02 0.80055470E+02</pdfrwt>
<pdfrwt beam="2">  1       -2 0.45695579E-02 0.80055470E+02</pdfrwt>
<totfact> 0.13289215E+05</totfact>
</mgrwt>
</event>
<event>
 8    1  0.1319619E-020  0.7417368E+02  0.7818608E-02  0.1346449E+00
          1   -1    0    0  501    0  0.00000000000E+00  0.00000000000E+00  0.47922567928E+02  0.47922568193E+02  0.50400000000E-02 0. -1.
         -2   -1    0    0    0  501 -0.00000000000E+00 -0.00000000000E+00 -0.28701168666E+02  0.28701168780E+02  0.25500000000E-02 0.  1.
        -24    2    1    2    0    0  0.00000000000E+00 -0.17763568394E-14  0.19221399262E+02  0.76623736973E+02  0.74173680494E+02 0.  0.
         66    2    3    3    0    0  0.78883364240E+01 -0.95310794221E+01 -0.26469912047E+02  0.29286918114E+02  0.20000005967E+01 0.  0.
         13    1    3    3    0    0 -0.78883364240E+01  0.95310794221E+01  0.45691311309E+02  0.47336818858E+02  0.10566000000E+00 0. -1.
         13    1    4    4    0    0  0.90051917755E+00 -0.46760529295E+00 -0.22190011043E+01  0.24422775100E+01  0.10566000000E+00 0. -1.
        -13    1    4    4    0    0  0.26823080727E+01 -0.42584421305E+01 -0.97343958192E+01  0.10958956701E+02  0.10566000000E+00 0.  1.
         14    1    4    4    0    0  0.43055091738E+01 -0.48050319986E+01 -0.14516515123E+02  0.15885683903E+02  0.00000000000E+00 0. -1.
<mgrwt>
<rscale>  0 0.74173680E+02</rscale>
<asrwt>0</asrwt>
<pdfrwt beam="1">  1        1 0.73727028E-02 0.74173680E+02</pdfrwt>
<pdfrwt beam="2">  1       -2 0.44155644E-02 0.74173680E+02</pdfrwt>
<totfact> 0.16112948E+05</totfact>
</mgrwt>
</event>
<event>
 8    1  0.1618459E-020  0.7460907E+02  0.7818608E-02  0.1345086E+00
         -2   -1    0    0    0  501 -0.00000000000E+00  0.00000000000E+00  0.16134866840E+02  0.16134867041E+02  0.25500000000E-02 0.  1.
          1   -1    0    0  501    0  0.00000000000E+00 -0.00000000000E+00 -0.86249762113E+02  0.86249762261E+02  0.50400000000E-02 0. -1.
        -24    2    1    2    0    0  0.00000000000E+00  0.44408920985E-15 -0.70114895273E+02  0.10238462930E+03  0.74609073028E+02 0.  0.
         66    2    3    3    0    0 -0.18265522070E+02  0.38385932834E+01  0.91989594845E+01  0.20904184927E+02  0.19999992459E+01 0.  0.
         13    1    3    3    0    0  0.18265522070E+02 -0.38385932834E+01 -0.79313854758E+02  0.81480444375E+02  0.10566000000E+00 0. -1.
         13    1    4    4    0    0 -0.95581218436E+00  0.74598224715E-01  0.84035415937E+00  0.12792579785E+01  0.10566000000E+00 0. -1.
        -13    1    4    4    0    0 -0.10254146386E+02  0.18391510187E+01  0.54129952613E+01  0.11740599487E+02  0.10566000000E+00 0.  1.
        -14    1    4    4    0    0 -0.70555634995E+01  0.19248440400E+01  0.29456100638E+01  0.78843274616E+01  0.00000000000E+00 0.  1.
<mgrwt>
<rscale>  0 0.74609073E+02</rscale>
<asrwt>0</asrwt>
<pdfrwt beam="1">  1        1 0.13269194E-01 0.74609073E+02</pdfrwt>
<pdfrwt beam="2">  1       -2 0.24822873E-02 0.74609073E+02</pdfrwt>
<totfact> 0.17318897E+05</totfact>
</mgrwt>
</event>
<event>
 8    1  0.1319619E-020  0.7948532E+02  0.7818608E-02  0.1330518E+00
          1   -1    0    0  501    0  0.00000000000E+00  0.00000000000E+00  0.55854857660E+01  0.55854880399E+01  0.50400000000E-02 0. -1.
         -2   -1    0    0    0  501 -0.00000000000E+00 -0.00000000000E+00 -0.28278268639E+03  0.28278268640E+03  0.25500000000E-02 0.  1.
        -24    2    1    2    0    0  0.00000000000E+00  0.00000000000E+00 -0.27719720062E+03  0.28836817444E+03  0.79485319379E+02 0.  0.
         66    2    3    3    0    0  0.15695298876E+02  0.35128392697E+02 -0.17444070135E+03  0.17864463235E+03  0.20000006162E+01 0.  0.
         13    1    3    3    0    0 -0.15695298876E+02 -0.35128392697E+02 -0.10275649928E+03  0.10972354208E+03  0.10566000000E+00 0. -1.
         13    1    4    4    0    0  0.29969583479E+01  0.60076634704E+01 -0.32905205467E+02  0.33583291837E+02  0.10566000000E+00 0. -1.
        -13    1    4    4    0    0  0.91943698408E+00  0.22947927754E+01 -0.98515027017E+01  0.10157495152E+02  0.10566000000E+00 0.  1.
        -14    1    4    4    0    0  0.11778903544E+02  0.26825936451E+02 -0.13168399318E+03  0.13490384536E+03  0.00000000000E+00 0.  1.
<mgrwt>
<rscale>  0 0.79485319E+02</rscale>
<asrwt>0</asrwt>
<pdfrwt beam="1">  1        1 0.85930590E-03 0.79485319E+02</pdfrwt>
<pdfrwt beam="2">  1       -2 0.43505017E-01 0.79485319E+02</pdfrwt>
<totfact> 0.73735821E+04</totfact>
</mgrwt>
</event>
<event>
 8    1  0.1319619E-020  0.8013903E+02  0.7818608E-02  0.1328657E+00
          1   -1    0    0  501    0  0.00000000000E+00  0.00000000000E+00  0.16256924373E+03  0.16256924381E+03  0.50400000000E-02 0. -1.
         -2   -1    0    0    0  501 -0.00000000000E+00 -0.00000000000E+00 -0.98761988216E+01  0.98761991508E+01  0.25500000000E-02 0.  1.
        -24    2    1    2    0    0  0.00000000000E+00  0.17763568394E-14  0.15269304491E+03  0.17244544296E+03  0.80139034395E+02 0.  0.
         66    2    3    3    0    0 -0.33866257500E+02 -0.15959042112E+02  0.45814740053E+02  0.59199702929E+02  0.19999996321E+01 0.  0.
         13    1    3    3    0    0  0.33866257500E+02  0.15959042112E+02  0.10687830485E+03  0.11324574003E+03  0.10566000000E+00 0. -1.
         13    1    4    4    0    0 -0.33367516913E+01 -0.13670903389E+01  0.53024439644E+01  0.64132615630E+01  0.10566000000E+00 0. -1.
        -13    1    4    4    0    0 -0.85618160374E+01 -0.42291979972E+01  0.11246027837E+02  0.14753816988E+02  0.10566000000E+00 0.  1.
         14    1    4    4    0    0 -0.21967689772E+02 -0.10362753776E+02  0.29266268251E+02  0.38032624378E+02  0.00000000000E+00 0. -1.
<mgrwt>
<rscale>  0 0.80139034E+02</rscale>
<asrwt>0</asrwt>
<pdfrwt beam="1">  1        1 0.25010654E-01 0.80139034E+02</pdfrwt>
<pdfrwt beam="2">  1       -2 0.15194152E-02 0.80139034E+02</pdfrwt>
<totfact> 0.15952446E+05</totfact>
</mgrwt>
</event>
<event>
 8    1  0.1319619E-020  0.8012478E+02  0.7818608E-02  0.1328698E+00
          1   -1    0    0  501    0  0.00000000000E+00  0.00000000000E+00  0.27959111197E+03  0.27959111201E+03  0.50400000000E-02 0. -1.
         -2   -1    0    0    0  501 -0.00000000000E+00 -0.00000000000E+00 -0.57405082601E+01  0.57405088265E+01  0.25500000000E-02 0.  1.
        -24    2    1    2    0    0  0.00000000000E+00  0.00000000000E+00  0.27385060371E+03  0.28533162084E+03  0.80124782059E+02 0.  0.
         66    2    3    3    0    0 -0.14293103557E+02  0.36687307969E+02  0.11114919658E+03  0.11793385974E+03  0.19999994680E+01 0.  0.
         13    1    3    3    0    0  0.14293103557E+02 -0.36687307969E+02  0.16270140712E+03  0.16739776110E+03  0.10566000000E+00 0. -1.
         13    1    4    4    0    0 -0.28254724943E+00  0.64522057446E+00  0.16057988160E+01  0.17566719702E+01  0.10566000000E+00 0. -1.
        -13    1    4    4    0    0 -0.12326649228E+02  0.31864057406E+02  0.98094061453E+02  0.10387357937E+03  0.10566000000E+00 0.  1.
        -14    1    4    4    0    0 -0.16839070796E+01  0.41780299889E+01  0.11449336315E+02  0.12303608401E+02  0.00000000000E+00 0.  1.
<mgrwt>
<rscale>  0 0.80124782E+02</rscale>
<asrwt>0</asrwt>
<pdfrwt beam="1">  1        1 0.43014021E-01 0.80124782E+02</pdfrwt>
<pdfrwt beam="2">  1       -2 0.88315509E-03 0.80124782E+02</pdfrwt>
<totfact> 0.17725997E+05</totfact>
</mgrwt>
</event>
<event>
 8    1  0.1319619E-020  0.8117540E+02  0.7818608E-02  0.1325749E+00
          1   -1    0    0  501    0  0.00000000000E+00  0.00000000000E+00  0.16518202955E+03  0.16518202963E+03  0.50400000000E-02 0. -1.
         -2   -1    0    0    0  501 -0.00000000000E+00 -0.00000000000E+00 -0.99730049540E+01  0.99730052800E+01  0.25500000000E-02 0.  1.
        -24    2    1    2    0    0  0.00000000000E+00  0.00000000000E+00  0.15520902460E+03  0.17515503491E+03  0.81175396133E+02 0.  0.
         66    2    3    3    0    0  0.62717199554E+01 -0.35487212074E+02  0.37475893250E+02  0.52029984358E+02  0.20000013642E+01 0.  0.
         13    1    3    3    0    0 -0.62717199554E+01  0.35487212074E+02  0.11773313135E+03  0.12312505055E+03  0.10566000000E+00 0. -1.
         13    1    4    4    0    0  0.13026385385E+01 -0.77966756652E+01  0.89465172105E+01  0.11938858941E+02  0.10566000000E+00 0. -1.
        -13    1    4    4    0    0  0.20173519622E+01 -0.13082588589E+02  0.14282561172E+02  0.19473740031E+02  0.10566000000E+00 0.  1.
         14    1    4    4    0    0  0.29517294547E+01 -0.14607947820E+02  0.14246814867E+02  0.20617385386E+02  0.00000000000E+00 0. -1.
<mgrwt>
<rscale>  0 0.81175396E+02</rscale>
<asrwt>0</asrwt>
<pdfrwt beam="1">  1        1 0.25412620E-01 0.81175396E+02</pdfrwt>
<pdfrwt beam="2">  1       -2 0.15343085E-02 0.81175396E+02</pdfrwt>
<totfact> 0.15460940E+05</totfact>
</mgrwt>
</event>
<event>
 8    1  0.1319619E-020  0.8012950E+02  0.7818608E-02  0.1328684E+00
         -2   -1    0    0    0  501 -0.00000000000E+00  0.00000000000E+00  0.10058858955E+02  0.10058859278E+02  0.25500000000E-02 0.  1.
          1   -1    0    0  501    0  0.00000000000E+00 -0.00000000000E+00 -0.15957915159E+03  0.15957915167E+03  0.50400000000E-02 0. -1.
        -24    2    1    2    0    0  0.00000000000E+00  0.00000000000E+00 -0.14952029263E+03  0.16963801094E+03  0.80129500488E+02 0.  0.
         66    2    3    3    0    0 -0.17171315058E+02  0.19154591510E+02 -0.98498807160E+01  0.27618337781E+02  0.19999987271E+01 0.  0.
         13    1    3    3    0    0  0.17171315058E+02 -0.19154591510E+02 -0.13967041191E+03  0.14201967316E+03  0.10566000000E+00 0. -1.
         13    1    4    4    0    0 -0.12474473944E+01  0.16073248050E+01 -0.11250044096E+01  0.23273197004E+01  0.10566000000E+00 0. -1.
        -13    1    4    4    0    0 -0.15761977267E+02  0.17075313622E+02 -0.85773847706E+01  0.24770727809E+02  0.10566000000E+00 0.  1.
        -14    1    4    4    0    0 -0.16189039656E+00  0.47195308294E+00 -0.14749153577E+00  0.52029027102E+00  0.00000000000E+00 0.  1.
<mgrwt>
<rscale>  0 0.80129500E+02</rscale>
<asrwt>0</asrwt>
<pdfrwt beam="1">  1        1 0.24550637E-01 0.80129500E+02</pdfrwt>
<pdfrwt beam="2">  1       -2 0.15475169E-02 0.80129500E+02</pdfrwt>
<totfact> 0.15902158E+05</totfact>
</mgrwt>
</event>
<event>
 8    1  0.1319619E-020  0.8086750E+02  0.7818608E-02  0.1326607E+00
          1   -1    0    0  501    0  0.00000000000E+00  0.00000000000E+00  0.41115386739E+03  0.41115386743E+03  0.50400000000E-02 0. -1.
         -2   -1    0    0    0  501 -0.00000000000E+00 -0.00000000000E+00 -0.39763412350E+01  0.39763420527E+01  0.25500000000E-02 0.  1.
        -24    2    1    2    0    0  0.00000000000E+00  0.00000000000E+00  0.40717752616E+03  0.41513020948E+03  0.80867502818E+02 0.  0.
         66    2    3    3    0    0  0.29554196253E+02 -0.23968552248E+02  0.27352448377E+03  0.27616586543E+03  0.19999983764E+01 0.  0.
         13    1    3    3    0    0 -0.29554196253E+02  0.23968552248E+02  0.13365304239E+03  0.13896434405E+03  0.10566000000E+00 0. -1.
         13    1    4    4    0    0  0.12438059318E+02 -0.94518047686E+01  0.11087110791E+03  0.11196631487E+03  0.10566000000E+00 0. -1.
        -13    1    4    4    0    0  0.11917991821E+02 -0.10625250108E+02  0.11242532632E+03  0.11355350999E+03  0.10566000000E+00 0.  1.
         14    1    4    4    0    0  0.51981451144E+01 -0.38914973711E+01  0.50228049540E+02  0.50646040566E+02  0.00000000000E+00 0. -1.
<mgrwt>
<rscale>  0 0.80867503E+02</rscale>
<asrwt>0</asrwt>
<pdfrwt beam="1">  1        1 0.63254481E-01 0.80867503E+02</pdfrwt>
<pdfrwt beam="2">  1       -2 0.61174448E-03 0.80867503E+02</pdfrwt>
<totfact> 0.18545042E+05</totfact>
</mgrwt>
</event>
<event>
 8    1  0.1319619E-020  0.7949837E+02  0.7818608E-02  0.1330481E+00
         -2   -1    0    0    0  501 -0.00000000000E+00  0.00000000000E+00  0.35193276166E+02  0.35193276259E+02  0.25500000000E-02 0.  1.
          1   -1    0    0  501    0  0.00000000000E+00 -0.00000000000E+00 -0.44894871629E+02  0.44894871911E+02  0.50400000000E-02 0. -1.
        -24    2    1    2    0    0 -0.88817841970E-15  0.35527136788E-14 -0.97015954623E+01  0.80088148170E+02  0.79498368051E+02 0.  0.
         66    2    3    3    0    0  0.46161160055E+01 -0.17336000512E+02  0.30851245560E+02  0.35744157374E+02  0.19999982648E+01 0.  0.
         13    1    3    3    0    0 -0.46161160055E+01  0.17336000512E+02 -0.40552841022E+02  0.44343990796E+02  0.10566000000E+00 0. -1.
         13    1    4    4    0    0  0.17317680727E+01 -0.67818587185E+01  0.10389241098E+02  0.12527574504E+02  0.10566000000E+00 0. -1.
        -13    1    4    4    0    0  0.82501501918E+00 -0.25292854457E+01  0.43739871044E+01  0.51206310034E+01  0.10566000000E+00 0.  1.
         14    1    4    4    0    0  0.20593329136E+01 -0.80248563476E+01  0.16088017358E+02  0.18095951866E+02  0.00000000000E+00 0. -1.
<mgrwt>
<rscale>  0 0.79498368E+02</rscale>
<asrwt>0</asrwt>
<pdfrwt beam="1">  1        1 0.69069034E-02 0.79498368E+02</pdfrwt>
<pdfrwt beam="2">  1       -2 0.54143502E-02 0.79498368E+02</pdfrwt>
<totfact> 0.13164597E+05</totfact>
</mgrwt>
</event>
<event>
 8    1  0.1319619E-020  0.7747880E+02  0.7818608E-02  0.1336362E+00
         -2   -1    0    0    0  501 -0.00000000000E+00  0.00000000000E+00  0.10017411953E+03  0.10017411956E+03  0.25500000000E-02 0.  1.
          1   -1    0    0  501    0  0.00000000000E+00 -0.00000000000E+00 -0.14981326413E+02  0.14981327261E+02  0.50400000000E-02 0. -1.
        -24    2    1    2    0    0  0.00000000000E+00  0.00000000000E+00  0.85192793120E+02  0.11515544683E+03  0.77478803127E+02 0.  0.
         66    2    3    3    0    0 -0.13442759833E+02  0.34299092095E+02  0.24938504142E+02  0.44531612218E+02  0.19999968444E+01 0.  0.
         13    1    3    3    0    0  0.13442759833E+02 -0.34299092095E+02  0.60254288978E+02  0.70623834608E+02  0.10566000000E+00 0. -1.
         13    1    4    4    0    0 -0.29419141232E+01  0.82580375326E+01  0.66533826645E+01  0.11005848787E+02  0.10566000000E+00 0. -1.
        -13    1    4    4    0    0 -0.26877061221E+01  0.79862817035E+01  0.55732141299E+01  0.10103283596E+02  0.10566000000E+00 0.  1.
        -14    1    4    4    0    0 -0.78131395878E+01  0.18054772859E+02  0.12711907348E+02  0.23422479835E+02  0.00000000000E+00 0.  1.
<mgrwt>
<rscale>  0 0.77478803E+02</rscale>
<asrwt>0</asrwt>
<pdfrwt beam="1">  1        1 0.23048195E-02 0.77478803E+02</pdfrwt>
<pdfrwt beam="2">  1       -2 0.15411403E-01 0.77478803E+02</pdfrwt>
<totfact> 0.11513697E+05</totfact>
</mgrwt>
</event>
<event>
 8    1  0.1319619E-020  0.8375441E+02  0.7818608E-02  0.1318722E+00
         -2   -1    0    0    0  501 -0.00000000000E+00  0.00000000000E+00  0.90933460852E+01  0.90933464428E+01  0.25500000000E-02 0.  1.
          1   -1    0    0  501    0  0.00000000000E+00 -0.00000000000E+00 -0.19285531370E+03  0.19285531377E+03  0.50400000000E-02 0. -1.
        -24    2    1    2    0    0 -0.22204460493E-15 -0.35527136788E-14 -0.18376196761E+03  0.20194866021E+03  0.83754406561E+02 0.  0.
         66    2    3    3    0    0 -0.10260329902E+01 -0.27718278270E+02 -0.16360675906E+02  0.32264956443E+02  0.20000010496E+01 0.  0.
         13    1    3    3    0    0  0.10260329902E+01  0.27718278270E+02 -0.16740129171E+03  0.16968370377E+03  0.10566000000E+00 0. -1.
         13    1    4    4    0    0 -0.11085903466E+01 -0.15462328320E+02 -0.83887567244E+01  0.17626541721E+02  0.10566000000E+00 0. -1.
        -13    1    4    4    0    0 -0.23887432870E+00 -0.91148235784E+01 -0.60101223206E+01  0.10921071566E+02  0.10566000000E+00 0.  1.
        -14    1    4    4    0    0  0.32143168505E+00 -0.31411263717E+01 -0.19617968609E+01  0.37173431553E+01  0.00000000000E+00 0.  1.
<mgrwt>
<rscale>  0 0.83754407E+02</rscale>
<asrwt>0</asrwt>
<pdfrwt beam="1">  1        1 0.29670045E-01 0.83754407E+02</pdfrwt>
<pdfrwt beam="2">  1       -2 0.13989765E-02 0.83754407E+02</pdfrwt>
<totfact> 0.14652782E+05</totfact>
</mgrwt>
</event>
<event>
 8    1  0.1319619E-020  0.7973637E+02  0.7818608E-02  0.1329801E+00
          1   -1    0    0  501    0  0.00000000000E+00  0.00000000000E+00  0.22579786651E+02  0.22579787214E+02  0.50400000000E-02 0. -1.
         -2   -1    0    0    0  501 -0.00000000000E+00 -0.00000000000E+00 -0.70393583285E+02  0.70393583332E+02  0.25500000000E-02 0.  1.
        -24    2    1    2    0    0 -0.11102230246E-15 -0.71054273576E-14 -0.47813796634E+02  0.92973370546E+02  0.79736368628E+02 0.  0.
         66    2    3    3    0    0  0.96693310732E+00  0.39728003446E+02 -0.27264491442E+02  0.48234860006E+02  0.20000021799E+01 0.  0.
         13    1    3    3    0    0 -0.96693310732E+00 -0.39728003446E+02 -0.20549305192E+02  0.44738510540E+02  0.10566000000E+00 0. -1.
         13    1    4    4    0    0  0.13194713647E+00  0.87410103018E+01 -0.57457905934E+01  0.10461737175E+02  0.10566000000E+00 0. -1.
        -13    1    4    4    0    0  0.80972851657E+00  0.30757048086E+02 -0.21143815857E+02  0.37332610145E+02  0.10566000000E+00 0.  1.
         14    1    4    4    0    0  0.25257454278E-01  0.22994505845E+00 -0.37488499157E+00  0.44051268518E+00  0.00000000000E+00 0. -1.
<mgrwt>
<rscale>  0 0.79736369E+02</rscale>
<asrwt>0</asrwt>
<pdfrwt beam="1">  1        1 0.34738134E-02 0.79736369E+02</pdfrwt>
<pdfrwt beam="2">  1       -2 0.10829782E-01 0.79736369E+02</pdfrwt>
<totfact> 0.11574826E+05</totfact>
</mgrwt>
</event>
<event>
 8    1  0.1319619E-020  0.7930908E+02  0.7818608E-02  0.1331024E+00
         -2   -1    0    0    0  501 -0.00000000000E+00  0.00000000000E+00  0.14810835876E+03  0.14810835879E+03  0.25500000000E-02 0.  1.
          1   -1    0    0  501    0  0.00000000000E+00 -0.00000000000E+00 -0.10617107460E+02  0.10617108656E+02  0.50400000000E-02 0. -1.
        -24    2    1    2    0    0  0.00000000000E+00 -0.17763568394E-14  0.13749125130E+03  0.15872546744E+03  0.79309077851E+02 0.  0.
         66    2    3    3    0    0  0.15322465677E+02  0.12970407339E+02  0.13717191847E+03  0.13864755524E+03  0.19999841684E+01 0.  0.
         13    1    3    3    0    0 -0.15322465677E+02 -0.12970407339E+02  0.31933283661E+00  0.20077912203E+02  0.10566000000E+00 0. -1.
         13    1    4    4    0    0  0.37131648037E+01  0.27920072004E+01  0.28749436133E+02  0.29122570956E+02  0.10566000000E+00 0.  1.
        -13    1    4    4    0    0  0.10463679253E+02  0.87867930159E+01  0.97955940049E+02  0.98904366284E+02  0.10566000000E+00 0.  1.
        -14    1    4    4    0    0  0.11456216199E+01  0.13916071223E+01  0.10466542286E+02  0.10620618000E+02  0.00000000000E+00 0.  1.
<mgrwt>
<rscale>  0 0.79309078E+02</rscale>
<asrwt>0</asrwt>
<pdfrwt beam="1">  1        1 0.16334012E-02 0.79309078E+02</pdfrwt>
<pdfrwt beam="2">  1       -2 0.22785902E-01 0.79309078E+02</pdfrwt>
<totfact> 0.97045053E+04</totfact>
</mgrwt>
</event>
<event>
 8    1  0.1337920E-020  0.7860154E+02  0.7818608E-02  0.1333068E+00
         -2   -1    0    0    0  501 -0.00000000000E+00  0.00000000000E+00  0.14716268151E+02  0.14716268372E+02  0.25500000000E-02 0.  1.
          1   -1    0    0  501    0  0.00000000000E+00 -0.00000000000E+00 -0.10495531864E+03  0.10495531876E+03  0.50400000000E-02 0. -1.
        -24    2    1    2    0    0  0.00000000000E+00  0.00000000000E+00 -0.90239050491E+02  0.11967158714E+03  0.78601542823E+02 0.  0.
         66    2    3    3    0    0 -0.17440268230E+02  0.10134721519E+02  0.61594625392E+01  0.21185242830E+02  0.19999997010E+01 0.  0.
         13    1    3    3    0    0  0.17440268230E+02 -0.10134721519E+02 -0.96398513031E+02  0.98486344306E+02  0.10566000000E+00 0. -1.
         13    1    4    4    0    0 -0.21003853821E+01  0.16926878597E+01  0.12031865798E+01  0.29556104150E+01  0.10566000000E+00 0. -1.
        -13    1    4    4    0    0 -0.25800677993E+01  0.18553430715E+01  0.75469018124E+00  0.32679915953E+01  0.10566000000E+00 0.  1.
        -14    1    4    4    0    0 -0.12759815049E+02  0.65866905876E+01  0.42015857781E+01  0.14961640820E+02  0.00000000000E+00 0.  1.
<mgrwt>
<rscale>  0 0.78601543E+02</rscale>
<asrwt>0</asrwt>
<pdfrwt beam="1">  1        1 0.16146972E-01 0.78601543E+02</pdfrwt>
<pdfrwt beam="2">  1       -2 0.22640413E-02 0.78601543E+02</pdfrwt>
<totfact> 0.15541289E+05</totfact>
</mgrwt>
</event>
<event>
 8    1  0.1319619E-020  0.7775387E+02  0.7818608E-02  0.1335549E+00
         -2   -1    0    0    0  501 -0.00000000000E+00  0.00000000000E+00  0.16903598722E+02  0.16903598914E+02  0.25500000000E-02 0.  1.
          1   -1    0    0  501    0  0.00000000000E+00 -0.00000000000E+00 -0.89413872598E+02  0.89413872741E+02  0.50400000000E-02 0. -1.
        -24    2    1    2    0    0  0.00000000000E+00  0.00000000000E+00 -0.72510273877E+02  0.10631747165E+03  0.77753874253E+02 0.  0.
         66    2    3    3    0    0  0.27653361567E+02 -0.12583848464E+01  0.99544835144E+00  0.27771979724E+02  0.20000004864E+01 0.  0.
         13    1    3    3    0    0 -0.27653361567E+02  0.12583848464E+01 -0.73505722228E+02  0.78545491931E+02  0.10566000000E+00 0. -1.
         13    1    4    4    0    0  0.82751566509E+01 -0.15002960560E+00 -0.40508708799E+00  0.82870975657E+01  0.10566000000E+00 0. -1.
        -13    1    4    4    0    0  0.19171107094E+02 -0.10458377478E+01  0.14740485736E+01  0.19256404312E+02  0.10566000000E+00 0.  1.
        -14    1    4    4    0    0  0.20709782234E+00 -0.62517492983E-01 -0.73513134138E-01  0.22847784540E+00  0.00000000000E+00 0.  1.
<mgrwt>
<rscale>  0 0.77753874E+02</rscale>
<asrwt>0</asrwt>
<pdfrwt beam="1">  1        1 0.13755980E-01 0.77753874E+02</pdfrwt>
<pdfrwt beam="2">  1       -2 0.26005537E-02 0.77753874E+02</pdfrwt>
<totfact> 0.15584649E+05</totfact>
</mgrwt>
</event>
<event>
 8    1  0.1319619E-020  0.7792569E+02  0.7818608E-02  0.1335043E+00
         -2   -1    0    0    0  501 -0.00000000000E+00  0.00000000000E+00  0.15042847808E+03  0.15042847811E+03  0.25500000000E-02 0.  1.
          1   -1    0    0  501    0  0.00000000000E+00 -0.00000000000E+00 -0.10091861027E+02  0.10091862286E+02  0.50400000000E-02 0. -1.
        -24    2    1    2    0    0  0.00000000000E+00  0.00000000000E+00  0.14033661706E+03  0.16052034039E+03  0.77925692761E+02 0.  0.
         66    2    3    3    0    0 -0.21230652376E+02  0.24881419804E+02  0.11373046559E+03  0.11835727466E+03  0.20000025062E+01 0.  0.
         13    1    3    3    0    0  0.21230652376E+02 -0.24881419804E+02  0.26606151463E+02  0.42163065727E+02  0.10566000000E+00 0. -1.
         13    1    4    4    0    0 -0.22759906950E+01  0.26174469586E+01  0.14196509321E+02  0.14614486073E+02  0.10566000000E+00 0. -1.
        -13    1    4    4    0    0 -0.74921149545E+01  0.92945235970E+01  0.41286523819E+02  0.42977996329E+02  0.10566000000E+00 0.  1.
        -14    1    4    4    0    0 -0.11462546727E+02  0.12969449248E+02  0.58247432453E+02  0.60764792262E+02  0.00000000000E+00 0.  1.
<mgrwt>
<rscale>  0 0.77925693E+02</rscale>
<asrwt>0</asrwt>
<pdfrwt beam="1">  1        1 0.15525942E-02 0.77925693E+02</pdfrwt>
<pdfrwt beam="2">  1       -2 0.23142841E-01 0.77925693E+02</pdfrwt>
<totfact> 0.10102164E+05</totfact>
</mgrwt>
</event>
<event>
 8    1  0.1319619E-020  0.7910771E+02  0.7818608E-02  0.1331603E+00
          1   -1    0    0  501    0  0.00000000000E+00  0.00000000000E+00  0.19655113894E+03  0.19655113900E+03  0.50400000000E-02 0. -1.
         -2   -1    0    0    0  501 -0.00000000000E+00 -0.00000000000E+00 -0.79597984108E+01  0.79597988193E+01  0.25500000000E-02 0.  1.
        -24    2    1    2    0    0  0.00000000000E+00  0.00000000000E+00  0.18859134053E+03  0.20451093782E+03  0.79107711172E+02 0.  0.
         66    2    3    3    0    0  0.13279879699E+02  0.35009117282E+02  0.61603045511E+02  0.72117464672E+02  0.19999991865E+01 0.  0.
         13    1    3    3    0    0 -0.13279879699E+02 -0.35009117282E+02  0.12698829501E+03  0.13239347315E+03  0.10566000000E+00 0. -1.
         13    1    4    4    0    0  0.38737986311E+01  0.10193564179E+02  0.16690112190E+02  0.19937052828E+02  0.10566000000E+00 0. -1.
        -13    1    4    4    0    0  0.30401781409E+01  0.79160153987E+01  0.15409603312E+02  0.17589002848E+02  0.10566000000E+00 0.  1.
         14    1    4    4    0    0  0.63659029271E+01  0.16899537704E+02  0.29503330010E+02  0.34591408996E+02  0.00000000000E+00 0. -1.
<mgrwt>
<rscale>  0 0.79107711E+02</rscale>
<asrwt>0</asrwt>
<pdfrwt beam="1">  1        1 0.30238637E-01 0.79107711E+02</pdfrwt>
<pdfrwt beam="2">  1       -2 0.12245844E-02 0.79107711E+02</pdfrwt>
<totfact> 0.17119945E+05</totfact>
</mgrwt>
</event>
<event>
 8    1  0.1319619E-020  0.7959295E+02  0.7818608E-02  0.1330211E+00
         -2   -1    0    0    0  501 -0.00000000000E+00  0.00000000000E+00  0.54970773292E+02  0.54970773352E+02  0.25500000000E-02 0.  1.
          1   -1    0    0  501    0  0.00000000000E+00 -0.00000000000E+00 -0.28810938264E+02  0.28810938705E+02  0.50400000000E-02 0. -1.
        -24    2    1    2    0    0  0.00000000000E+00  0.00000000000E+00  0.26159835028E+02  0.83781712057E+02  0.79592953874E+02 0.  0.
         66    2    3    3    0    0 -0.38607155392E+02 -0.66146380589E+01  0.20342025718E+02  0.44182167194E+02  0.20000009008E+01 0.  0.
         13    1    3    3    0    0  0.38607155392E+02  0.66146380589E+01  0.58178093103E+01  0.39599544862E+02  0.10566000000E+00 0. -1.
         13    1    4    4    0    0 -0.11173931355E+02 -0.20651948738E+01  0.66730334752E+01  0.13178099695E+02  0.10566000000E+00 0. -1.
        -13    1    4    4    0    0 -0.20520069422E+02 -0.35267943044E+01  0.10721831190E+02  0.23419657454E+02  0.10566000000E+00 0.  1.
        -14    1    4    4    0    0 -0.69131546151E+01 -0.10226488806E+01  0.29471610527E+01  0.75844100453E+01  0.00000000000E+00 0.  1.
<mgrwt>
<rscale>  0 0.79592954E+02</rscale>
<asrwt>0</asrwt>
<pdfrwt beam="1">  1        1 0.44324521E-02 0.79592954E+02</pdfrwt>
<pdfrwt beam="2">  1       -2 0.84570420E-02 0.79592954E+02</pdfrwt>
<totfact> 0.12185621E+05</totfact>
</mgrwt>
</event>
<event>
 8    1  0.1319619E-020  0.7988949E+02  0.7818608E-02  0.1329365E+00
          1   -1    0    0  501    0  0.00000000000E+00  0.00000000000E+00  0.19350133628E+03  0.19350133635E+03  0.50400000000E-02 0. -1.
         -2   -1    0    0    0  501 -0.00000000000E+00 -0.00000000000E+00 -0.82458485891E+01  0.82458489834E+01  0.25500000000E-02 0.  1.
        -24    2    1    2    0    0 -0.35527136788E-14  0.17763568394E-14  0.18525548769E+03  0.20174718533E+03  0.79889492855E+02 0.  0.
         66    2    3    3    0    0  0.25470217585E+02 -0.15768019700E+02  0.26052594637E+02  0.39750473172E+02  0.20000002489E+01 0.  0.
         13    1    3    3    0    0 -0.25470217585E+02  0.15768019700E+02  0.15920289306E+03  0.16199671216E+03  0.10566000000E+00 0. -1.
         13    1    4    4    0    0  0.19987802326E+01 -0.17431970370E+01  0.26197499148E+01  0.37293581190E+01  0.10566000000E+00 0. -1.
        -13    1    4    4    0    0  0.10429526237E+02 -0.57674004803E+01  0.99604312906E+01  0.15532523341E+02  0.10566000000E+00 0.  1.
         14    1    4    4    0    0  0.13041911115E+02 -0.82574221825E+01  0.13472413432E+02  0.20488591711E+02  0.00000000000E+00 0. -1.
<mgrwt>
<rscale>  0 0.79889493E+02</rscale>
<asrwt>0</asrwt>
<pdfrwt beam="1">  1        1 0.29769434E-01 0.79889493E+02</pdfrwt>
<pdfrwt beam="2">  1       -2 0.12685922E-02 0.79889493E+02</pdfrwt>
<totfact> 0.16628496E+05</totfact>
</mgrwt>
</event>
<event>
 8    1  0.1319619E-020  0.7799772E+02  0.7818608E-02  0.1334832E+00
          1   -1    0    0  501    0  0.00000000000E+00  0.00000000000E+00  0.92857338599E+02  0.92857338735E+02  0.50400000000E-02 0. -1.
         -2   -1    0    0    0  501 -0.00000000000E+00 -0.00000000000E+00 -0.16379006522E+02  0.16379006720E+02  0.25500000000E-02 0.  1.
        -24    2    1    2    0    0 -0.71054273576E-14  0.00000000000E+00  0.76478332077E+02  0.10923634546E+03  0.77997717219E+02 0.  0.
         66    2    3    3    0    0 -0.24937876790E+02  0.14148586618E+02  0.12944131303E+01  0.28770743897E+02  0.19999992332E+01 0.  0.
         13    1    3    3    0    0  0.24937876790E+02 -0.14148586618E+02  0.75183918946E+02  0.80465601559E+02  0.10566000000E+00 0. -1.
         13    1    4    4    0    0 -0.11120055150E+01  0.90845899869E+00 -0.11150780468E+00  0.14441094293E+01  0.10566000000E+00 0.  1.
        -13    1    4    4    0    0 -0.53281839560E+01  0.23462337939E+01  0.35933334517E+00  0.58339216461E+01  0.10566000000E+00 0.  1.
         14    1    4    4    0    0 -0.18497687319E+02  0.10893893826E+02  0.10465875898E+01  0.21492712821E+02  0.00000000000E+00 0. -1.
<mgrwt>
<rscale>  0 0.77997717E+02</rscale>
<asrwt>0</asrwt>
<pdfrwt beam="1">  1        1 0.14285744E-01 0.77997717E+02</pdfrwt>
<pdfrwt beam="2">  1       -2 0.25198472E-02 0.77997717E+02</pdfrwt>
<totfact> 0.15548626E+05</totfact>
</mgrwt>
</event>
<event>
 8    1  0.1319619E-020  0.7998404E+02  0.7818608E-02  0.1329097E+00
         -2   -1    0    0    0  501 -0.00000000000E+00  0.00000000000E+00  0.10244428934E+02  0.10244429252E+02  0.25500000000E-02 0.  1.
          1   -1    0    0  501    0  0.00000000000E+00 -0.00000000000E+00 -0.15612012198E+03  0.15612012206E+03  0.50400000000E-02 0. -1.
        -24    2    1    2    0    0  0.00000000000E+00 -0.35527136788E-14 -0.14587569304E+03  0.16636455131E+03  0.79984036607E+02 0.  0.
         66    2    3    3    0    0  0.32227245450E+02  0.23634321001E+02 -0.73866081764E+02  0.84008180827E+02  0.19999830811E+01 0.  0.
         13    1    3    3    0    0 -0.32227245450E+02 -0.23634321001E+02 -0.72009611280E+02  0.82356370483E+02  0.10566000000E+00 0. -1.
         13    1    4    4    0    0  0.53039638057E+00  0.60200462665E+00 -0.12261678434E+01  0.14691431199E+01  0.10566000000E+00 0. -1.
        -13    1    4    4    0    0  0.28633903698E+02  0.20680499344E+02 -0.64893620854E+02  0.73883534605E+02  0.10566000000E+00 0.  1.
        -14    1    4    4    0    0  0.30629453717E+01  0.23518170301E+01 -0.77462930660E+01  0.86555031025E+01  0.00000000000E+00 0.  1.
<mgrwt>
<rscale>  0 0.79984037E+02</rscale>
<asrwt>0</asrwt>
<pdfrwt beam="1">  1        1 0.24018479E-01 0.79984037E+02</pdfrwt>
<pdfrwt beam="2">  1       -2 0.15760661E-02 0.79984037E+02</pdfrwt>
<totfact> 0.15914322E+05</totfact>
</mgrwt>
</event>
<event>
 8    1  0.1319619E-020  0.8080729E+02  0.7818608E-02  0.1326776E+00
         -2   -1    0    0    0  501 -0.00000000000E+00  0.00000000000E+00  0.11701883516E+03  0.11701883519E+03  0.25500000000E-02 0.  1.
          1   -1    0    0  501    0  0.00000000000E+00 -0.00000000000E+00 -0.13950356270E+02  0.13950357181E+02  0.50400000000E-02 0. -1.
        -24    2    1    2    0    0 -0.71054273576E-14  0.35527136788E-14  0.10306847889E+03  0.13096919237E+03  0.80807289331E+02 0.  0.
         66    2    3    3    0    0 -0.28960894376E+02  0.24285674916E+02  0.74596601321E+02  0.83649150256E+02  0.20000001683E+01 0.  0.
         13    1    3    3    0    0  0.28960894376E+02 -0.24285674916E+02  0.28471877567E+02  0.47320042111E+02  0.10566000000E+00 0. -1.
         13    1    4    4    0    0 -0.71142567682E+00  0.84172059907E+00  0.26080363080E+01  0.28333085748E+01  0.10566000000E+00 0. -1.
        -13    1    4    4    0    0 -0.10980808793E+02  0.84338547773E+01  0.27200682200E+02  0.30522063238E+02  0.10566000000E+00 0.  1.
        -14    1    4    4    0    0 -0.17268659906E+02  0.15010099540E+02  0.44787882813E+02  0.50293778443E+02  0.00000000000E+00 0.  1.
<mgrwt>
<rscale>  0 0.80807289E+02</rscale>
<asrwt>0</asrwt>
<pdfrwt beam="1">  1        1 0.21462088E-02 0.80807289E+02</pdfrwt>
<pdfrwt beam="2">  1       -2 0.18002897E-01 0.80807289E+02</pdfrwt>
<totfact> 0.99263421E+04</totfact>
</mgrwt>
</event>
<event>
 8    1  0.1319619E-020  0.8042366E+02  0.7818608E-02  0.1327853E+00
          1   -1    0    0  501    0  0.00000000000E+00  0.00000000000E+00  0.10023200263E+02  0.10023201530E+02  0.50400000000E-02 0. -1.
         -2   -1    0    0    0  501 -0.00000000000E+00 -0.00000000000E+00 -0.16132483729E+03  0.16132483731E+03  0.25500000000E-02 0.  1.
        -24    2    1    2    0    0 -0.17763568394E-14 -0.17763568394E-14 -0.15130163703E+03  0.17134803884E+03  0.80423659748E+02 0.  0.
         66    2    3    3    0    0 -0.14664137259E+02  0.13458776677E+02 -0.15007871656E+03  0.15140606578E+03  0.19999995283E+01 0.  0.
         13    1    3    3    0    0  0.14664137259E+02 -0.13458776677E+02 -0.12229204669E+01  0.19941973064E+02  0.10566000000E+00 0. -1.
         13    1    4    4    0    0 -0.58419564640E+00  0.73617966320E+00 -0.86273843012E+01  0.86790649822E+01  0.10566000000E+00 0. -1.
        -13    1    4    4    0    0 -0.97061266759E+01  0.78134718844E+01 -0.94009677791E+02  0.94831903495E+02  0.10566000000E+00 0.  1.
        -14    1    4    4    0    0 -0.43738149365E+01  0.49091251294E+01 -0.47441654470E+02  0.47895097301E+02  0.00000000000E+00 0.  1.
<mgrwt>
<rscale>  0 0.80423660E+02</rscale>
<asrwt>0</asrwt>
<pdfrwt beam="1">  1        1 0.15420310E-02 0.80423660E+02</pdfrwt>
<pdfrwt beam="2">  1       -2 0.24819204E-01 0.80423660E+02</pdfrwt>
<totfact> 0.90972329E+04</totfact>
</mgrwt>
</event>
<event>
 8    1  0.1319619E-020  0.7995654E+02  0.7818608E-02  0.1329175E+00
         -2   -1    0    0    0  501 -0.00000000000E+00  0.00000000000E+00  0.76852413777E+01  0.76852418007E+01  0.25500000000E-02 0.  1.
          1   -1    0    0  501    0  0.00000000000E+00 -0.00000000000E+00 -0.20796511675E+03  0.20796511681E+03  0.50400000000E-02 0. -1.
        -24    2    1    2    0    0  0.22204460493E-15  0.00000000000E+00 -0.20027987537E+03  0.21565035861E+03  0.79956542510E+02 0.  0.
         66    2    3    3    0    0  0.13047976363E+01 -0.30222907341E+02 -0.29812355221E+02  0.42519445094E+02  0.20000155545E+01 0.  0.
         13    1    3    3    0    0 -0.13047976363E+01  0.30222907341E+02 -0.17046752015E+03  0.17313091351E+03  0.10566000000E+00 0. -1.
         13    1    4    4    0    0  0.35672356677E-01 -0.81456213771E+00 -0.11218277267E+01  0.13908434410E+01  0.10566000000E+00 0. -1.
        -13    1    4    4    0    0  0.14979938851E+01 -0.24397057767E+02 -0.23413867850E+02  0.33847906658E+02  0.10566000000E+00 0.  1.
        -14    1    4    4    0    0 -0.22886860548E+00 -0.50112874360E+01 -0.52766596441E+01  0.72806949946E+01  0.00000000000E+00 0.  1.
<mgrwt>
<rscale>  0 0.79956543E+02</rscale>
<asrwt>0</asrwt>
<pdfrwt beam="1">  1        1 0.31994629E-01 0.79956543E+02</pdfrwt>
<pdfrwt beam="2">  1       -2 0.11823450E-02 0.79956543E+02</pdfrwt>
<totfact> 0.16825210E+05</totfact>
</mgrwt>
</event>
<event>
 8    1  0.1319619E-020  0.7891553E+02  0.7818608E-02  0.1332157E+00
         -2   -1    0    0    0  501 -0.00000000000E+00  0.00000000000E+00  0.29199285936E+01  0.29199297071E+01  0.25500000000E-02 0.  1.
          1   -1    0    0  501    0  0.00000000000E+00 -0.00000000000E+00 -0.53320312505E+03  0.53320312507E+03  0.50400000000E-02 0. -1.
        -24    2    1    2    0    0  0.00000000000E+00  0.35527136788E-14 -0.53028319645E+03  0.53612305478E+03  0.78915533475E+02 0.  0.
         66    2    3    3    0    0 -0.30017276063E+02 -0.23456043929E+02 -0.33448899134E+03  0.33665725626E+03  0.20000011873E+01 0.  0.
         13    1    3    3    0    0  0.30017276063E+02  0.23456043929E+02 -0.19579420511E+03  0.19946579852E+03  0.10566000000E+00 0. -1.
         13    1    4    4    0    0 -0.40868627206E+00 -0.34335030747E+00 -0.42127892851E+01  0.42477843047E+01  0.10566000000E+00 0. -1.
        -13    1    4    4    0    0 -0.39420435389E+01 -0.38185893654E+01 -0.48141895577E+02  0.48453839949E+02  0.10566000000E+00 0.  1.
        -14    1    4    4    0    0 -0.25666546252E+02 -0.19294104256E+02 -0.28213430648E+03  0.28395563201E+03  0.00000000000E+00 0.  1.
<mgrwt>
<rscale>  0 0.78915533E+02</rscale>
<asrwt>0</asrwt>
<pdfrwt beam="1">  1        1 0.82031173E-01 0.78915533E+02</pdfrwt>
<pdfrwt beam="2">  1       -2 0.44922029E-03 0.78915533E+02</pdfrwt>
<totfact> 0.20464666E+05</totfact>
</mgrwt>
</event>
<event>
 8    1  0.1319619E-020  0.7399421E+02  0.7818608E-02  0.1347014E+00
         -2   -1    0    0    0  501 -0.00000000000E+00  0.00000000000E+00  0.21146766773E+03  0.21146766774E+03  0.25500000000E-02 0.  1.
          1   -1    0    0  501    0  0.00000000000E+00 -0.00000000000E+00 -0.64727881267E+01  0.64727900889E+01  0.50400000000E-02 0. -1.
        -24    2    1    2    0    0  0.00000000000E+00  0.71054273576E-14  0.20499487960E+03  0.21794045783E+03  0.73994205837E+02 0.  0.
         66    2    3    3    0    0  0.12349174890E+02  0.32951330018E+02  0.13595871743E+03  0.14045307097E+03  0.20000078157E+01 0.  0.
         13    1    3    3    0    0 -0.12349174890E+02 -0.32951330018E+02  0.69036162177E+02  0.77487386861E+02  0.10566000000E+00 0. -1.
         13    1    4    4    0    0  0.59922752617E+01  0.16569366168E+02  0.64832583580E+02  0.67184271341E+02  0.10566000000E+00 0. -1.
        -13    1    4    4    0    0  0.31961104863E+01  0.71842921815E+01  0.31784135726E+02  0.32742504856E+02  0.10566000000E+00 0.  1.
         14    1    4    4    0    0  0.31607891416E+01  0.91976716684E+01  0.39341998120E+02  0.40526294775E+02  0.00000000000E+00 0. -1.
<mgrwt>
<rscale>  0 0.73994206E+02</rscale>
<asrwt>0</asrwt>
<pdfrwt beam="1">  1        1 0.99581369E-03 0.73994206E+02</pdfrwt>
<pdfrwt beam="2">  1       -2 0.32533488E-01 0.73994206E+02</pdfrwt>
<totfact> 0.10161971E+05</totfact>
</mgrwt>
</event>
<event>
 8    1  0.1319619E-020  0.8114392E+02  0.7818608E-02  0.1325836E+00
          1   -1    0    0  501    0  0.00000000000E+00  0.00000000000E+00  0.48193715000E+02  0.48193715263E+02  0.50400000000E-02 0. -1.
         -2   -1    0    0    0  501 -0.00000000000E+00 -0.00000000000E+00 -0.34155569806E+02  0.34155569901E+02  0.25500000000E-02 0.  1.
        -24    2    1    2    0    0  0.00000000000E+00  0.00000000000E+00  0.14038145194E+02  0.82349285164E+02  0.81143916879E+02 0.  0.
         66    2    3    3    0    0  0.66673260201E+01 -0.23684535385E+02 -0.25683796417E+02  0.35623978723E+02  0.20000022496E+01 0.  0.
         13    1    3    3    0    0 -0.66673260201E+01  0.23684535385E+02  0.39721941611E+02  0.46725306441E+02  0.10566000000E+00 0. -1.
         13    1    4    4    0    0  0.11903834677E+01 -0.25756431250E+01 -0.24962966095E+01  0.37806892369E+01  0.10566000000E+00 0. -1.
        -13    1    4    4    0    0  0.45943472292E+01 -0.16865963477E+02 -0.18180089301E+02  0.25220934984E+02  0.10566000000E+00 0.  1.
         14    1    4    4    0    0  0.88259532326E+00 -0.42429287832E+01 -0.50074105065E+01  0.66223545016E+01  0.00000000000E+00 0. -1.
<mgrwt>
<rscale>  0 0.81143917E+02</rscale>
<asrwt>0</asrwt>
<pdfrwt beam="1">  1        1 0.74144177E-02 0.81143917E+02</pdfrwt>
<pdfrwt beam="2">  1       -2 0.52547031E-02 0.81143917E+02</pdfrwt>
<totfact> 0.12572969E+05</totfact>
</mgrwt>
</event>
<event>
 8    1  0.1319619E-020  0.8025638E+02  0.7818608E-02  0.1328325E+00
         -2   -1    0    0    0  501 -0.00000000000E+00  0.00000000000E+00  0.39710178753E+01  0.39710186941E+01  0.25500000000E-02 0.  1.
          1   -1    0    0  501    0  0.00000000000E+00 -0.00000000000E+00 -0.40550601811E+03  0.40550601814E+03  0.50400000000E-02 0. -1.
        -24    2    1    2    0    0  0.00000000000E+00  0.00000000000E+00 -0.40153500023E+03  0.40947703683E+03  0.80256384681E+02 0.  0.
         66    2    3    3    0    0  0.38208677349E+02 -0.99221367465E+01 -0.23693853960E+03  0.24021287099E+03  0.20000045787E+01 0.  0.
         13    1    3    3    0    0 -0.38208677349E+02  0.99221367465E+01 -0.16459646063E+03  0.16926416584E+03  0.10566000000E+00 0. -1.
         13    1    4    4    0    0  0.11130286975E+02 -0.32269806350E+01 -0.66849684625E+02  0.67846799414E+02  0.10566000000E+00 0. -1.
        -13    1    4    4    0    0  0.19773403030E+02 -0.45119897684E+01 -0.12069341279E+03  0.12238568778E+03  0.10566000000E+00 0.  1.
        -14    1    4    4    0    0  0.73049873442E+01 -0.21831663432E+01 -0.49395442188E+02  0.49980383795E+02  0.00000000000E+00 0.  1.
<mgrwt>
<rscale>  0 0.80256385E+02</rscale>
<asrwt>0</asrwt>
<pdfrwt beam="1">  1        1 0.62385509E-01 0.80256385E+02</pdfrwt>
<pdfrwt beam="2">  1       -2 0.61092621E-03 0.80256385E+02</pdfrwt>
<totfact> 0.18876432E+05</totfact>
</mgrwt>
</event>
<event>
 8    1  0.1319619E-020  0.8494482E+02  0.7818608E-02  0.1315577E+00
          1   -1    0    0  501    0  0.00000000000E+00  0.00000000000E+00  0.23735438385E+01  0.23735491895E+01  0.50400000000E-02 0. -1.
         -2   -1    0    0    0  501 -0.00000000000E+00 -0.00000000000E+00 -0.76000435866E+03  0.76000435866E+03  0.25500000000E-02 0.  1.
        -24    2    1    2    0    0  0.00000000000E+00  0.00000000000E+00 -0.75763081482E+03  0.76237790785E+03  0.84944822187E+02 0.  0.
         66    2    3    3    0    0 -0.13854829861E+02  0.30571183867E+02 -0.61226152743E+03  0.61318409272E+03  0.20000000502E+01 0.  0.
         13    1    3    3    0    0  0.13854829861E+02 -0.30571183867E+02 -0.14536928739E+03  0.14919381513E+03  0.10566000000E+00 0. -1.
         13    1    4    4    0    0 -0.82672362837E+01  0.18074395512E+02 -0.37232864377E+03  0.37285876831E+03  0.10566000000E+00 0. -1.
        -13    1    4    4    0    0 -0.30693167437E+01  0.80791517960E+01 -0.15190173093E+03  0.15214742990E+03  0.10566000000E+00 0.  1.
        -14    1    4    4    0    0 -0.25182768333E+01  0.44176365591E+01 -0.88031152721E+02  0.88177894511E+02  0.00000000000E+00 0.  1.
<mgrwt>
<rscale>  0 0.84944822E+02</rscale>
<asrwt>0</asrwt>
<pdfrwt beam="1">  1        1 0.36516161E-03 0.84944822E+02</pdfrwt>
<pdfrwt beam="2">  1       -2 0.11692355E+00 0.84944822E+02</pdfrwt>
<totfact> 0.29948950E+04</totfact>
</mgrwt>
</event>
<event>
 8    1  0.1319619E-020  0.8000428E+02  0.7818608E-02  0.1329039E+00
         -2   -1    0    0    0  501 -0.00000000000E+00  0.00000000000E+00  0.21040347054E+02  0.21040347209E+02  0.25500000000E-02 0.  1.
          1   -1    0    0  501    0  0.00000000000E+00 -0.00000000000E+00 -0.76052512665E+02  0.76052512832E+02  0.50400000000E-02 0. -1.
        -24    2    1    2    0    0  0.17763568394E-14 -0.35527136788E-14 -0.55012165611E+02  0.97092860041E+02  0.80004281796E+02 0.  0.
         66    2    3    3    0    0  0.13267026968E+02 -0.21891737980E+02  0.97423510817E+01  0.27462257627E+02  0.19999982628E+01 0.  0.
         13    1    3    3    0    0 -0.13267026968E+02  0.21891737980E+02 -0.64754516692E+02  0.69630602413E+02  0.10566000000E+00 0. -1.
         13    1    4    4    0    0  0.61992246944E+00 -0.12310565748E+01  0.41188906596E+00  0.14424357166E+01  0.10566000000E+00 0. -1.
        -13    1    4    4    0    0  0.46432013408E+01 -0.70006780068E+01  0.40818208978E+01  0.93403017683E+01  0.10566000000E+00 0.  1.
        -14    1    4    4    0    0  0.80039031580E+01 -0.13660003398E+02  0.52486411179E+01  0.16679520142E+02  0.00000000000E+00 0.  1.
<mgrwt>
<rscale>  0 0.80004282E+02</rscale>
<asrwt>0</asrwt>
<pdfrwt beam="1">  1        1 0.11700387E-01 0.80004282E+02</pdfrwt>
<pdfrwt beam="2">  1       -2 0.32369765E-02 0.80004282E+02</pdfrwt>
<totfact> 0.14052732E+05</totfact>
</mgrwt>
</event>
<event>
 8    1  0.1319619E-020  0.7947713E+02  0.7818608E-02  0.1330542E+00
          1   -1    0    0  501    0  0.00000000000E+00  0.00000000000E+00  0.13621636615E+02  0.13621637547E+02  0.50400000000E-02 0. -1.
         -2   -1    0    0    0  501 -0.00000000000E+00 -0.00000000000E+00 -0.11592978152E+03  0.11592978155E+03  0.25500000000E-02 0.  1.
        -24    2    1    2    0    0  0.00000000000E+00  0.00000000000E+00 -0.10230814491E+03  0.12955141910E+03  0.79477126745E+02 0.  0.
         66    2    3    3    0    0  0.35119035875E+02  0.59298345695E+01 -0.79823229607E+02  0.87431445226E+02  0.20000026602E+01 0.  0.
         13    1    3    3    0    0 -0.35119035875E+02 -0.59298345695E+01 -0.22484915300E+02  0.42119973871E+02  0.10566000000E+00 0. -1.
         13    1    4    4    0    0  0.42120034906E+01  0.10497208540E+01 -0.91052117735E+01  0.10087563271E+02  0.10566000000E+00 0. -1.
        -13    1    4    4    0    0  0.19933654094E+02  0.32373624216E+01 -0.43981690963E+02  0.48396605098E+02  0.10566000000E+00 0.  1.
        -14    1    4    4    0    0  0.10973378290E+02  0.16427512939E+01 -0.26736326871E+02  0.28947276857E+02  0.00000000000E+00 0.  1.
<mgrwt>
<rscale>  0 0.79477127E+02</rscale>
<asrwt>0</asrwt>
<pdfrwt beam="1">  1        1 0.20956366E-02 0.79477127E+02</pdfrwt>
<pdfrwt beam="2">  1       -2 0.17835350E-01 0.79477127E+02</pdfrwt>
<totfact> 0.10384868E+05</totfact>
</mgrwt>
</event>
<event>
 8    1  0.1319619E-020  0.7881517E+02  0.7818608E-02  0.1332448E+00
         -2   -1    0    0    0  501 -0.00000000000E+00  0.00000000000E+00  0.44535298924E+02  0.44535298997E+02  0.25500000000E-02 0.  1.
          1   -1    0    0  501    0  0.00000000000E+00 -0.00000000000E+00 -0.34870266665E+02  0.34870267029E+02  0.50400000000E-02 0. -1.
        -24    2    1    2    0    0 -0.35527136788E-14  0.35527136788E-14  0.96650322590E+01  0.79405566026E+02  0.78815170287E+02 0.  0.
         66    2    3    3    0    0  0.18253013787E+02 -0.26890876157E+02  0.27243201931E+02  0.42455668248E+02  0.19999955374E+01 0.  0.
         13    1    3    3    0    0 -0.18253013787E+02  0.26890876157E+02 -0.17578169672E+02  0.36949897778E+02  0.10566000000E+00 0. -1.
         13    1    4    4    0    0  0.23512555600E+01 -0.24375707875E+01  0.26286528139E+01  0.42884885104E+01  0.10566000000E+00 0. -1.
        -13    1    4    4    0    0  0.81935750822E+01 -0.12592789309E+02  0.12727842130E+02  0.19690661353E+02  0.10566000000E+00 0.  1.
         14    1    4    4    0    0  0.77081831445E+01 -0.11860516060E+02  0.11886706987E+02  0.18476518384E+02  0.00000000000E+00 0. -1.
<mgrwt>
<rscale>  0 0.78815170E+02</rscale>
<asrwt>0</asrwt>
<pdfrwt beam="1">  1        1 0.53646565E-02 0.78815170E+02</pdfrwt>
<pdfrwt beam="2">  1       -2 0.68515844E-02 0.78815170E+02</pdfrwt>
<totfact> 0.12949827E+05</totfact>
</mgrwt>
</event>
<event>
 8    1  0.1319619E-020  0.8580698E+02  0.7818608E-02  0.1313336E+00
          1   -1    0    0  501    0  0.00000000000E+00  0.00000000000E+00  0.15131117768E+03  0.15131117777E+03  0.50400000000E-02 0. -1.
         -2   -1    0    0    0  501 -0.00000000000E+00 -0.00000000000E+00 -0.12165058150E+02  0.12165058417E+02  0.25500000000E-02 0.  1.
        -24    2    1    2    0    0  0.41633363423E-16  0.71054273576E-14  0.13914611953E+03  0.16347623619E+03  0.85806976499E+02 0.  0.
         66    2    3    3    0    0 -0.92542934319E-01 -0.29303791987E+02  0.99702332485E+01  0.31018161495E+02  0.20000006243E+01 0.  0.
         13    1    3    3    0    0  0.92542934319E-01  0.29303791987E+02  0.12917588629E+03  0.13245807469E+03  0.10566000000E+00 0. -1.
         13    1    4    4    0    0 -0.15008839090E+00 -0.23053164936E+01  0.74998257656E+00  0.24311825439E+01  0.10566000000E+00 0. -1.
        -13    1    4    4    0    0 -0.77875328190E+00 -0.12775961736E+02  0.47895773301E+01  0.13666852966E+02  0.10566000000E+00 0.  1.
         14    1    4    4    0    0  0.83629873848E+00 -0.14222513757E+02  0.44306733418E+01  0.14920125985E+02  0.00000000000E+00 0. -1.
<mgrwt>
<rscale>  0 0.85806976E+02</rscale>
<asrwt>0</asrwt>
<pdfrwt beam="1">  1        1 0.23278641E-01 0.85806976E+02</pdfrwt>
<pdfrwt beam="2">  1       -2 0.18715476E-02 0.85806976E+02</pdfrwt>
<totfact> 0.13103815E+05</totfact>
</mgrwt>
</event>
<event>
 8    1  0.1319619E-020  0.7460756E+02  0.7818608E-02  0.1345091E+00
         -2   -1    0    0    0  501 -0.00000000000E+00  0.00000000000E+00  0.21945638898E+02  0.21945639046E+02  0.25500000000E-02 0.  1.
          1   -1    0    0  501    0  0.00000000000E+00 -0.00000000000E+00 -0.63409949833E+02  0.63409950033E+02  0.50400000000E-02 0. -1.
        -24    2    1    2    0    0  0.00000000000E+00  0.00000000000E+00 -0.41464310935E+02  0.85355589079E+02  0.74607556626E+02 0.  0.
         66    2    3    3    0    0  0.32598668432E+01 -0.26936491366E+02  0.84963507470E+01  0.28502443356E+02  0.20000005753E+01 0.  0.
         13    1    3    3    0    0 -0.32598668432E+01  0.26936491366E+02 -0.49960661682E+02  0.56853145723E+02  0.10566000000E+00 0. -1.
         13    1    4    4    0    0  0.19922035613E+01 -0.14792113891E+02  0.51346357581E+01  0.15784522698E+02  0.10566000000E+00 0. -1.
        -13    1    4    4    0    0  0.12196575208E+01 -0.10758899756E+02  0.33389411187E+01  0.11331424459E+02  0.10566000000E+00 0.  1.
         14    1    4    4    0    0  0.48005761074E-01 -0.13854777183E+01  0.22773870274E-01  0.13864961991E+01  0.00000000000E+00 0. -1.
<mgrwt>
<rscale>  0 0.74607557E+02</rscale>
<asrwt>0</asrwt>
<pdfrwt beam="1">  1        1 0.97553769E-02 0.74607557E+02</pdfrwt>
<pdfrwt beam="2">  1       -2 0.33762522E-02 0.74607557E+02</pdfrwt>
<totfact> 0.16526861E+05</totfact>
</mgrwt>
</event>
<event>
 8    1  0.1319619E-020  0.7902693E+02  0.7818608E-02  0.1331836E+00
          1   -1    0    0  501    0  0.00000000000E+00  0.00000000000E+00  0.96458965432E+01  0.96458978599E+01  0.50400000000E-02 0. -1.
         -2   -1    0    0    0  501 -0.00000000000E+00 -0.00000000000E+00 -0.16186302106E+03  0.16186302108E+03  0.25500000000E-02 0.  1.
        -24    2    1    2    0    0  0.00000000000E+00  0.17763568394E-14 -0.15221712452E+03  0.17150891894E+03  0.79026933888E+02 0.  0.
         66    2    3    3    0    0  0.53363356236E+01  0.13345203403E+02 -0.15597840957E+03  0.15665195555E+03  0.19999990916E+01 0.  0.
         13    1    3    3    0    0 -0.53363356236E+01 -0.13345203403E+02  0.37612850503E+01  0.14856963385E+02  0.10566000000E+00 0. -1.
         13    1    4    4    0    0  0.25787633539E+01  0.75189603272E+01 -0.91771367774E+02  0.92115036188E+02  0.10566000000E+00 0. -1.
        -13    1    4    4    0    0  0.67698958265E+00  0.24407647817E+01 -0.23460109822E+02  0.23596685456E+02  0.10566000000E+00 0.  1.
         14    1    4    4    0    0  0.20805826871E+01  0.33854782941E+01 -0.40746931969E+02  0.40940233909E+02  0.00000000000E+00 0. -1.
<mgrwt>
<rscale>  0 0.79026934E+02</rscale>
<asrwt>0</asrwt>
<pdfrwt beam="1">  1        1 0.14839843E-02 0.79026934E+02</pdfrwt>
<pdfrwt beam="2">  1       -2 0.24902001E-01 0.79026934E+02</pdfrwt>
<totfact> 0.95060606E+04</totfact>
</mgrwt>
</event>
<event>
 8    1  0.1319619E-020  0.7743073E+02  0.7818608E-02  0.1336505E+00
         -2   -1    0    0    0  501 -0.00000000000E+00  0.00000000000E+00  0.14183375151E+03  0.14183375154E+03  0.25500000000E-02 0.  1.
          1   -1    0    0  501    0  0.00000000000E+00 -0.00000000000E+00 -0.10567861266E+02  0.10567862468E+02  0.50400000000E-02 0. -1.
        -24    2    1    2    0    0  0.00000000000E+00  0.35527136788E-14  0.13126589025E+03  0.15240161400E+03  0.77430730389E+02 0.  0.
         66    2    3    3    0    0  0.30118516111E+02 -0.22905269307E+02  0.81556985109E+02  0.89929517922E+02  0.19999997382E+01 0.  0.
         13    1    3    3    0    0 -0.30118516111E+02  0.22905269307E+02  0.49708905138E+02  0.62472096081E+02  0.10566000000E+00 0. -1.
         13    1    4    4    0    0  0.10841648409E+02 -0.83648055051E+01  0.28120184668E+02  0.31277264285E+02  0.10566000000E+00 0. -1.
        -13    1    4    4    0    0  0.11582115655E+02 -0.83952295778E+01  0.30308081324E+02  0.33514418394E+02  0.10566000000E+00 0.  1.
         14    1    4    4    0    0  0.76947520475E+01 -0.61452342238E+01  0.23128719116E+02  0.25137835243E+02  0.00000000000E+00 0. -1.
<mgrwt>
<rscale>  0 0.77430730E+02</rscale>
<asrwt>0</asrwt>
<pdfrwt beam="1">  1        1 0.16258250E-02 0.77430730E+02</pdfrwt>
<pdfrwt beam="2">  1       -2 0.21820577E-01 0.77430730E+02</pdfrwt>
<totfact> 0.10465089E+05</totfact>
</mgrwt>
</event>
<event>
 8    1  0.1319619E-020  0.7937708E+02  0.7818608E-02  0.1330829E+00
         -2   -1    0    0    0  501 -0.00000000000E+00  0.00000000000E+00  0.11455707267E+02  0.11455707550E+02  0.25500000000E-02 0.  1.
          1   -1    0    0  501    0  0.00000000000E+00 -0.00000000000E+00 -0.13750179196E+03  0.13750179206E+03  0.50400000000E-02 0. -1.
        -24    2    1    2    0    0  0.00000000000E+00  0.00000000000E+00 -0.12604608470E+03  0.14895749961E+03  0.79377082470E+02 0.  0.
         66    2    3    3    0    0 -0.24308206671E+02  0.90411932296E+01 -0.67485300017E+01  0.26873308136E+02  0.19999866112E+01 0.  0.
         13    1    3    3    0    0  0.24308206671E+02 -0.90411932296E+01 -0.11929755470E+03  0.12208419147E+03  0.10566000000E+00 0. -1.
         13    1    4    4    0    0 -0.15412978125E+01  0.23025006874E+00 -0.61589877420E+00  0.16790203622E+01  0.10566000000E+00 0. -1.
        -13    1    4    4    0    0 -0.10121294291E+02  0.36609828351E+01 -0.22125089479E+01  0.10988619264E+02  0.10566000000E+00 0.  1.
        -14    1    4    4    0    0 -0.12645614567E+02  0.51499603257E+01 -0.39201222797E+01  0.14205668510E+02  0.00000000000E+00 0.  1.
<mgrwt>
<rscale>  0 0.79377082E+02</rscale>
<asrwt>0</asrwt>
<pdfrwt beam="1">  1        1 0.21154121E-01 0.79377082E+02</pdfrwt>
<pdfrwt beam="2">  1       -2 0.17624166E-02 0.79377082E+02</pdfrwt>
<totfact> 0.15867803E+05</totfact>
</mgrwt>
</event>
<event>
 8    1  0.1319619E-020  0.7836212E+02  0.7818608E-02  0.1333765E+00
         -2   -1    0    0    0  501 -0.00000000000E+00  0.00000000000E+00  0.72561138149E+02  0.72561138194E+02  0.25500000000E-02 0.  1.
          1   -1    0    0  501    0  0.00000000000E+00 -0.00000000000E+00 -0.21156719139E+02  0.21156719739E+02  0.50400000000E-02 0. -1.
        -24    2    1    2    0    0  0.00000000000E+00  0.00000000000E+00  0.51404419010E+02  0.93717857934E+02  0.78362124792E+02 0.  0.
         66    2    3    3    0    0  0.82388445126E+01  0.77691049137E+01  0.70546030752E+02  0.71477129210E+02  0.19999987705E+01 0.  0.
         13    1    3    3    0    0 -0.82388445126E+01 -0.77691049137E+01 -0.19141611742E+02  0.22240728724E+02  0.10566000000E+00 0. -1.
         13    1    4    4    0    0  0.86750380450E-01  0.19981781455E+00  0.16319417681E+01  0.16498032481E+01  0.10566000000E+00 0.  1.
        -13    1    4    4    0    0  0.12876284544E+01  0.12314665553E+01  0.15484750231E+02  0.15587275280E+02  0.10566000000E+00 0.  1.
         14    1    4    4    0    0  0.68644656778E+01  0.63378205439E+01  0.53429338753E+02  0.54240050681E+02  0.00000000000E+00 0. -1.
<mgrwt>
<rscale>  0 0.78362125E+02</rscale>
<asrwt>0</asrwt>
<pdfrwt beam="1">  1        1 0.32548800E-02 0.78362125E+02</pdfrwt>
<pdfrwt beam="2">  1       -2 0.11163252E-01 0.78362125E+02</pdfrwt>
<totfact> 0.12023560E+05</totfact>
</mgrwt>
</event>
<event>
 8    1  0.1319619E-020  0.8387192E+02  0.7818608E-02  0.1318409E+00
         -2   -1    0    0    0  501 -0.00000000000E+00  0.00000000000E+00  0.17403687643E+03  0.17403687645E+03  0.25500000000E-02 0.  1.
          1   -1    0    0  501    0  0.00000000000E+00 -0.00000000000E+00 -0.10104895446E+02  0.10104896703E+02  0.50400000000E-02 0. -1.
        -24    2    1    2    0    0  0.00000000000E+00  0.00000000000E+00  0.16393198099E+03  0.18414177315E+03  0.83871915623E+02 0.  0.
         66    2    3    3    0    0 -0.86821479350E+01 -0.21267043526E+02  0.15897925306E+03  0.16064267719E+03  0.19999999358E+01 0.  0.
         13    1    3    3    0    0  0.86821479350E+01  0.21267043526E+02  0.49527279298E+01  0.23499095963E+02  0.10566000000E+00 0. -1.
         13    1    4    4    0    0 -0.25342483549E+01 -0.77665305202E+01  0.58428052519E+02  0.58996524442E+02  0.10566000000E+00 0. -1.
        -13    1    4    4    0    0 -0.28040583108E+01 -0.69794088500E+01  0.54078030872E+02  0.54598713153E+02  0.10566000000E+00 0.  1.
        -14    1    4    4    0    0 -0.33438412692E+01 -0.65211041555E+01  0.46473169665E+02  0.47047439596E+02  0.00000000000E+00 0.  1.
<mgrwt>
<rscale>  0 0.83871916E+02</rscale>
<asrwt>0</asrwt>
<pdfrwt beam="1">  1        1 0.15545992E-02 0.83871916E+02</pdfrwt>
<pdfrwt beam="2">  1       -2 0.26774908E-01 0.83871916E+02</pdfrwt>
<totfact> 0.79456242E+04</totfact>
</mgrwt>
</event>
<event>
 8    1  0.1319619E-020  0.7992610E+02  0.7818608E-02  0.1329261E+00
         -2   -1    0    0    0  501 -0.00000000000E+00  0.00000000000E+00  0.60551011132E+02  0.60551011186E+02  0.25500000000E-02 0.  1.
          1   -1    0    0  501    0  0.00000000000E+00 -0.00000000000E+00 -0.26375205693E+02  0.26375206174E+02  0.50400000000E-02 0. -1.
        -24    2    1    2    0    0  0.00000000000E+00  0.00000000000E+00  0.34175805440E+02  0.86926217360E+02  0.79926100788E+02 0.  0.
         66    2    3    3    0    0 -0.39165819705E+02  0.35280427753E+01  0.95141440089E+01  0.40508362740E+02  0.19999991775E+01 0.  0.
         13    1    3    3    0    0  0.39165819705E+02 -0.35280427753E+01  0.24661661431E+02  0.46417854620E+02  0.10566000000E+00 0. -1.
         13    1    4    4    0    0 -0.34805139290E+02  0.30671782128E+01  0.88372011971E+01  0.36040429967E+02  0.10566000000E+00 0. -1.
        -13    1    4    4    0    0 -0.35117293516E+01  0.48386264877E+00  0.37353037963E+00  0.35660980192E+01  0.10566000000E+00 0.  1.
         14    1    4    4    0    0 -0.84895106356E+00 -0.22998086302E-01  0.30341243220E+00  0.90183475443E+00  0.00000000000E+00 0. -1.
<mgrwt>
<rscale>  0 0.79926101E+02</rscale>
<asrwt>0</asrwt>
<pdfrwt beam="1">  1        1 0.40577240E-02 0.79926101E+02</pdfrwt>
<pdfrwt beam="2">  1       -2 0.93155402E-02 0.79926101E+02</pdfrwt>
<totfact> 0.11846398E+05</totfact>
</mgrwt>
</event>
<event>
 8    1  0.1319619E-020  0.7869428E+02  0.7818608E-02  0.1332798E+00
          1   -1    0    0  501    0  0.00000000000E+00  0.00000000000E+00  0.17779984479E+03  0.17779984487E+03  0.50400000000E-02 0. -1.
         -2   -1    0    0    0  501 -0.00000000000E+00 -0.00000000000E+00 -0.87075296193E+01  0.87075299927E+01  0.25500000000E-02 0.  1.
        -24    2    1    2    0    0  0.00000000000E+00  0.00000000000E+00  0.16909231518E+03  0.18650737486E+03  0.78694280767E+02 0.  0.
         66    2    3    3    0    0  0.41026222005E+01  0.39068816328E+02  0.80503424191E+02  0.89599136365E+02  0.20000031664E+01 0.  0.
         13    1    3    3    0    0 -0.41026222005E+01 -0.39068816328E+02  0.88588890985E+02  0.96908238494E+02  0.10566000000E+00 0. -1.
         13    1    4    4    0    0  0.12446593895E+01  0.93510644114E+01  0.18306972335E+02  0.20594853307E+02  0.10566000000E+00 0. -1.
        -13    1    4    4    0    0  0.16315834753E+01  0.10247208069E+02  0.21431783270E+02  0.23811758357E+02  0.10566000000E+00 0.  1.
         14    1    4    4    0    0  0.12263793358E+01  0.19470543847E+02  0.40764668585E+02  0.45192524701E+02  0.00000000000E+00 0. -1.
<mgrwt>
<rscale>  0 0.78694281E+02</rscale>
<asrwt>0</asrwt>
<pdfrwt beam="1">  1        1 0.27353824E-01 0.78694281E+02</pdfrwt>
<pdfrwt beam="2">  1       -2 0.13396199E-02 0.78694281E+02</pdfrwt>
<totfact> 0.17029044E+05</totfact>
</mgrwt>
</event>
<event>
 8    1  0.1319619E-020  0.8251747E+02  0.7818608E-02  0.1322055E+00
          1   -1    0    0  501    0  0.00000000000E+00  0.00000000000E+00  0.30618420190E+02  0.30618420605E+02  0.50400000000E-02 0. -1.
         -2   -1    0    0    0  501 -0.00000000000E+00 -0.00000000000E+00 -0.55596696878E+02  0.55596696936E+02  0.25500000000E-02 0.  1.
        -24    2    1    2    0    0  0.00000000000E+00 -0.35527136788E-14 -0.24978276687E+02  0.86215117541E+02  0.82517465947E+02 0.  0.
         66    2    3    3    0    0  0.30188914841E+02  0.27626168654E+02 -0.71995348495E+01  0.41598185787E+02  0.19999962291E+01 0.  0.
         13    1    3    3    0    0 -0.30188914841E+02 -0.27626168654E+02 -0.17778741838E+02  0.44616931754E+02  0.10566000000E+00 0. -1.
         13    1    4    4    0    0  0.99468884754E+01  0.90299339581E+01 -0.22656605904E+01  0.13624414834E+02  0.10566000000E+00 0. -1.
        -13    1    4    4    0    0  0.18768905088E+02  0.17763115969E+02 -0.46815934716E+01  0.26262683957E+02  0.10566000000E+00 0.  1.
         14    1    4    4    0    0  0.14731212778E+01  0.83311872686E+00 -0.25228078749E+00  0.17110869960E+01  0.00000000000E+00 0. -1.
<mgrwt>
<rscale>  0 0.82517466E+02</rscale>
<asrwt>0</asrwt>
<pdfrwt beam="1">  1        1 0.47105262E-02 0.82517466E+02</pdfrwt>
<pdfrwt beam="2">  1       -2 0.85533380E-02 0.82517466E+02</pdfrwt>
<totfact> 0.11102414E+05</totfact>
</mgrwt>
</event>
<event>
 8    1  0.1319619E-020  0.8388804E+02  0.7818608E-02  0.1318366E+00
          1   -1    0    0  501    0  0.00000000000E+00  0.00000000000E+00  0.18530855943E+02  0.18530856628E+02  0.50400000000E-02 0. -1.
         -2   -1    0    0    0  501 -0.00000000000E+00 -0.00000000000E+00 -0.94938989864E+02  0.94938989898E+02  0.25500000000E-02 0.  1.
        -24    2    1    2    0    0 -0.71054273576E-14  0.17763568394E-14 -0.76408133921E+02  0.11346984653E+03  0.83888039323E+02 0.  0.
         66    2    3    3    0    0  0.31283121507E+02 -0.13466725308E+02 -0.71283989627E+02  0.79027802445E+02  0.20000000799E+01 0.  0.
         13    1    3    3    0    0 -0.31283121507E+02  0.13466725308E+02 -0.51241442935E+01  0.34442044082E+02  0.10566000000E+00 0. -1.
         13    1    4    4    0    0  0.71553668236E+00 -0.41216852454E+00 -0.17173790019E+01  0.19085152104E+01  0.10566000000E+00 0.  1.
        -13    1    4    4    0    0  0.24517619994E+01 -0.11070174933E+01 -0.46316856544E+01  0.53572661563E+01  0.10566000000E+00 0.  1.
        -14    1    4    4    0    0  0.28115822825E+02 -0.11947539291E+02 -0.64934924971E+02  0.71762021078E+02  0.00000000000E+00 0.  1.
<mgrwt>
<rscale>  0 0.83888039E+02</rscale>
<asrwt>0</asrwt>
<pdfrwt beam="1">  1        1 0.28509010E-02 0.83888039E+02</pdfrwt>
<pdfrwt beam="2">  1       -2 0.14605998E-01 0.83888039E+02</pdfrwt>
<totfact> 0.95190495E+04</totfact>
</mgrwt>
</event>
<event>
 8    1  0.1319619E-020  0.8104888E+02  0.7818608E-02  0.1326101E+00
         -2   -1    0    0    0  501 -0.00000000000E+00  0.00000000000E+00  0.81090574654E+02  0.81090574694E+02  0.25500000000E-02 0.  1.
          1   -1    0    0  501    0  0.00000000000E+00 -0.00000000000E+00 -0.20251801360E+02  0.20251801987E+02  0.50400000000E-02 0. -1.
        -24    2    1    2    0    0  0.00000000000E+00  0.00000000000E+00  0.60838773294E+02  0.10134237668E+03  0.81048880162E+02 0.  0.
         66    2    3    3    0    0 -0.19289995791E+02  0.16123433027E+02  0.70139456081E+02  0.74535980158E+02  0.20000021389E+01 0.  0.
         13    1    3    3    0    0  0.19289995791E+02 -0.16123433027E+02 -0.93006827875E+01  0.26806396523E+02  0.10566000000E+00 0. -1.
         13    1    4    4    0    0 -0.94424461587E+01  0.69567633500E+01  0.31298585630E+02  0.33424077732E+02  0.10566000000E+00 0. -1.
        -13    1    4    4    0    0 -0.58543136110E+01  0.53463904239E+01  0.21784498030E+02  0.23182588226E+02  0.10566000000E+00 0.  1.
         14    1    4    4    0    0 -0.39932360215E+01  0.38202792535E+01  0.17056372421E+02  0.17929314200E+02  0.00000000000E+00 0. -1.
<mgrwt>
<rscale>  0 0.81048880E+02</rscale>
<asrwt>0</asrwt>
<pdfrwt beam="1">  1        1 0.31156618E-02 0.81048880E+02</pdfrwt>
<pdfrwt beam="2">  1       -2 0.12475473E-01 0.81048880E+02</pdfrwt>
<totfact> 0.10779247E+05</totfact>
</mgrwt>
</event>
<event>
 8    1  0.1319619E-020  0.8109768E+02  0.7818608E-02  0.1325965E+00
         -2   -1    0    0    0  501 -0.00000000000E+00  0.00000000000E+00  0.21978455700E+02  0.21978455848E+02  0.25500000000E-02 0.  1.
          1   -1    0    0  501    0  0.00000000000E+00 -0.00000000000E+00 -0.74810008022E+02  0.74810008191E+02  0.50400000000E-02 0. -1.
        -24    2    1    2    0    0 -0.71054273576E-14  0.00000000000E+00 -0.52831552322E+02  0.96788464039E+02  0.81097680918E+02 0.  0.
         66    2    3    3    0    0  0.40257680347E+02 -0.46034387100E+01 -0.27118451105E+02  0.48798389928E+02  0.19999985841E+01 0.  0.
         13    1    3    3    0    0 -0.40257680347E+02  0.46034387100E+01 -0.25713101217E+02  0.47990074111E+02  0.10566000000E+00 0. -1.
         13    1    4    4    0    0  0.15976239775E+02 -0.16694544110E+01 -0.97631817483E+01  0.18797824269E+02  0.10566000000E+00 0. -1.
        -13    1    4    4    0    0  0.10872989118E+02 -0.92562486758E+00 -0.76932079611E+01  0.13351976877E+02  0.10566000000E+00 0.  1.
         14    1    4    4    0    0  0.13408451455E+02 -0.20083594314E+01 -0.96620613958E+01  0.16648588782E+02  0.00000000000E+00 0. -1.
<mgrwt>
<rscale>  0 0.81097681E+02</rscale>
<asrwt>0</asrwt>
<pdfrwt beam="1">  1        1 0.11509232E-01 0.81097681E+02</pdfrwt>
<pdfrwt beam="2">  1       -2 0.33813009E-02 0.81097681E+02</pdfrwt>
<totfact> 0.13505269E+05</totfact>
</mgrwt>
</event>
<event>
 8    1  0.1319619E-020  0.8443057E+02  0.7818608E-02  0.1316928E+00
          1   -1    0    0  501    0  0.00000000000E+00  0.00000000000E+00  0.10775234048E+02  0.10775235227E+02  0.50400000000E-02 0. -1.
         -2   -1    0    0    0  501 -0.00000000000E+00 -0.00000000000E+00 -0.16539131421E+03  0.16539131423E+03  0.25500000000E-02 0.  1.
        -24    2    1    2    0    0  0.11102230246E-15 -0.71054273576E-14 -0.15461608016E+03  0.17616654946E+03  0.84430568533E+02 0.  0.
         66    2    3    3    0    0  0.84381758036E+00 -0.35411168507E+02 -0.12518065365E+03  0.13011094848E+03  0.19999958164E+01 0.  0.
         13    1    3    3    0    0 -0.84381758036E+00  0.35411168507E+02 -0.29435426508E+02  0.46055600972E+02  0.10566000000E+00 0. -1.
         13    1    4    4    0    0  0.14833751174E+00 -0.34173458395E+01 -0.10801693800E+02  0.11330843287E+02  0.10566000000E+00 0. -1.
        -13    1    4    4    0    0  0.84855121576E+00 -0.22589249520E+02 -0.78705867737E+02  0.81887844113E+02  0.10566000000E+00 0.  1.
        -14    1    4    4    0    0 -0.15307114715E+00 -0.94045731470E+01 -0.35673092115E+02  0.36892261084E+02  0.00000000000E+00 0.  1.
<mgrwt>
<rscale>  0 0.84430569E+02</rscale>
<asrwt>0</asrwt>
<pdfrwt beam="1">  1        1 0.16577285E-02 0.84430569E+02</pdfrwt>
<pdfrwt beam="2">  1       -2 0.25444816E-01 0.84430569E+02</pdfrwt>
<totfact> 0.79551418E+04</totfact>
</mgrwt>
</event>
<event>
 8    1  0.1319619E-020  0.8056203E+02  0.7818608E-02  0.1327464E+00
         -2   -1    0    0    0  501 -0.00000000000E+00  0.00000000000E+00  0.20562835850E+02  0.20562836008E+02  0.25500000000E-02 0.  1.
          1   -1    0    0  501    0  0.00000000000E+00 -0.00000000000E+00 -0.78907405113E+02  0.78907405274E+02  0.50400000000E-02 0. -1.
        -24    2    1    2    0    0  0.35527136788E-14  0.17763568394E-14 -0.58344569264E+02  0.99470241282E+02  0.80562026652E+02 0.  0.
         66    2    3    3    0    0  0.29089613092E+02  0.13469293052E+02  0.87495414127E+00  0.32130872697E+02  0.19999975979E+01 0.  0.
         13    1    3    3    0    0 -0.29089613092E+02 -0.13469293052E+02 -0.59219523405E+02  0.67339368585E+02  0.10566000000E+00 0. -1.
         13    1    4    4    0    0  0.94014757169E+01  0.49649711620E+01  0.60004063570E-01  0.10632659536E+02  0.10566000000E+00 0. -1.
        -13    1    4    4    0    0  0.15930471982E+02  0.71816508128E+01  0.26493395342E+00  0.17476767435E+02  0.10566000000E+00 0.  1.
        -14    1    4    4    0    0  0.37576653931E+01  0.13226710771E+01  0.55001612429E+00  0.40214457253E+01  0.00000000000E+00 0.  1.
<mgrwt>
<rscale>  0 0.80562027E+02</rscale>
<asrwt>0</asrwt>
<pdfrwt beam="1">  1        1 0.12139601E-01 0.80562027E+02</pdfrwt>
<pdfrwt beam="2">  1       -2 0.31635133E-02 0.80562027E+02</pdfrwt>
<totfact> 0.13870758E+05</totfact>
</mgrwt>
</event>
<event>
 8    1  0.1319619E-020  0.8028767E+02  0.7818608E-02  0.1328237E+00
         -2   -1    0    0    0  501 -0.00000000000E+00  0.00000000000E+00  0.28446043381E+03  0.28446043382E+03  0.25500000000E-02 0.  1.
          1   -1    0    0  501    0  0.00000000000E+00 -0.00000000000E+00 -0.56652063849E+01  0.56652086268E+01  0.50400000000E-02 0. -1.
        -24    2    1    2    0    0  0.00000000000E+00  0.00000000000E+00  0.27879522742E+03  0.29012564245E+03  0.80287667615E+02 0.  0.
         66    2    3    3    0    0 -0.56171300490E+01  0.38852499586E+02  0.16938139993E+03  0.17388251067E+03  0.20000002726E+01 0.  0.
         13    1    3    3    0    0  0.56171300490E+01 -0.38852499586E+02  0.10941382749E+03  0.11624313177E+03  0.10566000000E+00 0. -1.
         13    1    4    4    0    0 -0.29111802512E+01  0.20000523791E+02  0.89941331778E+02  0.92184327564E+02  0.10566000000E+00 0. -1.
        -13    1    4    4    0    0 -0.14435833214E+01  0.11270095635E+02  0.49473837523E+02  0.50761902562E+02  0.10566000000E+00 0.  1.
         14    1    4    4    0    0 -0.12623664764E+01  0.75818801611E+01  0.29966230631E+02  0.30936280548E+02  0.00000000000E+00 0. -1.
<mgrwt>
<rscale>  0 0.80287668E+02</rscale>
<asrwt>0</asrwt>
<pdfrwt beam="1">  1        1 0.87157065E-03 0.80287668E+02</pdfrwt>
<pdfrwt beam="2">  1       -2 0.43763130E-01 0.80287668E+02</pdfrwt>
<totfact> 0.71625727E+04</totfact>
</mgrwt>
</event>
<event>
 8    1  0.1319619E-020  0.8351869E+02  0.7818608E-02  0.1319352E+00
         -2   -1    0    0    0  501 -0.00000000000E+00  0.00000000000E+00  0.56913748228E+03  0.56913748228E+03  0.25500000000E-02 0.  1.
          1   -1    0    0  501    0  0.00000000000E+00 -0.00000000000E+00 -0.30640080788E+01  0.30640122239E+01  0.50400000000E-02 0. -1.
        -24    2    1    2    0    0  0.00000000000E+00  0.00000000000E+00  0.56607347420E+03  0.57220149451E+03  0.83518693266E+02 0.  0.
         66    2    3    3    0    0 -0.19445255416E+02  0.13776303102E+02  0.51793856405E+03  0.51849036694E+03  0.19999986213E+01 0.  0.
         13    1    3    3    0    0  0.19445255416E+02 -0.13776303102E+02  0.48134910143E+02  0.53711127561E+02  0.10566000000E+00 0. -1.
         13    1    4    4    0    0 -0.79280240225E+01  0.57641995643E+01  0.20777296365E+03  0.20800407483E+03  0.10566000000E+00 0. -1.
        -13    1    4    4    0    0 -0.56614042732E+01  0.42125553382E+01  0.14047003135E+03  0.14064721111E+03  0.10566000000E+00 0.  1.
         14    1    4    4    0    0 -0.58558271208E+01  0.37995481995E+01  0.16969556906E+03  0.16983908100E+03  0.00000000000E+00 0. -1.
<mgrwt>
<rscale>  0 0.83518693E+02</rscale>
<asrwt>0</asrwt>
<pdfrwt beam="1">  1        1 0.47138612E-03 0.83518693E+02</pdfrwt>
<pdfrwt beam="2">  1       -2 0.87559624E-01 0.83518693E+02</pdfrwt>
<totfact> 0.40653851E+04</totfact>
</mgrwt>
</event>
<event>
 8    1  0.1319619E-020  0.8539187E+02  0.7818608E-02  0.1314411E+00
          1   -1    0    0  501    0  0.00000000000E+00  0.00000000000E+00  0.80678087188E+02  0.80678087346E+02  0.50400000000E-02 0. -1.
         -2   -1    0    0    0  501 -0.00000000000E+00 -0.00000000000E+00 -0.22595265894E+02  0.22595266037E+02  0.25500000000E-02 0.  1.
        -24    2    1    2    0    0  0.71054273576E-14  0.17763568394E-14  0.58082821295E+02  0.10327335338E+03  0.85391869574E+02 0.  0.
         66    2    3    3    0    0  0.38966081396E+02  0.10682897449E+02  0.12454584187E+02  0.42327254387E+02  0.19999998579E+01 0.  0.
         13    1    3    3    0    0 -0.38966081396E+02 -0.10682897449E+02  0.45628237108E+02  0.60946098996E+02  0.10566000000E+00 0. -1.
         13    1    4    4    0    0  0.13444284666E+02  0.36251187574E+01  0.34318933465E+01  0.14341524750E+02  0.10566000000E+00 0. -1.
        -13    1    4    4    0    0  0.25819521527E+01  0.78007700262E+00  0.70421790093E+00  0.27896386748E+01  0.10566000000E+00 0.  1.
        -14    1    4    4    0    0  0.22939844577E+02  0.62777016888E+01  0.83184729396E+01  0.25196090962E+02  0.00000000000E+00 0.  1.
<mgrwt>
<rscale>  0 0.85391870E+02</rscale>
<asrwt>0</asrwt>
<pdfrwt beam="1">  1        1 0.12412013E-01 0.85391870E+02</pdfrwt>
<pdfrwt beam="2">  1       -2 0.34761948E-02 0.85391870E+02</pdfrwt>
<totfact> 0.11869893E+05</totfact>
</mgrwt>
</event>
<event>
 8    1  0.1319619E-020  0.8030897E+02  0.7818608E-02  0.1328177E+00
         -2   -1    0    0    0  501 -0.00000000000E+00  0.00000000000E+00  0.12876072148E+04  0.12876072148E+04  0.25500000000E-02 0.  1.
          1   -1    0    0  501    0  0.00000000000E+00 -0.00000000000E+00 -0.12522268247E+01  0.12522369673E+01  0.50400000000E-02 0. -1.
        -24    2    1    2    0    0  0.00000000000E+00  0.00000000000E+00  0.12863549880E+04  0.12888594518E+04  0.80308974140E+02 0.  0.
         66    2    3    3    0    0  0.17838742964E+02  0.62524839329E+01  0.12116795225E+04  0.12118286098E+04  0.19999977713E+01 0.  0.
         13    1    3    3    0    0 -0.17838742964E+02 -0.62524839329E+01  0.74675465500E+02  0.77030841989E+02  0.10566000000E+00 0. -1.
         13    1    4    4    0    0  0.67942076338E+01  0.17835228425E+01  0.41948708858E+03  0.41954591031E+03  0.10566000000E+00 0. -1.
        -13    1    4    4    0    0  0.71215668850E+01  0.33392733338E+01  0.50551989297E+03  0.50558109222E+03  0.10566000000E+00 0.  1.
         14    1    4    4    0    0  0.39229684457E+01  0.11296877567E+01  0.28667254093E+03  0.28670160725E+03  0.00000000000E+00 0. -1.
<mgrwt>
<rscale>  0 0.80308974E+02</rscale>
<asrwt>0</asrwt>
<pdfrwt beam="1">  1        1 0.19265165E-03 0.80308974E+02</pdfrwt>
<pdfrwt beam="2">  1       -2 0.19809282E+00 0.80308974E+02</pdfrwt>
<totfact> 0.18643386E+04</totfact>
</mgrwt>
</event>
<event>
 8    1  0.1319619E-020  0.7898185E+02  0.7818608E-02  0.1331966E+00
         -2   -1    0    0    0  501 -0.00000000000E+00  0.00000000000E+00  0.12198519108E+02  0.12198519375E+02  0.25500000000E-02 0.  1.
          1   -1    0    0  501    0  0.00000000000E+00 -0.00000000000E+00 -0.12784610617E+03  0.12784610627E+03  0.50400000000E-02 0. -1.
        -24    2    1    2    0    0 -0.17763568394E-14  0.00000000000E+00 -0.11564758706E+03  0.14004462565E+03  0.78981850946E+02 0.  0.
         66    2    3    3    0    0 -0.15396189063E+02  0.24568962972E+02 -0.10386990265E+02  0.30863670431E+02  0.20000016327E+01 0.  0.
         13    1    3    3    0    0  0.15396189063E+02 -0.24568962972E+02 -0.10526059680E+03  0.10918095522E+03  0.10566000000E+00 0. -1.
         13    1    4    4    0    0 -0.98737160470E+01  0.15748958247E+02 -0.66684244377E+01  0.19748392414E+02  0.10566000000E+00 0. -1.
        -13    1    4    4    0    0 -0.35352038205E+01  0.45344372269E+01 -0.20030612530E+01  0.60895160265E+01  0.10566000000E+00 0.  1.
         14    1    4    4    0    0 -0.19872691952E+01  0.42855674987E+01 -0.17155045741E+01  0.50257619904E+01  0.00000000000E+00 0. -1.
<mgrwt>
<rscale>  0 0.78981851E+02</rscale>
<asrwt>0</asrwt>
<pdfrwt beam="1">  1        1 0.19668631E-01 0.78981851E+02</pdfrwt>
<pdfrwt beam="2">  1       -2 0.18766954E-02 0.78981851E+02</pdfrwt>
<totfact> 0.15873037E+05</totfact>
</mgrwt>
</event>
<event>
 8    1  0.1319619E-020  0.8012918E+02  0.7818608E-02  0.1328685E+00
         -2   -1    0    0    0  501 -0.00000000000E+00  0.00000000000E+00  0.20785001064E+02  0.20785001221E+02  0.25500000000E-02 0.  1.
          1   -1    0    0  501    0  0.00000000000E+00 -0.00000000000E+00 -0.77227384672E+02  0.77227384837E+02  0.50400000000E-02 0. -1.
        -24    2    1    2    0    0 -0.17763568394E-14  0.00000000000E+00 -0.56442383608E+02  0.98012386057E+02  0.80129177915E+02 0.  0.
         66    2    3    3    0    0 -0.14427679500E+02 -0.11817572465E+02  0.15099715563E+02  0.24079334771E+02  0.19999995550E+01 0.  0.
         13    1    3    3    0    0  0.14427679500E+02  0.11817572465E+02 -0.71542099171E+02  0.73933051286E+02  0.10566000000E+00 0. -1.
         13    1    4    4    0    0 -0.87800146792E+00 -0.37165773990E+00  0.11328986459E+01  0.14844660423E+01  0.10566000000E+00 0. -1.
        -13    1    4    4    0    0 -0.22019007552E+01 -0.22557422245E+01  0.26800525746E+01  0.41389111802E+01  0.10566000000E+00 0.  1.
         14    1    4    4    0    0 -0.11347777277E+02 -0.91901725003E+01  0.11286764342E+02  0.18455957549E+02  0.00000000000E+00 0. -1.
<mgrwt>
<rscale>  0 0.80129178E+02</rscale>
<asrwt>0</asrwt>
<pdfrwt beam="1">  1        1 0.11881136E-01 0.80129178E+02</pdfrwt>
<pdfrwt beam="2">  1       -2 0.31976925E-02 0.80129178E+02</pdfrwt>
<totfact> 0.14027446E+05</totfact>
</mgrwt>
</event>
<event>
 8    1  0.1319619E-020  0.7911517E+02  0.7818608E-02  0.1331581E+00
          1   -1    0    0  501    0  0.00000000000E+00  0.00000000000E+00  0.44078918195E+01  0.44078947009E+01  0.50400000000E-02 0. -1.
         -2   -1    0    0    0  501 -0.00000000000E+00 -0.00000000000E+00 -0.35500008914E+03  0.35500008915E+03  0.25500000000E-02 0.  1.
        -24    2    1    2    0    0  0.17763568394E-14  0.00000000000E+00 -0.35059219732E+03  0.35940798385E+03  0.79115169425E+02 0.  0.
         66    2    3    3    0    0 -0.11937041127E+02 -0.26867590387E+02 -0.29546595806E+03  0.29693179812E+03  0.19999999607E+01 0.  0.
         13    1    3    3    0    0  0.11937041127E+02  0.26867590387E+02 -0.55126239265E+02  0.62476185733E+02  0.10566000000E+00 0. -1.
         13    1    4    4    0    0 -0.21712840974E+01 -0.61823248151E+01 -0.62143152530E+02  0.62487744279E+02  0.10566000000E+00 0. -1.
        -13    1    4    4    0    0 -0.13481355965E+01 -0.33087748849E+01 -0.33098433244E+02  0.33290883258E+02  0.10566000000E+00 0.  1.
         14    1    4    4    0    0 -0.84176214335E+01 -0.17376490687E+02 -0.20022437228E+03  0.20115317058E+03  0.00000000000E+00 0. -1.
<mgrwt>
<rscale>  0 0.79115169E+02</rscale>
<asrwt>0</asrwt>
<pdfrwt beam="1">  1        1 0.67813771E-03 0.79115169E+02</pdfrwt>
<pdfrwt beam="2">  1       -2 0.54615376E-01 0.79115169E+02</pdfrwt>
<totfact> 0.65619765E+04</totfact>
</mgrwt>
</event>
<event>
 8    1  0.1319619E-020  0.7804739E+02  0.7818608E-02  0.1334686E+00
          1   -1    0    0  501    0  0.00000000000E+00  0.00000000000E+00  0.99726350733E+01  0.99726363468E+01  0.50400000000E-02 0. -1.
         -2   -1    0    0    0  501 -0.00000000000E+00 -0.00000000000E+00 -0.15270272579E+03  0.15270272581E+03  0.25500000000E-02 0.  1.
        -24    2    1    2    0    0 -0.35527136788E-14  0.00000000000E+00 -0.14273009072E+03  0.16267536216E+03  0.78047387254E+02 0.  0.
         66    2    3    3    0    0  0.22071519882E+02 -0.24246011951E+02 -0.27402475731E+02  0.42777526365E+02  0.20000000869E+01 0.  0.
         13    1    3    3    0    0 -0.22071519882E+02  0.24246011951E+02 -0.11532761498E+03  0.11989783579E+03  0.10566000000E+00 0. -1.
         13    1    4    4    0    0  0.39569326878E+01 -0.49510086240E+01 -0.60390027239E+01  0.87550283052E+01  0.10566000000E+00 0. -1.
        -13    1    4    4    0    0  0.34592905395E+01 -0.40427754816E+01 -0.40307039027E+01  0.66759615501E+01  0.10566000000E+00 0.  1.
         14    1    4    4    0    0  0.14655296655E+02 -0.15252227845E+02 -0.17332769104E+02  0.27346536510E+02  0.00000000000E+00 0. -1.
<mgrwt>
<rscale>  0 0.78047387E+02</rscale>
<asrwt>0</asrwt>
<pdfrwt beam="1">  1        1 0.15342518E-02 0.78047387E+02</pdfrwt>
<pdfrwt beam="2">  1       -2 0.23492725E-01 0.78047387E+02</pdfrwt>
<totfact> 0.10011970E+05</totfact>
</mgrwt>
</event>
<event>
 8    1  0.1319619E-020  0.8008059E+02  0.7818608E-02  0.1328823E+00
          1   -1    0    0  501    0  0.00000000000E+00  0.00000000000E+00  0.84277652621E+02  0.84277652772E+02  0.50400000000E-02 0. -1.
         -2   -1    0    0    0  501 -0.00000000000E+00 -0.00000000000E+00 -0.19023134913E+02  0.19023135084E+02  0.25500000000E-02 0.  1.
        -24    2    1    2    0    0 -0.35527136788E-14  0.00000000000E+00  0.65254517708E+02  0.10330078786E+03  0.80080588723E+02 0.  0.
         66    2    3    3    0    0 -0.28210537279E+02 -0.17966175686E+02  0.43094295944E+01  0.33781489732E+02  0.19999956847E+01 0.  0.
         13    1    3    3    0    0  0.28210537279E+02  0.17966175686E+02  0.60945088114E+02  0.69519298124E+02  0.10566000000E+00 0. -1.
         13    1    4    4    0    0 -0.78548817489E+01 -0.56709479729E+01  0.15959850012E+01  0.98192235110E+01  0.10566000000E+00 0. -1.
        -13    1    4    4    0    0 -0.11885421339E+02 -0.75475172369E+01  0.20673209608E+01  0.14230714558E+02  0.10566000000E+00 0.  1.
         14    1    4    4    0    0 -0.84702341905E+01 -0.47477104765E+01  0.64612363235E+00  0.97315516624E+01  0.00000000000E+00 0. -1.
<mgrwt>
<rscale>  0 0.80080589E+02</rscale>
<asrwt>0</asrwt>
<pdfrwt beam="1">  1        1 0.12965793E-01 0.80080589E+02</pdfrwt>
<pdfrwt beam="2">  1       -2 0.29266362E-02 0.80080589E+02</pdfrwt>
<totfact> 0.14250287E+05</totfact>
</mgrwt>
</event>
<event>
 8    1  0.1319619E-020  0.7767583E+02  0.7818608E-02  0.1335780E+00
         -2   -1    0    0    0  501 -0.00000000000E+00  0.00000000000E+00  0.11061204960E+02  0.11061205254E+02  0.25500000000E-02 0.  1.
          1   -1    0    0  501    0  0.00000000000E+00 -0.00000000000E+00 -0.13636703639E+03  0.13636703648E+03  0.50400000000E-02 0. -1.
        -24    2    1    2    0    0 -0.71054273576E-14  0.00000000000E+00 -0.12530583143E+03  0.14742824173E+03  0.77675833250E+02 0.  0.
         66    2    3    3    0    0 -0.34290194857E+02 -0.70220290508E+01 -0.30863873252E+02  0.46708725336E+02  0.19999987818E+01 0.  0.
         13    1    3    3    0    0  0.34290194857E+02  0.70220290508E+01 -0.94441958176E+02  0.10071951640E+03  0.10566000000E+00 0. -1.
         13    1    4    4    0    0 -0.23668908750E+01 -0.17913996968E+00 -0.20591662787E+01  0.31441363427E+01  0.10566000000E+00 0. -1.
        -13    1    4    4    0    0 -0.31137011556E+02 -0.69039550380E+01 -0.28065672338E+02  0.42483775863E+02  0.10566000000E+00 0.  1.
        -14    1    4    4    0    0 -0.78629242627E+00  0.61065956905E-01 -0.73903463565E+00  0.10808131307E+01  0.00000000000E+00 0.  1.
<mgrwt>
<rscale>  0 0.77675833E+02</rscale>
<asrwt>0</asrwt>
<pdfrwt beam="1">  1        1 0.20979543E-01 0.77675833E+02</pdfrwt>
<pdfrwt beam="2">  1       -2 0.17017240E-02 0.77675833E+02</pdfrwt>
<totfact> 0.16788515E+05</totfact>
</mgrwt>
</event>
<event>
 8    1  0.1319619E-020  0.8350294E+02  0.7818608E-02  0.1319395E+00
          1   -1    0    0  501    0  0.00000000000E+00  0.00000000000E+00  0.15345219880E+03  0.15345219888E+03  0.50400000000E-02 0. -1.
         -2   -1    0    0    0  501 -0.00000000000E+00 -0.00000000000E+00 -0.11359792852E+02  0.11359793138E+02  0.25500000000E-02 0.  1.
        -24    2    1    2    0    0 -0.17763568394E-14  0.00000000000E+00  0.14209240595E+03  0.16481199202E+03  0.83502939383E+02 0.  0.
         66    2    3    3    0    0  0.12334794199E+02  0.22371765963E+02  0.59677030939E+01  0.26310768375E+02  0.19999980028E+01 0.  0.
         13    1    3    3    0    0 -0.12334794199E+02 -0.22371765963E+02  0.13612470285E+03  0.13850122364E+03  0.10566000000E+00 0. -1.
         13    1    4    4    0    0  0.22254111319E+01  0.56477436553E+01  0.11466831676E+01  0.61786332975E+01  0.10566000000E+00 0. -1.
        -13    1    4    4    0    0  0.53237579345E+01  0.91761341464E+01  0.26300961833E+01  0.10930343379E+02  0.10566000000E+00 0.  1.
         14    1    4    4    0    0  0.47856251326E+01  0.75478881613E+01  0.21909237430E+01  0.92017916980E+01  0.00000000000E+00 0. -1.
<mgrwt>
<rscale>  0 0.83502939E+02</rscale>
<asrwt>0</asrwt>
<pdfrwt beam="1">  1        1 0.23608029E-01 0.83502939E+02</pdfrwt>
<pdfrwt beam="2">  1       -2 0.17476606E-02 0.83502939E+02</pdfrwt>
<totfact> 0.14136313E+05</totfact>
</mgrwt>
</event>
<event>
 8    1  0.1319619E-020  0.7986626E+02  0.7818608E-02  0.1329431E+00
         -2   -1    0    0    0  501 -0.00000000000E+00  0.00000000000E+00  0.94362103722E+02  0.94362103756E+02  0.25500000000E-02 0.  1.
          1   -1    0    0  501    0  0.00000000000E+00 -0.00000000000E+00 -0.16899314855E+02  0.16899315606E+02  0.50400000000E-02 0. -1.
        -24    2    1    2    0    0  0.35527136788E-14  0.00000000000E+00  0.77462788867E+02  0.11126141936E+03  0.79866261835E+02 0.  0.
         66    2    3    3    0    0 -0.19385731490E+02 -0.21943224663E+02  0.76532385589E+02  0.81966564724E+02  0.19999986726E+01 0.  0.
         13    1    3    3    0    0  0.19385731490E+02  0.21943224663E+02  0.93040327836E+00  0.29294854639E+02  0.10566000000E+00 0. -1.
         13    1    4    4    0    0 -0.62802206903E+01 -0.78818954527E+01  0.28173248561E+02  0.29921706942E+02  0.10566000000E+00 0. -1.
        -13    1    4    4    0    0 -0.10281561162E+02 -0.11409225736E+02  0.38179298629E+02  0.41152775601E+02  0.10566000000E+00 0.  1.
        -14    1    4    4    0    0 -0.28239496376E+01 -0.26521034746E+01  0.10179838399E+02  0.10892082181E+02  0.00000000000E+00 0.  1.
<mgrwt>
<rscale>  0 0.79866262E+02</rscale>
<asrwt>0</asrwt>
<pdfrwt beam="1">  1        1 0.25998947E-02 0.79866262E+02</pdfrwt>
<pdfrwt beam="2">  1       -2 0.14517247E-01 0.79866262E+02</pdfrwt>
<totfact> 0.10810138E+05</totfact>
</mgrwt>
</event>
<event>
 8    1  0.1319619E-020  0.8233275E+02  0.7818608E-02  0.1322559E+00
         -2   -1    0    0    0  501 -0.00000000000E+00  0.00000000000E+00  0.28634422012E+02  0.28634422126E+02  0.25500000000E-02 0.  1.
          1   -1    0    0  501    0  0.00000000000E+00 -0.00000000000E+00 -0.59182977470E+02  0.59182977684E+02  0.50400000000E-02 0. -1.
        -24    2    1    2    0    0  0.00000000000E+00  0.35527136788E-14 -0.30548555457E+02  0.87817399810E+02  0.82332748460E+02 0.  0.
         66    2    3    3    0    0  0.25627490374E+02 -0.19996023247E+02  0.11616945636E+02  0.34576909063E+02  0.20000014617E+01 0.  0.
         13    1    3    3    0    0 -0.25627490374E+02  0.19996023247E+02 -0.42165501093E+02  0.53240490748E+02  0.10566000000E+00 0. -1.
         13    1    4    4    0    0  0.39354565821E+01 -0.28471549186E+01  0.21585164924E+01  0.53164336847E+01  0.10566000000E+00 0. -1.
        -13    1    4    4    0    0  0.20915138577E+02 -0.16768685270E+02  0.89773608420E+01  0.28270762266E+02  0.10566000000E+00 0.  1.
        -14    1    4    4    0    0  0.77689521533E+00 -0.38018305786E+00  0.48106830115E+00  0.98971311169E+00  0.00000000000E+00 0.  1.
<mgrwt>
<rscale>  0 0.82332748E+02</rscale>
<asrwt>0</asrwt>
<pdfrwt beam="1">  1        1 0.91050735E-02 0.82332748E+02</pdfrwt>
<pdfrwt beam="2">  1       -2 0.44052957E-02 0.82332748E+02</pdfrwt>
<totfact> 0.12477423E+05</totfact>
</mgrwt>
</event>
<event>
 8    1  0.1319619E-020  0.7906378E+02  0.7818608E-02  0.1331729E+00
         -2   -1    0    0    0  501 -0.00000000000E+00  0.00000000000E+00  0.22281027676E+02  0.22281027822E+02  0.25500000000E-02 0.  1.
          1   -1    0    0  501    0  0.00000000000E+00 -0.00000000000E+00 -0.70139065185E+02  0.70139065366E+02  0.50400000000E-02 0. -1.
        -24    2    1    2    0    0  0.35527136788E-14  0.88817841970E-15 -0.47858037509E+02  0.92420093188E+02  0.79063783560E+02 0.  0.
         66    2    3    3    0    0  0.22761293643E+02  0.59877817512E+01  0.13146671666E+02  0.27032665313E+02  0.19999998585E+01 0.  0.
         13    1    3    3    0    0 -0.22761293643E+02 -0.59877817512E+01 -0.61004709174E+02  0.65387427875E+02  0.10566000000E+00 0. -1.
         13    1    4    4    0    0  0.43332021783E+01  0.68675904805E+00  0.22761992053E+01  0.49437360331E+01  0.10566000000E+00 0. -1.
        -13    1    4    4    0    0  0.12774879997E+02  0.30549303359E+01  0.70895219389E+01  0.14926575081E+02  0.10566000000E+00 0.  1.
         14    1    4    4    0    0  0.56532114681E+01  0.22460923673E+01  0.37809505218E+01  0.71623541991E+01  0.00000000000E+00 0. -1.
<mgrwt>
<rscale>  0 0.79063784E+02</rscale>
<asrwt>0</asrwt>
<pdfrwt beam="1">  1        1 0.10790625E-01 0.79063784E+02</pdfrwt>
<pdfrwt beam="2">  1       -2 0.34278504E-02 0.79063784E+02</pdfrwt>
<totfact> 0.14329050E+05</totfact>
</mgrwt>
</event>
<event>
 8    1  0.1319619E-020  0.8455551E+02  0.7818608E-02  0.1316599E+00
         -2   -1    0    0    0  501 -0.00000000000E+00  0.00000000000E+00  0.43623853087E+03  0.43623853088E+03  0.25500000000E-02 0.  1.
          1   -1    0    0  501    0  0.00000000000E+00 -0.00000000000E+00 -0.40973180252E+01  0.40973211250E+01  0.50400000000E-02 0. -1.
        -24    2    1    2    0    0  0.00000000000E+00 -0.22204460493E-15  0.43214121284E+03  0.44033585200E+03  0.84555512651E+02 0.  0.
         66    2    3    3    0    0 -0.17453746770E+02  0.13486602051E+01  0.41646262371E+03  0.41683518218E+03  0.19999992235E+01 0.  0.
         13    1    3    3    0    0  0.17453746770E+02 -0.13486602051E+01  0.15678589131E+02  0.23500669817E+02  0.10566000000E+00 0. -1.
         13    1    4    4    0    0 -0.69739981799E+01  0.34055941477E+00  0.15713657077E+03  0.15729165798E+03  0.10566000000E+00 0. -1.
        -13    1    4    4    0    0 -0.10255186079E+02  0.11768196897E+01  0.24951813103E+03  0.24973158115E+03  0.10566000000E+00 0.  1.
         14    1    4    4    0    0 -0.22456251088E+00 -0.16871889937E+00  0.98079219073E+01  0.98119430557E+01  0.00000000000E+00 0. -1.
<mgrwt>
<rscale>  0 0.84555513E+02</rscale>
<asrwt>0</asrwt>
<pdfrwt beam="1">  1        1 0.63035704E-03 0.84555513E+02</pdfrwt>
<pdfrwt beam="2">  1       -2 0.67113601E-01 0.84555513E+02</pdfrwt>
<totfact> 0.48256628E+04</totfact>
</mgrwt>
</event>
<event>
 8    1  0.1319619E-020  0.8408077E+02  0.7818608E-02  0.1317854E+00
         -2   -1    0    0    0  501 -0.00000000000E+00  0.00000000000E+00  0.72430143605E+02  0.72430143650E+02  0.25500000000E-02 0.  1.
          1   -1    0    0  501    0  0.00000000000E+00 -0.00000000000E+00 -0.24401357790E+02  0.24401358311E+02  0.50400000000E-02 0. -1.
        -24    2    1    2    0    0  0.00000000000E+00  0.00000000000E+00  0.48028785815E+02  0.96831501960E+02  0.84080767748E+02 0.  0.
         66    2    3    3    0    0  0.16642201772E+01 -0.22242695224E+02  0.65035072295E+02  0.68782757541E+02  0.19999967391E+01 0.  0.
         13    1    3    3    0    0 -0.16642201772E+01  0.22242695224E+02 -0.17006286480E+02  0.28048744419E+02  0.10566000000E+00 0. -1.
         13    1    4    4    0    0  0.18879031084E+01 -0.21187393480E+02  0.61142847375E+02  0.64737383093E+02  0.10566000000E+00 0. -1.
        -13    1    4    4    0    0 -0.23321819868E-01 -0.26990210140E+00  0.11136977915E+01  0.11510333870E+01  0.10566000000E+00 0.  1.
         14    1    4    4    0    0 -0.20036111129E+00 -0.78539964258E+00  0.27785271285E+01  0.28943410610E+01  0.00000000000E+00 0. -1.
<mgrwt>
<rscale>  0 0.84080768E+02</rscale>
<asrwt>0</asrwt>
<pdfrwt beam="1">  1        1 0.37540552E-02 0.84080768E+02</pdfrwt>
<pdfrwt beam="2">  1       -2 0.11143099E-01 0.84080768E+02</pdfrwt>
<totfact> 0.10055348E+05</totfact>
</mgrwt>
</event>
<event>
 8    1  0.1319619E-020  0.8048722E+02  0.7818608E-02  0.1327674E+00
         -2   -1    0    0    0  501 -0.00000000000E+00  0.00000000000E+00  0.66022319297E+01  0.66022324222E+01  0.25500000000E-02 0.  1.
          1   -1    0    0  501    0  0.00000000000E+00 -0.00000000000E+00 -0.24530314007E+03  0.24530314012E+03  0.50400000000E-02 0. -1.
        -24    2    1    2    0    0  0.00000000000E+00  0.00000000000E+00 -0.23870090814E+03  0.25190537254E+03  0.80487223641E+02 0.  0.
         66    2    3    3    0    0 -0.26742769135E+01 -0.39788033102E+02 -0.10306996033E+03  0.11053350652E+03  0.20000015176E+01 0.  0.
         13    1    3    3    0    0  0.26742769135E+01  0.39788033102E+02 -0.13563094781E+03  0.14137186602E+03  0.10566000000E+00 0. -1.
         13    1    4    4    0    0 -0.95032390723E+00 -0.95230756315E+01 -0.23709331249E+02  0.25568254483E+02  0.10566000000E+00 0. -1.
        -13    1    4    4    0    0 -0.15951492692E+01 -0.17865053574E+02 -0.45806025535E+02  0.49192558174E+02  0.10566000000E+00 0.  1.
         14    1    4    4    0    0 -0.12880373700E+00 -0.12399903896E+02 -0.33554603547E+02  0.35772693864E+02  0.00000000000E+00 0. -1.
<mgrwt>
<rscale>  0 0.80487224E+02</rscale>
<asrwt>0</asrwt>
<pdfrwt beam="1">  1        1 0.37738938E-01 0.80487224E+02</pdfrwt>
<pdfrwt beam="2">  1       -2 0.10157282E-02 0.80487224E+02</pdfrwt>
<totfact> 0.17074522E+05</totfact>
</mgrwt>
</event>
<event>
 8    1  0.1319619E-020  0.8032193E+02  0.7818608E-02  0.1328140E+00
          1   -1    0    0  501    0  0.00000000000E+00  0.00000000000E+00  0.44103016245E+03  0.44103016248E+03  0.50400000000E-02 0. -1.
         -2   -1    0    0    0  501 -0.00000000000E+00 -0.00000000000E+00 -0.36571259053E+01  0.36571267944E+01  0.25500000000E-02 0.  1.
        -24    2    1    2    0    0  0.00000000000E+00  0.71054273576E-14  0.43737303655E+03  0.44468728928E+03  0.80321928170E+02 0.  0.
         66    2    3    3    0    0  0.11136550920E+02  0.38406987752E+02  0.19982112481E+03  0.20379303569E+03  0.20000006400E+01 0.  0.
         13    1    3    3    0    0 -0.11136550920E+02 -0.38406987752E+02  0.23755191174E+03  0.24089425358E+03  0.10566000000E+00 0. -1.
         13    1    4    4    0    0  0.15357790268E+00  0.25438590342E+00  0.12240598605E+01  0.12640351806E+01  0.10566000000E+00 0. -1.
        -13    1    4    4    0    0  0.74955007774E+01  0.27419701317E+02  0.14323450088E+03  0.14602792870E+03  0.10566000000E+00 0.  1.
         14    1    4    4    0    0  0.34874722396E+01  0.10732900531E+02  0.55362564067E+02  0.56501071818E+02  0.00000000000E+00 0. -1.
<mgrwt>
<rscale>  0 0.80321928E+02</rscale>
<asrwt>0</asrwt>
<pdfrwt beam="1">  1        1 0.67850778E-01 0.80321928E+02</pdfrwt>
<pdfrwt beam="2">  1       -2 0.56263496E-03 0.80321928E+02</pdfrwt>
<totfact> 0.19081806E+05</totfact>
</mgrwt>
</event>
<event>
 8    1  0.1319619E-020  0.7795460E+02  0.7818608E-02  0.1334958E+00
          1   -1    0    0  501    0  0.00000000000E+00  0.00000000000E+00  0.25271354099E+02  0.25271354602E+02  0.50400000000E-02 0. -1.
         -2   -1    0    0    0  501 -0.00000000000E+00 -0.00000000000E+00 -0.60116684240E+02  0.60116684295E+02  0.25500000000E-02 0.  1.
        -24    2    1    2    0    0 -0.22204460493E-15  0.35527136788E-14 -0.34845330141E+02  0.85388038896E+02  0.77954603160E+02 0.  0.
         66    2    3    3    0    0  0.16469014413E+01 -0.26480965944E+02  0.13803162907E+02  0.29974675150E+02  0.20000006081E+01 0.  0.
         13    1    3    3    0    0 -0.16469014413E+01  0.26480965944E+02 -0.48648493049E+02  0.55413363746E+02  0.10566000000E+00 0. -1.
         13    1    4    4    0    0  0.21972788120E+00 -0.30596957752E+01  0.93788257397E+00  0.32094869273E+01  0.10566000000E+00 0. -1.
        -13    1    4    4    0    0  0.73067697616E+00 -0.14113893817E+02  0.79840751647E+01  0.16232452304E+02  0.10566000000E+00 0.  1.
        -14    1    4    4    0    0  0.69649658398E+00 -0.93073763516E+01  0.48812051686E+01  0.10532735919E+02  0.00000000000E+00 0.  1.
<mgrwt>
<rscale>  0 0.77954603E+02</rscale>
<asrwt>0</asrwt>
<pdfrwt beam="1">  1        1 0.38879007E-02 0.77954603E+02</pdfrwt>
<pdfrwt beam="2">  1       -2 0.92487207E-02 0.77954603E+02</pdfrwt>
<totfact> 0.12635726E+05</totfact>
</mgrwt>
</event>
<event>
 8    1  0.1319619E-020  0.8012460E+02  0.7818608E-02  0.1328698E+00
         -2   -1    0    0    0  501 -0.00000000000E+00  0.00000000000E+00  0.26608471921E+02  0.26608472043E+02  0.25500000000E-02 0.  1.
          1   -1    0    0  501    0  0.00000000000E+00 -0.00000000000E+00 -0.60318676205E+02  0.60318676416E+02  0.50400000000E-02 0. -1.
        -24    2    1    2    0    0 -0.71054273576E-14  0.00000000000E+00 -0.33710204284E+02  0.86927148459E+02  0.80124598385E+02 0.  0.
         66    2    3    3    0    0 -0.39112511469E+02 -0.85233701469E+01 -0.17667563986E+02  0.43801589172E+02  0.20000011658E+01 0.  0.
         13    1    3    3    0    0  0.39112511469E+02  0.85233701469E+01 -0.16042640298E+02  0.43125559288E+02  0.10566000000E+00 0. -1.
         13    1    4    4    0    0 -0.48945612629E+01 -0.76653012452E+00 -0.17842351000E+01  0.52667786470E+01  0.10566000000E+00 0. -1.
        -13    1    4    4    0    0 -0.44419154550E+01 -0.14189440775E+01 -0.19779479371E+01  0.50663060785E+01  0.10566000000E+00 0.  1.
        -14    1    4    4    0    0 -0.29776034751E+02 -0.63378959449E+01 -0.13905380949E+02  0.33468504446E+02  0.00000000000E+00 0.  1.
<mgrwt>
<rscale>  0 0.80124598E+02</rscale>
<asrwt>0</asrwt>
<pdfrwt beam="1">  1        1 0.92797964E-02 0.80124598E+02</pdfrwt>
<pdfrwt beam="2">  1       -2 0.40936111E-02 0.80124598E+02</pdfrwt>
<totfact> 0.13491703E+05</totfact>
</mgrwt>
</event>
<event>
 8    1  0.1319619E-020  0.8222536E+02  0.7818608E-02  0.1322852E+00
         -2   -1    0    0    0  501 -0.00000000000E+00  0.00000000000E+00  0.64461676102E+01  0.64461681145E+01  0.25500000000E-02 0.  1.
          1   -1    0    0  501    0  0.00000000000E+00 -0.00000000000E+00 -0.26221043151E+03  0.26221043156E+03  0.50400000000E-02 0. -1.
        -24    2    1    2    0    0  0.00000000000E+00  0.00000000000E+00 -0.25576426390E+03  0.26865659967E+03  0.82225360197E+02 0.  0.
         66    2    3    3    0    0 -0.25140003287E+02  0.29743150360E+02 -0.85160331791E+02  0.93664063907E+02  0.19999995571E+01 0.  0.
         13    1    3    3    0    0  0.25140003287E+02 -0.29743150360E+02 -0.17060393211E+03  0.17499253576E+03  0.10566000000E+00 0. -1.
         13    1    4    4    0    0 -0.28573991518E+01  0.39685407060E+01 -0.10522653365E+02  0.11603940845E+02  0.10566000000E+00 0. -1.
        -13    1    4    4    0    0 -0.19340550339E+02  0.22916068069E+02 -0.64838962264E+02  0.71437421949E+02  0.10566000000E+00 0.  1.
        -14    1    4    4    0    0 -0.29420537968E+01  0.28585415856E+01 -0.97987161612E+01  0.10622701114E+02  0.00000000000E+00 0.  1.
<mgrwt>
<rscale>  0 0.82225360E+02</rscale>
<asrwt>0</asrwt>
<pdfrwt beam="1">  1        1 0.40340058E-01 0.82225360E+02</pdfrwt>
<pdfrwt beam="2">  1       -2 0.99171834E-03 0.82225360E+02</pdfrwt>
<totfact> 0.16347201E+05</totfact>
</mgrwt>
</event>
<event>
 8    1  0.1319619E-020  0.7981008E+02  0.7818608E-02  0.1329591E+00
          1   -1    0    0  501    0  0.00000000000E+00  0.00000000000E+00  0.71476803025E+02  0.71476803202E+02  0.50400000000E-02 0. -1.
         -2   -1    0    0    0  501 -0.00000000000E+00 -0.00000000000E+00 -0.22278727724E+02  0.22278727870E+02  0.25500000000E-02 0.  1.
        -24    2    1    2    0    0  0.00000000000E+00  0.00000000000E+00  0.49198075301E+02  0.93755531072E+02  0.79810080775E+02 0.  0.
         66    2    3    3    0    0  0.21297317106E+02  0.14716003429E+02 -0.11022216081E+02  0.28206838247E+02  0.20000009327E+01 0.  0.
         13    1    3    3    0    0 -0.21297317106E+02 -0.14716003429E+02  0.60220291382E+02  0.65548692825E+02  0.10566000000E+00 0. -1.
         13    1    4    4    0    0  0.14543085432E+02  0.10062795558E+02 -0.81858055563E+01  0.19487938961E+02  0.10566000000E+00 0.  1.
        -13    1    4    4    0    0  0.62933504426E+01  0.45226425934E+01 -0.25427886627E+01  0.81570517983E+01  0.10566000000E+00 0. -1.
         14    1    4    4    0    0  0.46088123128E+00  0.13056527734E+00 -0.29362186240E+00  0.56184748738E+00  0.00000000000E+00 0. -1.
<mgrwt>
<rscale>  0 0.79810081E+02</rscale>
<asrwt>0</asrwt>
<pdfrwt beam="1">  1        1 0.10996431E-01 0.79810081E+02</pdfrwt>
<pdfrwt beam="2">  1       -2 0.34274966E-02 0.79810081E+02</pdfrwt>
<totfact> 0.14007360E+05</totfact>
</mgrwt>
</event>
<event>
 8    1  0.1319619E-020  0.8784996E+02  0.7818608E-02  0.1308143E+00
         -2   -1    0    0    0  501 -0.00000000000E+00  0.00000000000E+00  0.24874767304E+03  0.24874767305E+03  0.25500000000E-02 0.  1.
          1   -1    0    0  501    0  0.00000000000E+00 -0.00000000000E+00 -0.77564683591E+01  0.77564699965E+01  0.50400000000E-02 0. -1.
        -24    2    1    2    0    0 -0.17763568394E-14  0.00000000000E+00  0.24099120468E+03  0.25650414305E+03  0.87849955424E+02 0.  0.
         66    2    3    3    0    0 -0.99188789674E+01 -0.10722352873E+02  0.24144054450E+03  0.24189024277E+03  0.20000016773E+01 0.  0.
         13    1    3    3    0    0  0.99188789674E+01  0.10722352873E+02 -0.44933982023E+00  0.14613900281E+02  0.10566000000E+00 0. -1.
         13    1    4    4    0    0 -0.17404204917E+01 -0.12158157123E+01  0.32922767330E+02  0.32991317707E+02  0.10566000000E+00 0.  1.
        -13    1    4    4    0    0 -0.64396278249E+01 -0.78879978883E+01  0.16089968688E+03  0.16122161679E+03  0.10566000000E+00 0. -1.
         14    1    4    4    0    0 -0.17388306507E+01 -0.16185392724E+01  0.47618090284E+02  0.47677308268E+02  0.00000000000E+00 0. -1.
<mgrwt>
<rscale>  0 0.87849955E+02</rscale>
<asrwt>0</asrwt>
<pdfrwt beam="1">  1        1 0.11933031E-02 0.87849955E+02</pdfrwt>
<pdfrwt beam="2">  1       -2 0.38268869E-01 0.87849955E+02</pdfrwt>
<totfact> 0.60656467E+04</totfact>
</mgrwt>
</event>
<event>
 8    1  0.1319619E-020  0.7999269E+02  0.7818608E-02  0.1329072E+00
         -2   -1    0    0    0  501 -0.00000000000E+00  0.00000000000E+00  0.26810141786E+03  0.26810141787E+03  0.25500000000E-02 0.  1.
          1   -1    0    0  501    0  0.00000000000E+00 -0.00000000000E+00 -0.59667997985E+01  0.59668019271E+01  0.50400000000E-02 0. -1.
        -24    2    1    2    0    0  0.22204460493E-15  0.71054273576E-14  0.26213461806E+03  0.27406821980E+03  0.79992694151E+02 0.  0.
         66    2    3    3    0    0  0.14137454061E+01  0.38431929694E+02  0.16847549875E+03  0.17282073247E+03  0.19999991549E+01 0.  0.
         13    1    3    3    0    0 -0.14137454061E+01 -0.38431929694E+02  0.93659119309E+02  0.10124748733E+03  0.10566000000E+00 0. -1.
         13    1    4    4    0    0  0.26782237895E+00  0.48826169696E+01  0.20400486412E+02  0.20978624530E+02  0.10566000000E+00 0. -1.
        -13    1    4    4    0    0  0.13254454071E+01  0.27958137638E+02  0.12567425496E+03  0.12875342244E+03  0.10566000000E+00 0.  1.
        -14    1    4    4    0    0 -0.17952237993E+00  0.55911750857E+01  0.22400757380E+02  0.23088685504E+02  0.00000000000E+00 0.  1.
<mgrwt>
<rscale>  0 0.79992694E+02</rscale>
<asrwt>0</asrwt>
<pdfrwt beam="1">  1        1 0.91796915E-03 0.79992694E+02</pdfrwt>
<pdfrwt beam="2">  1       -2 0.41246382E-01 0.79992694E+02</pdfrwt>
<totfact> 0.74539667E+04</totfact>
</mgrwt>
</event>
<event>
 8    1  0.1319619E-020  0.7887192E+02  0.7818608E-02  0.1332284E+00
          1   -1    0    0  501    0  0.00000000000E+00  0.00000000000E+00  0.22577030105E+03  0.22577030111E+03  0.50400000000E-02 0. -1.
         -2   -1    0    0    0  501 -0.00000000000E+00 -0.00000000000E+00 -0.68883940755E+01  0.68883945475E+01  0.25500000000E-02 0.  1.
        -24    2    1    2    0    0  0.35527136788E-14  0.00000000000E+00  0.21888190698E+03  0.23265869565E+03  0.78871918086E+02 0.  0.
         66    2    3    3    0    0  0.28305043314E+02  0.15329269386E+02  0.42437176266E+02  0.53301743919E+02  0.19999996152E+01 0.  0.
         13    1    3    3    0    0 -0.28305043314E+02 -0.15329269386E+02  0.17644473071E+03  0.17935695174E+03  0.10566000000E+00 0. -1.
         13    1    4    4    0    0  0.22773509636E+01  0.12737047164E+01  0.39120262645E+01  0.47035906120E+01  0.10566000000E+00 0. -1.
        -13    1    4    4    0    0  0.24184692468E+02  0.12976072866E+02  0.35022726592E+02  0.44495846534E+02  0.10566000000E+00 0.  1.
        -14    1    4    4    0    0  0.18429998819E+01  0.10794918031E+01  0.35024234092E+01  0.41023067724E+01  0.00000000000E+00 0.  1.
<mgrwt>
<rscale>  0 0.78871918E+02</rscale>
<asrwt>0</asrwt>
<pdfrwt beam="1">  1        1 0.34733890E-01 0.78871918E+02</pdfrwt>
<pdfrwt beam="2">  1       -2 0.10597531E-02 0.78871918E+02</pdfrwt>
<totfact> 0.17726265E+05</totfact>
</mgrwt>
</event>
<event>
 8    1  0.1319619E-020  0.8040876E+02  0.7818608E-02  0.1327895E+00
          1   -1    0    0  501    0  0.00000000000E+00  0.00000000000E+00  0.29476443450E+02  0.29476443881E+02  0.50400000000E-02 0. -1.
         -2   -1    0    0    0  501 -0.00000000000E+00 -0.00000000000E+00 -0.54836748391E+02  0.54836748451E+02  0.25500000000E-02 0.  1.
        -24    2    1    2    0    0  0.00000000000E+00  0.00000000000E+00 -0.25360304942E+02  0.84313192332E+02  0.80408764040E+02 0.  0.
         66    2    3    3    0    0  0.14432369635E+01  0.11739144739E+02 -0.52951712335E+02  0.54293409219E+02  0.19999982949E+01 0.  0.
         13    1    3    3    0    0 -0.14432369635E+01 -0.11739144739E+02  0.27591407394E+02  0.30019783113E+02  0.10566000000E+00 0. -1.
         13    1    4    4    0    0 -0.17112775203E+00  0.21302926052E+01 -0.70902590814E+01  0.74061035078E+01  0.10566000000E+00 0. -1.
        -13    1    4    4    0    0  0.77206570570E+00  0.49467256228E+01 -0.24570306832E+02  0.25075432632E+02  0.10566000000E+00 0.  1.
         14    1    4    4    0    0  0.84229900981E+00  0.46621265115E+01 -0.21291146422E+02  0.21811873079E+02  0.00000000000E+00 0. -1.
<mgrwt>
<rscale>  0 0.80408764E+02</rscale>
<asrwt>0</asrwt>
<pdfrwt beam="1">  1        1 0.45348375E-02 0.80408764E+02</pdfrwt>
<pdfrwt beam="2">  1       -2 0.84364229E-02 0.80408764E+02</pdfrwt>
<totfact> 0.11881371E+05</totfact>
</mgrwt>
</event>
<event>
 8    1  0.1319619E-020  0.7883724E+02  0.7818608E-02  0.1332384E+00
          1   -1    0    0  501    0  0.00000000000E+00  0.00000000000E+00  0.13713716472E+02  0.13713717398E+02  0.50400000000E-02 0. -1.
         -2   -1    0    0    0  501 -0.00000000000E+00 -0.00000000000E+00 -0.11330462875E+03  0.11330462878E+03  0.25500000000E-02 0.  1.
        -24    2    1    2    0    0 -0.88817841970E-15 -0.71054273576E-14 -0.99590912282E+02  0.12701834618E+03  0.78837240296E+02 0.  0.
         66    2    3    3    0    0 -0.37410897457E+01 -0.23212634927E+02 -0.10075087239E+03  0.10347734271E+03  0.19999990262E+01 0.  0.
         13    1    3    3    0    0  0.37410897457E+01  0.23212634927E+02  0.11599601037E+01  0.23541003467E+02  0.10566000000E+00 0. -1.
         13    1    4    4    0    0 -0.44431102187E-01 -0.44772456103E+01 -0.19245500942E+02  0.19759761460E+02  0.10566000000E+00 0. -1.
        -13    1    4    4    0    0 -0.86130755790E+00 -0.50298499021E+01 -0.20194140599E+02  0.20829203520E+02  0.10566000000E+00 0.  1.
         14    1    4    4    0    0 -0.28353510856E+01 -0.13705539415E+02 -0.61311230845E+02  0.62888377735E+02  0.00000000000E+00 0. -1.
<mgrwt>
<rscale>  0 0.78837240E+02</rscale>
<asrwt>0</asrwt>
<pdfrwt beam="1">  1        1 0.21098027E-02 0.78837240E+02</pdfrwt>
<pdfrwt beam="2">  1       -2 0.17431481E-01 0.78837240E+02</pdfrwt>
<totfact> 0.10668412E+05</totfact>
</mgrwt>
</event>
<event>
 8    1  0.1319619E-020  0.8011657E+02  0.7818608E-02  0.1328721E+00
          1   -1    0    0  501    0  0.00000000000E+00  0.00000000000E+00  0.80700193726E+01  0.80700209464E+01  0.50400000000E-02 0. -1.
         -2   -1    0    0    0  501 -0.00000000000E+00 -0.00000000000E+00 -0.19884287978E+03  0.19884287979E+03  0.25500000000E-02 0.  1.
        -24    2    1    2    0    0 -0.35527136788E-14 -0.17763568394E-14 -0.19077286040E+03  0.20691290074E+03  0.80116566487E+02 0.  0.
         66    2    3    3    0    0  0.26208438984E+02  0.11986524341E+02 -0.16720903935E+03  0.16968624542E+03  0.20000009877E+01 0.  0.
         13    1    3    3    0    0 -0.26208438984E+02 -0.11986524341E+02 -0.23563821055E+02  0.37226655322E+02  0.10566000000E+00 0. -1.
         13    1    4    4    0    0  0.11821625400E+02  0.58478192118E+01 -0.75709357219E+02  0.76849630781E+02  0.10566000000E+00 0. -1.
        -13    1    4    4    0    0  0.84582479360E+01  0.43105633037E+01 -0.55748584377E+02  0.56551204569E+02  0.10566000000E+00 0.  1.
         14    1    4    4    0    0  0.59285656473E+01  0.18281418257E+01 -0.35751097753E+02  0.36285410066E+02  0.00000000000E+00 0. -1.
<mgrwt>
<rscale>  0 0.80116566E+02</rscale>
<asrwt>0</asrwt>
<pdfrwt beam="1">  1        1 0.12415417E-02 0.80116566E+02</pdfrwt>
<pdfrwt beam="2">  1       -2 0.30591209E-01 0.80116566E+02</pdfrwt>
<totfact> 0.84956494E+04</totfact>
</mgrwt>
</event>
<event>
 8    1  0.1319619E-020  0.7924911E+02  0.7818608E-02  0.1331196E+00
         -2   -1    0    0    0  501 -0.00000000000E+00  0.00000000000E+00  0.81237267073E+02  0.81237267113E+02  0.25500000000E-02 0.  1.
          1   -1    0    0  501    0  0.00000000000E+00 -0.00000000000E+00 -0.19327402448E+02  0.19327403105E+02  0.50400000000E-02 0. -1.
        -24    2    1    2    0    0  0.35527136788E-14  0.00000000000E+00  0.61909864625E+02  0.10056467022E+03  0.79249110772E+02 0.  0.
         66    2    3    3    0    0 -0.31603564517E+02  0.19096254152E+02  0.12821315600E+02  0.39138706471E+02  0.19999994150E+01 0.  0.
         13    1    3    3    0    0  0.31603564517E+02 -0.19096254152E+02  0.49088549025E+02  0.61425963747E+02  0.10566000000E+00 0. -1.
         13    1    4    4    0    0 -0.34078440689E+01  0.23463947401E+01  0.10180531377E+01  0.42622254400E+01  0.10566000000E+00 0. -1.
        -13    1    4    4    0    0 -0.26599383333E+02  0.16081780308E+02  0.11312980976E+02  0.33077871065E+02  0.10566000000E+00 0.  1.
        -14    1    4    4    0    0 -0.15963371149E+01  0.66807910435E+00  0.49028148572E+00  0.17986099659E+01  0.00000000000E+00 0.  1.
<mgrwt>
<rscale>  0 0.79249111E+02</rscale>
<asrwt>0</asrwt>
<pdfrwt beam="1">  1        1 0.29734466E-02 0.79249111E+02</pdfrwt>
<pdfrwt beam="2">  1       -2 0.12498041E-01 0.79249111E+02</pdfrwt>
<totfact> 0.11409847E+05</totfact>
</mgrwt>
</event>
<event>
 8    1  0.1319619E-020  0.8024957E+02  0.7818608E-02  0.1328345E+00
         -2   -1    0    0    0  501 -0.00000000000E+00  0.00000000000E+00  0.96598319868E+02  0.96598319902E+02  0.25500000000E-02 0.  1.
          1   -1    0    0  501    0  0.00000000000E+00 -0.00000000000E+00 -0.16666940173E+02  0.16666940935E+02  0.50400000000E-02 0. -1.
        -24    2    1    2    0    0 -0.71054273576E-14 -0.71054273576E-14  0.79931379695E+02  0.11326526084E+03  0.80249572289E+02 0.  0.
         66    2    3    3    0    0  0.26198690890E+02  0.26478390025E+02  0.60949657940E+02  0.71458640937E+02  0.20000047404E+01 0.  0.
         13    1    3    3    0    0 -0.26198690890E+02 -0.26478390025E+02  0.18981721755E+02  0.41806619900E+02  0.10566000000E+00 0. -1.
         13    1    4    4    0    0  0.40300577620E+01  0.40487062769E+01  0.99129695114E+01  0.11441657076E+02  0.10566000000E+00 0.  1.
        -13    1    4    4    0    0  0.45129909728E+01  0.36626413433E+01  0.94433074427E+01  0.11089150041E+02  0.10566000000E+00 0.  1.
        -14    1    4    4    0    0  0.17655642155E+02  0.18767042404E+02  0.41593380986E+02  0.48927833820E+02  0.00000000000E+00 0.  1.
<mgrwt>
<rscale>  0 0.80249572E+02</rscale>
<asrwt>0</asrwt>
<pdfrwt beam="1">  1        1 0.25641447E-02 0.80249572E+02</pdfrwt>
<pdfrwt beam="2">  1       -2 0.14861280E-01 0.80249572E+02</pdfrwt>
<totfact> 0.10618428E+05</totfact>
</mgrwt>
</event>
<event>
 8    1  0.1319619E-020  0.8265366E+02  0.7818608E-02  0.1321685E+00
         -2   -1    0    0    0  501 -0.00000000000E+00  0.00000000000E+00  0.47976887533E+03  0.47976887533E+03  0.25500000000E-02 0.  1.
          1   -1    0    0  501    0  0.00000000000E+00 -0.00000000000E+00 -0.35598514884E+01  0.35598550562E+01  0.50400000000E-02 0. -1.
        -24    2    1    2    0    0  0.00000000000E+00  0.35527136788E-14  0.47620902384E+03  0.48332873039E+03  0.82653658329E+02 0.  0.
         66    2    3    3    0    0 -0.94362487475E+01  0.20518427293E+02  0.44046137199E+03  0.44104452026E+03  0.19999984250E+01 0.  0.
         13    1    3    3    0    0  0.94362487475E+01 -0.20518427293E+02  0.35747651850E+02  0.42284210124E+02  0.10566000000E+00 0. -1.
         13    1    4    4    0    0 -0.79922173452E+01  0.16934340900E+02  0.36478263575E+03  0.36526296001E+03  0.10566000000E+00 0. -1.
        -13    1    4    4    0    0 -0.15220881012E+01  0.33160155665E+01  0.71847767247E+02  0.71940430454E+02  0.10566000000E+00 0.  1.
         14    1    4    4    0    0  0.78056698867E-01  0.26807082643E+00  0.38309689854E+01  0.38411298056E+01  0.00000000000E+00 0. -1.
<mgrwt>
<rscale>  0 0.82653658E+02</rscale>
<asrwt>0</asrwt>
<pdfrwt beam="1">  1        1 0.54766931E-03 0.82653658E+02</pdfrwt>
<pdfrwt beam="2">  1       -2 0.73810654E-01 0.82653658E+02</pdfrwt>
<totfact> 0.47779802E+04</totfact>
</mgrwt>
</event>
<event>
 8    1  0.1319619E-020  0.7713041E+02  0.7818608E-02  0.1337398E+00
          1   -1    0    0  501    0  0.00000000000E+00  0.00000000000E+00  0.20789932807E+02  0.20789933418E+02  0.50400000000E-02 0. -1.
         -2   -1    0    0    0  501 -0.00000000000E+00 -0.00000000000E+00 -0.71538226609E+02  0.71538226655E+02  0.25500000000E-02 0.  1.
        -24    2    1    2    0    0  0.35527136788E-14  0.00000000000E+00 -0.50748293803E+02  0.92328160072E+02  0.77130407872E+02 0.  0.
         66    2    3    3    0    0  0.26373704958E+02 -0.27053172881E+02 -0.16288653929E+02  0.41191828366E+02  0.20000002896E+01 0.  0.
         13    1    3    3    0    0 -0.26373704958E+02  0.27053172881E+02 -0.34459639874E+02  0.51136331706E+02  0.10566000000E+00 0. -1.
         13    1    4    4    0    0  0.21788172040E+02 -0.22774912772E+02 -0.13299209618E+02  0.34209665784E+02  0.10566000000E+00 0. -1.
        -13    1    4    4    0    0  0.23782210043E+01 -0.26391151281E+01 -0.18398083050E+01  0.40021147459E+01  0.10566000000E+00 0.  1.
         14    1    4    4    0    0  0.22073119139E+01 -0.16391449815E+01 -0.11496360065E+01  0.29800478356E+01  0.00000000000E+00 0. -1.
<mgrwt>
<rscale>  0 0.77130408E+02</rscale>
<asrwt>0</asrwt>
<pdfrwt beam="1">  1        1 0.31984513E-02 0.77130408E+02</pdfrwt>
<pdfrwt beam="2">  1       -2 0.11005881E-01 0.77130408E+02</pdfrwt>
<totfact> 0.12553279E+05</totfact>
</mgrwt>
</event>
<event>
 8    1  0.1319619E-020  0.7975542E+02  0.7818608E-02  0.1329747E+00
          1   -1    0    0  501    0  0.00000000000E+00  0.00000000000E+00  0.40521399341E+02  0.40521399655E+02  0.50400000000E-02 0. -1.
         -2   -1    0    0    0  501 -0.00000000000E+00 -0.00000000000E+00 -0.39244246586E+02  0.39244246669E+02  0.25500000000E-02 0.  1.
        -24    2    1    2    0    0  0.00000000000E+00  0.00000000000E+00  0.12771527550E+01  0.79765646324E+02  0.79755421222E+02 0.  0.
         66    2    3    3    0    0  0.11779857369E+01  0.38069156341E+02 -0.11091914692E+02  0.39720006006E+02  0.19999976590E+01 0.  0.
         13    1    3    3    0    0 -0.11779857369E+01 -0.38069156341E+02  0.12369067447E+02  0.40045640318E+02  0.10566000000E+00 0. -1.
         13    1    4    4    0    0  0.19154092106E+00  0.17458738786E+01 -0.12979261085E+00  0.17643054389E+01  0.10566000000E+00 0. -1.
        -13    1    4    4    0    0  0.46597316839E+00  0.15206570497E+02 -0.44487088102E+01  0.15851154260E+02  0.10566000000E+00 0.  1.
        -14    1    4    4    0    0  0.52047164745E+00  0.21116711966E+02 -0.65134132714E+01  0.22104546307E+02  0.00000000000E+00 0.  1.
<mgrwt>
<rscale>  0 0.79755421E+02</rscale>
<asrwt>0</asrwt>
<pdfrwt beam="1">  1        1 0.62340615E-02 0.79755421E+02</pdfrwt>
<pdfrwt beam="2">  1       -2 0.60375764E-02 0.79755421E+02</pdfrwt>
<totfact> 0.12834370E+05</totfact>
</mgrwt>
</event>
<event>
 8    1  0.1319619E-020  0.7944621E+02  0.7818608E-02  0.1330630E+00
          1   -1    0    0  501    0  0.00000000000E+00  0.00000000000E+00  0.40025568542E+01  0.40025600274E+01  0.50400000000E-02 0. -1.
         -2   -1    0    0    0  501 -0.00000000000E+00 -0.00000000000E+00 -0.39422908555E+03  0.39422908556E+03  0.25500000000E-02 0.  1.
        -24    2    1    2    0    0  0.00000000000E+00  0.00000000000E+00 -0.39022652870E+03  0.39823164559E+03  0.79446207259E+02 0.  0.
         66    2    3    3    0    0  0.29176891736E+02 -0.16109601036E+02 -0.30334021261E+03  0.30517223798E+03  0.19999976567E+01 0.  0.
         13    1    3    3    0    0 -0.29176891736E+02  0.16109601036E+02 -0.86886316090E+02  0.93059407610E+02  0.10566000000E+00 0. -1.
         13    1    4    4    0    0  0.14346361737E+02 -0.71208865543E+01 -0.15068944343E+03  0.15153826133E+03  0.10566000000E+00 0. -1.
        -13    1    4    4    0    0  0.78672718221E+01 -0.46707920483E+01 -0.83147912632E+02  0.83649846404E+02  0.10566000000E+00 0.  1.
         14    1    4    4    0    0  0.69632581768E+01 -0.43179224333E+01 -0.69502856539E+02  0.69984130242E+02  0.00000000000E+00 0. -1.
<mgrwt>
<rscale>  0 0.79446207E+02</rscale>
<asrwt>0</asrwt>
<pdfrwt beam="1">  1        1 0.61577854E-03 0.79446207E+02</pdfrwt>
<pdfrwt beam="2">  1       -2 0.60650598E-01 0.79446207E+02</pdfrwt>
<totfact> 0.60742954E+04</totfact>
</mgrwt>
</event>
<event>
 8    1  0.1319619E-020  0.8639703E+02  0.7818608E-02  0.1311819E+00
         -2   -1    0    0    0  501 -0.00000000000E+00  0.00000000000E+00  0.43036545928E+02  0.43036546003E+02  0.25500000000E-02 0.  1.
          1   -1    0    0  501    0  0.00000000000E+00 -0.00000000000E+00 -0.43361097429E+02  0.43361097722E+02  0.50400000000E-02 0. -1.
        -24    2    1    2    0    0  0.22204460493E-15  0.00000000000E+00 -0.32455150145E+00  0.86397643726E+02  0.86397034137E+02 0.  0.
         66    2    3    3    0    0  0.11568283860E+01 -0.41832195171E+02  0.10460142014E+02  0.43182003235E+02  0.20000069177E+01 0.  0.
         13    1    3    3    0    0 -0.11568283860E+01  0.41832195171E+02 -0.10784693516E+02  0.43215640491E+02  0.10566000000E+00 0. -1.
         13    1    4    4    0    0  0.12519575118E+01 -0.15549004493E+02  0.42944198542E+01  0.16179992097E+02  0.10566000000E+00 0. -1.
        -13    1    4    4    0    0  0.76336638602E-01 -0.13597307893E+02  0.34149204144E+01  0.14020180266E+02  0.10566000000E+00 0.  1.
         14    1    4    4    0    0 -0.17146576448E+00 -0.12685882784E+02  0.27508017460E+01  0.12981830871E+02  0.00000000000E+00 0. -1.
<mgrwt>
<rscale>  0 0.86397034E+02</rscale>
<asrwt>0</asrwt>
<pdfrwt beam="1">  1        1 0.66709381E-02 0.86397034E+02</pdfrwt>
<pdfrwt beam="2">  1       -2 0.66210071E-02 0.86397034E+02</pdfrwt>
<totfact> 0.10351720E+05</totfact>
</mgrwt>
</event>
<event>
 8    1  0.1319619E-020  0.7969169E+02  0.7818608E-02  0.1329929E+00
          1   -1    0    0  501    0  0.00000000000E+00  0.00000000000E+00  0.31075710768E+02  0.31075711177E+02  0.50400000000E-02 0. -1.
         -2   -1    0    0    0  501 -0.00000000000E+00 -0.00000000000E+00 -0.51091068466E+02  0.51091068530E+02  0.25500000000E-02 0.  1.
        -24    2    1    2    0    0 -0.17763568394E-14  0.17763568394E-14 -0.20015357699E+02  0.82166779707E+02  0.79691688046E+02 0.  0.
         66    2    3    3    0    0  0.11147122263E+02  0.88284558807E+01 -0.48364433736E+02  0.50451148794E+02  0.19999989989E+01 0.  0.
         13    1    3    3    0    0 -0.11147122263E+02 -0.88284558807E+01  0.28349076038E+02  0.31715630913E+02  0.10566000000E+00 0. -1.
         13    1    4    4    0    0  0.59247712964E+01  0.40963585874E+01 -0.22989718043E+02  0.24091935753E+02  0.10566000000E+00 0. -1.
        -13    1    4    4    0    0  0.50717173365E+00  0.40623155339E+00 -0.37603517714E+01  0.38175459031E+01  0.10566000000E+00 0.  1.
        -14    1    4    4    0    0  0.47151792331E+01  0.43258657398E+01 -0.21614363922E+02  0.22541667138E+02  0.00000000000E+00 0.  1.
<mgrwt>
<rscale>  0 0.79691688E+02</rscale>
<asrwt>0</asrwt>
<pdfrwt beam="1">  1        1 0.47808786E-02 0.79691688E+02</pdfrwt>
<pdfrwt beam="2">  1       -2 0.78601644E-02 0.79691688E+02</pdfrwt>
<totfact> 0.12305398E+05</totfact>
</mgrwt>
</event>
<event>
 8    1  0.1319619E-020  0.8123298E+02  0.7818608E-02  0.1325588E+00
          1   -1    0    0  501    0  0.00000000000E+00  0.00000000000E+00  0.14240000341E+03  0.14240000350E+03  0.50400000000E-02 0. -1.
         -2   -1    0    0    0  501 -0.00000000000E+00 -0.00000000000E+00 -0.11584966695E+02  0.11584966976E+02  0.25500000000E-02 0.  1.
        -24    2    1    2    0    0 -0.35527136788E-14  0.17763568394E-14  0.13081503671E+03  0.15398497047E+03  0.81232981610E+02 0.  0.
         66    2    3    3    0    0  0.28195936511E+02 -0.14501831311E+02  0.17402732672E+02  0.36223874100E+02  0.20000008097E+01 0.  0.
         13    1    3    3    0    0 -0.28195936511E+02  0.14501831311E+02  0.11341230404E+03  0.11776109637E+03  0.10566000000E+00 0. -1.
         13    1    4    4    0    0  0.18375132674E+01 -0.99036442958E+00  0.73491602193E+00  0.22155230321E+01  0.10566000000E+00 0. -1.
        -13    1    4    4    0    0  0.12987708725E+02 -0.70294874341E+01  0.77449259559E+01  0.16676010123E+02  0.10566000000E+00 0.  1.
         14    1    4    4    0    0  0.13370714518E+02 -0.64819794475E+01  0.89228906940E+01  0.17332340945E+02  0.00000000000E+00 0. -1.
<mgrwt>
<rscale>  0 0.81232982E+02</rscale>
<asrwt>0</asrwt>
<pdfrwt beam="1">  1        1 0.21907694E-01 0.81232982E+02</pdfrwt>
<pdfrwt beam="2">  1       -2 0.17823025E-02 0.81232982E+02</pdfrwt>
<totfact> 0.15010910E+05</totfact>
</mgrwt>
</event>
<event>
 8    1  0.1319619E-020  0.8008192E+02  0.7818608E-02  0.1328819E+00
         -2   -1    0    0    0  501 -0.00000000000E+00  0.00000000000E+00  0.31951890322E+02  0.31951890424E+02  0.25500000000E-02 0.  1.
          1   -1    0    0  501    0  0.00000000000E+00 -0.00000000000E+00 -0.50177897002E+02  0.50177897255E+02  0.50400000000E-02 0. -1.
        -24    2    1    2    0    0  0.00000000000E+00  0.00000000000E+00 -0.18226006680E+02  0.82129787679E+02  0.80081924956E+02 0.  0.
         66    2    3    3    0    0 -0.14887998270E+02 -0.16594356528E+02  0.24961330875E+02  0.33527499150E+02  0.19999997751E+01 0.  0.
         13    1    3    3    0    0  0.14887998270E+02  0.16594356528E+02 -0.43187337555E+02  0.48602288529E+02  0.10566000000E+00 0. -1.
         13    1    4    4    0    0 -0.30831576429E+01 -0.29778535919E+01  0.39204050481E+01  0.58098375917E+01  0.10566000000E+00 0. -1.
        -13    1    4    4    0    0 -0.66204129763E+01 -0.82563081431E+01  0.12564595165E+02  0.16427924635E+02  0.10566000000E+00 0.  1.
         14    1    4    4    0    0 -0.51844276509E+01 -0.53601947934E+01  0.84763306624E+01  0.11289736923E+02  0.00000000000E+00 0. -1.
<mgrwt>
<rscale>  0 0.80081925E+02</rscale>
<asrwt>0</asrwt>
<pdfrwt beam="1">  1        1 0.77196765E-02 0.80081925E+02</pdfrwt>
<pdfrwt beam="2">  1       -2 0.49156754E-02 0.80081925E+02</pdfrwt>
<totfact> 0.13127039E+05</totfact>
</mgrwt>
</event>
<event>
 8    1  0.1319619E-020  0.8306605E+02  0.7818608E-02  0.1320569E+00
          1   -1    0    0  501    0  0.00000000000E+00  0.00000000000E+00  0.90856804785E+01  0.90856818764E+01  0.50400000000E-02 0. -1.
         -2   -1    0    0    0  501 -0.00000000000E+00 -0.00000000000E+00 -0.18985833478E+03  0.18985833479E+03  0.25500000000E-02 0.  1.
        -24    2    1    2    0    0  0.00000000000E+00  0.16653345369E-15 -0.18077265430E+03  0.19894401667E+03  0.83066053396E+02 0.  0.
         66    2    3    3    0    0  0.26438252924E+02 -0.48291644689E+00 -0.16707039463E+03  0.16916184902E+03  0.19999939284E+01 0.  0.
         13    1    3    3    0    0 -0.26438252924E+02  0.48291644689E+00 -0.13702259669E+02  0.29782167652E+02  0.10566000000E+00 0. -1.
         13    1    4    4    0    0  0.55833523951E+01  0.32420686816E+00 -0.37602433387E+02  0.38016221468E+02  0.10566000000E+00 0.  1.
        -13    1    4    4    0    0  0.24645022572E+01  0.21376533699E+00 -0.13798777771E+02  0.14019161851E+02  0.10566000000E+00 0.  1.
         14    1    4    4    0    0  0.18390398272E+02 -0.10208886520E+01 -0.11566918347E+03  0.11712646570E+03  0.00000000000E+00 0. -1.
<mgrwt>
<rscale>  0 0.83066053E+02</rscale>
<asrwt>0</asrwt>
<pdfrwt beam="1">  1        1 0.13977973E-02 0.83066053E+02</pdfrwt>
<pdfrwt beam="2">  1       -2 0.29208972E-01 0.83066053E+02</pdfrwt>
<totfact> 0.78820432E+04</totfact>
</mgrwt>
</event>
<event>
 8    1  0.1319619E-020  0.8213101E+02  0.7818608E-02  0.1323110E+00
         -2   -1    0    0    0  501 -0.00000000000E+00  0.00000000000E+00  0.19176916668E+02  0.19176916837E+02  0.25500000000E-02 0.  1.
          1   -1    0    0  501    0  0.00000000000E+00 -0.00000000000E+00 -0.87937790573E+02  0.87937790718E+02  0.50400000000E-02 0. -1.
        -24    2    1    2    0    0  0.00000000000E+00  0.00000000000E+00 -0.68760873906E+02  0.10711470756E+03  0.82131009943E+02 0.  0.
         66    2    3    3    0    0  0.72853521606E+01 -0.14725924653E+02  0.14648716048E+02  0.22102355080E+02  0.20000013068E+01 0.  0.
         13    1    3    3    0    0 -0.72853521606E+01  0.14725924653E+02 -0.83409589954E+02  0.85012352475E+02  0.10566000000E+00 0. -1.
         13    1    4    4    0    0  0.42404600063E+01 -0.90336675839E+01  0.84462430042E+01  0.13074357958E+02  0.10566000000E+00 0. -1.
        -13    1    4    4    0    0  0.14476103697E+01 -0.31316527559E+01  0.40487144837E+01  0.53203456440E+01  0.10566000000E+00 0.  1.
         14    1    4    4    0    0  0.15972817846E+01 -0.25606043134E+01  0.21537585603E+01  0.37076514784E+01  0.00000000000E+00 0. -1.
<mgrwt>
<rscale>  0 0.82131010E+02</rscale>
<asrwt>0</asrwt>
<pdfrwt beam="1">  1        1 0.13528891E-01 0.82131010E+02</pdfrwt>
<pdfrwt beam="2">  1       -2 0.29502949E-02 0.82131010E+02</pdfrwt>
<totfact> 0.13396162E+05</totfact>
</mgrwt>
</event>
<event>
 8    1  0.1319619E-020  0.8132534E+02  0.7818608E-02  0.1325332E+00
          1   -1    0    0  501    0  0.00000000000E+00  0.00000000000E+00  0.57345552322E+02  0.57345552543E+02  0.50400000000E-02 0. -1.
         -2   -1    0    0    0  501 -0.00000000000E+00 -0.00000000000E+00 -0.28833146178E+02  0.28833146290E+02  0.25500000000E-02 0.  1.
        -24    2    1    2    0    0  0.00000000000E+00 -0.35527136788E-14  0.28512406144E+02  0.86178698834E+02  0.81325339400E+02 0.  0.
         66    2    3    3    0    0  0.14562089073E+01 -0.22065567287E+02 -0.21864447764E+02  0.31161897965E+02  0.20000011756E+01 0.  0.
         13    1    3    3    0    0 -0.14562089073E+01  0.22065567287E+02  0.50376853909E+02  0.55016800869E+02  0.10566000000E+00 0. -1.
         13    1    4    4    0    0 -0.27609537662E+00 -0.28223597008E+01 -0.22392441959E+01  0.36148750382E+01  0.10566000000E+00 0. -1.
        -13    1    4    4    0    0  0.15469073684E+01 -0.17437790237E+02 -0.18026838955E+02  0.25128619889E+02  0.10566000000E+00 0.  1.
         14    1    4    4    0    0  0.18539691549E+00 -0.18054173484E+01 -0.15983646133E+01  0.24184030382E+01  0.00000000000E+00 0. -1.
<mgrwt>
<rscale>  0 0.81325339E+02</rscale>
<asrwt>0</asrwt>
<pdfrwt beam="1">  1        1 0.88223926E-02 0.81325339E+02</pdfrwt>
<pdfrwt beam="2">  1       -2 0.44358687E-02 0.81325339E+02</pdfrwt>
<totfact> 0.12845560E+05</totfact>
</mgrwt>
</event>
<event>
 8    1  0.1319619E-020  0.7960489E+02  0.7818608E-02  0.1330176E+00
          1   -1    0    0  501    0  0.00000000000E+00  0.00000000000E+00  0.46082100192E+02  0.46082100468E+02  0.50400000000E-02 0. -1.
         -2   -1    0    0    0  501 -0.00000000000E+00 -0.00000000000E+00 -0.34378526415E+02  0.34378526509E+02  0.25500000000E-02 0.  1.
        -24    2    1    2    0    0  0.17763568394E-14  0.00000000000E+00  0.11703573777E+02  0.80460626977E+02  0.79604892151E+02 0.  0.
         66    2    3    3    0    0  0.15813780962E+02  0.34070911407E+02 -0.73744327996E+01  0.38331252767E+02  0.20000017921E+01 0.  0.
         13    1    3    3    0    0 -0.15813780962E+02 -0.34070911407E+02  0.19078006577E+02  0.42129374211E+02  0.10566000000E+00 0. -1.
         13    1    4    4    0    0  0.17996185727E+01  0.39961942036E+01 -0.33507067705E+00  0.43967751267E+01  0.10566000000E+00 0.  1.
        -13    1    4    4    0    0  0.42345505550E+01  0.10044276773E+02 -0.25906628511E+01  0.11204535347E+02  0.10566000000E+00 0. -1.
        -14    1    4    4    0    0  0.97796118343E+01  0.20030440430E+02 -0.44486992714E+01  0.22729942293E+02  0.00000000000E+00 0.  1.
<mgrwt>
<rscale>  0 0.79604892E+02</rscale>
<asrwt>0</asrwt>
<pdfrwt beam="1">  1        1 0.70895539E-02 0.79604892E+02</pdfrwt>
<pdfrwt beam="2">  1       -2 0.52890041E-02 0.79604892E+02</pdfrwt>
<totfact> 0.13169606E+05</totfact>
</mgrwt>
</event>
<event>
 8    1  0.1319619E-020  0.8534728E+02  0.7818608E-02  0.1314527E+00
         -2   -1    0    0    0  501 -0.00000000000E+00  0.00000000000E+00  0.71529673478E+01  0.71529678023E+01  0.25500000000E-02 0.  1.
          1   -1    0    0  501    0  0.00000000000E+00 -0.00000000000E+00 -0.25458519897E+03  0.25458519902E+03  0.50400000000E-02 0. -1.
        -24    2    1    2    0    0 -0.88817841970E-15  0.00000000000E+00 -0.24743223162E+03  0.26173816682E+03  0.85347283061E+02 0.  0.
         66    2    3    3    0    0 -0.49825779813E+01 -0.40962678099E+02 -0.90715961571E+02  0.99680252658E+02  0.20000014703E+01 0.  0.
         13    1    3    3    0    0  0.49825779813E+01  0.40962678099E+02 -0.15671627005E+03  0.16205791416E+03  0.10566000000E+00 0. -1.
         13    1    4    4    0    0 -0.18247596501E+01 -0.16048333645E+02 -0.36565058488E+02  0.39973659162E+02  0.10566000000E+00 0. -1.
        -13    1    4    4    0    0 -0.29397437972E+01 -0.19835377893E+02 -0.42359529267E+02  0.46866034540E+02  0.10566000000E+00 0.  1.
        -14    1    4    4    0    0 -0.21807453398E+00 -0.50789665608E+01 -0.11791373816E+02  0.12840558956E+02  0.00000000000E+00 0.  1.
<mgrwt>
<rscale>  0 0.85347283E+02</rscale>
<asrwt>0</asrwt>
<pdfrwt beam="1">  1        1 0.39166947E-01 0.85347283E+02</pdfrwt>
<pdfrwt beam="2">  1       -2 0.11004567E-02 0.85347283E+02</pdfrwt>
<totfact> 0.14720764E+05</totfact>
</mgrwt>
</event>
<event>
 8    1  0.1319619E-020  0.8149651E+02  0.7818608E-02  0.1324857E+00
         -2   -1    0    0    0  501 -0.00000000000E+00  0.00000000000E+00  0.44567033433E+02  0.44567033506E+02  0.25500000000E-02 0.  1.
          1   -1    0    0  501    0  0.00000000000E+00 -0.00000000000E+00 -0.37256695107E+02  0.37256695447E+02  0.50400000000E-02 0. -1.
        -24    2    1    2    0    0 -0.35527136788E-14  0.00000000000E+00  0.73103383268E+01  0.81823728954E+02  0.81496512646E+02 0.  0.
         66    2    3    3    0    0  0.27056055493E+02  0.21242966053E+02  0.25542168291E+02  0.42891678745E+02  0.19999997569E+01 0.  0.
         13    1    3    3    0    0 -0.27056055493E+02 -0.21242966053E+02 -0.18231829964E+02  0.38932050208E+02  0.10566000000E+00 0. -1.
         13    1    4    4    0    0  0.47812315228E+00  0.60262799116E+00  0.79250140664E+00  0.11094975257E+01  0.10566000000E+00 0. -1.
        -13    1    4    4    0    0  0.18977841466E+02  0.14228685530E+02  0.17455228681E+02  0.29450129557E+02  0.10566000000E+00 0.  1.
         14    1    4    4    0    0  0.76000908742E+01  0.64116525318E+01  0.72944382040E+01  0.12332051662E+02  0.00000000000E+00 0. -1.
<mgrwt>
<rscale>  0 0.81496513E+02</rscale>
<asrwt>0</asrwt>
<pdfrwt beam="1">  1        1 0.57317993E-02 0.81496513E+02</pdfrwt>
<pdfrwt beam="2">  1       -2 0.68564667E-02 0.81496513E+02</pdfrwt>
<totfact> 0.11907983E+05</totfact>
</mgrwt>
</event>
<event>
 8    1  0.1319619E-020  0.8387626E+02  0.7818608E-02  0.1318398E+00
         -2   -1    0    0    0  501 -0.00000000000E+00  0.00000000000E+00  0.32566751950E+01  0.32566761934E+01  0.25500000000E-02 0.  1.
          1   -1    0    0  501    0  0.00000000000E+00 -0.00000000000E+00 -0.54006200223E+03  0.54006200226E+03  0.50400000000E-02 0. -1.
        -24    2    1    2    0    0 -0.71054273576E-14  0.35527136788E-14 -0.53680532704E+03  0.54331867845E+03  0.83876261339E+02 0.  0.
         66    2    3    3    0    0  0.28511970878E+02 -0.30031476838E+02 -0.31052447726E+03  0.31327986385E+03  0.20000072209E+01 0.  0.
         13    1    3    3    0    0 -0.28511970878E+02  0.30031476838E+02 -0.22628084977E+03  0.23003881460E+03  0.10566000000E+00 0. -1.
         13    1    4    4    0    0  0.46014482591E+01 -0.53168137879E+01 -0.52509481095E+02  0.52978284267E+02  0.10566000000E+00 0. -1.
        -13    1    4    4    0    0  0.12359630823E+02 -0.11683794392E+02 -0.12962655976E+03  0.13073762919E+03  0.10566000000E+00 0.  1.
        -14    1    4    4    0    0  0.11550891797E+02 -0.13030868657E+02 -0.12838843640E+03  0.12956395039E+03  0.00000000000E+00 0.  1.
<mgrwt>
<rscale>  0 0.83876261E+02</rscale>
<asrwt>0</asrwt>
<pdfrwt beam="1">  1        1 0.83086391E-01 0.83876261E+02</pdfrwt>
<pdfrwt beam="2">  1       -2 0.50102746E-03 0.83876261E+02</pdfrwt>
<totfact> 0.17462141E+05</totfact>
</mgrwt>
</event>
<event>
 8    1  0.1319619E-020  0.8090134E+02  0.7818608E-02  0.1326513E+00
         -2   -1    0    0    0  501 -0.00000000000E+00  0.00000000000E+00  0.59850749241E+02  0.59850749295E+02  0.25500000000E-02 0.  1.
          1   -1    0    0  501    0  0.00000000000E+00 -0.00000000000E+00 -0.27338948327E+02  0.27338948792E+02  0.50400000000E-02 0. -1.
        -24    2    1    2    0    0  0.17763568394E-14  0.00000000000E+00  0.32511800914E+02  0.87189698087E+02  0.80901336539E+02 0.  0.
         66    2    3    3    0    0 -0.15575688280E+02  0.25171681561E+02  0.45938324037E+02  0.54685878231E+02  0.20000111520E+01 0.  0.
         13    1    3    3    0    0  0.15575688280E+02 -0.25171681561E+02 -0.13426523123E+02  0.32503819856E+02  0.10566000000E+00 0. -1.
         13    1    4    4    0    0 -0.19839476450E-01  0.74077497402E-01  0.26327836848E+00  0.29387176686E+00  0.10566000000E+00 0. -1.
        -13    1    4    4    0    0 -0.18020206775E+01  0.26126326095E+01  0.47832584720E+01  0.57414156199E+01  0.10566000000E+00 0.  1.
         14    1    4    4    0    0 -0.13753828126E+02  0.22484971454E+02  0.40891787196E+02  0.48650590844E+02  0.00000000000E+00 0. -1.
<mgrwt>
<rscale>  0 0.80901337E+02</rscale>
<asrwt>0</asrwt>
<pdfrwt beam="1">  1        1 0.42059921E-02 0.80901337E+02</pdfrwt>
<pdfrwt beam="2">  1       -2 0.92078076E-02 0.80901337E+02</pdfrwt>
<totfact> 0.11513527E+05</totfact>
</mgrwt>
</event>
<event>
 8    1  0.1319619E-020  0.8025807E+02  0.7818608E-02  0.1328321E+00
         -2   -1    0    0    0  501 -0.00000000000E+00  0.00000000000E+00  0.30948434913E+02  0.30948435018E+02  0.25500000000E-02 0.  1.
          1   -1    0    0  501    0  0.00000000000E+00 -0.00000000000E+00 -0.52032986761E+02  0.52032987006E+02  0.50400000000E-02 0. -1.
        -24    2    1    2    0    0 -0.17763568394E-14 -0.35527136788E-14 -0.21084551848E+02  0.82981422024E+02  0.80258071709E+02 0.  0.
         66    2    3    3    0    0  0.14699404094E+02  0.20123787308E+02  0.21938649698E+02  0.33261744515E+02  0.20000003194E+01 0.  0.
         13    1    3    3    0    0 -0.14699404094E+02 -0.20123787308E+02 -0.43023201546E+02  0.49719677509E+02  0.10566000000E+00 0. -1.
         13    1    4    4    0    0  0.86622978303E+01  0.11032353750E+02  0.11964029816E+02  0.18436306746E+02  0.10566000000E+00 0. -1.
        -13    1    4    4    0    0  0.48843953000E+01  0.77973861448E+01  0.87978072578E+01  0.12730637247E+02  0.10566000000E+00 0.  1.
        -14    1    4    4    0    0  0.11527109633E+01  0.12940474128E+01  0.11768126241E+01  0.20948005213E+01  0.00000000000E+00 0.  1.
<mgrwt>
<rscale>  0 0.80258072E+02</rscale>
<asrwt>0</asrwt>
<pdfrwt beam="1">  1        1 0.80050750E-02 0.80258072E+02</pdfrwt>
<pdfrwt beam="2">  1       -2 0.47612977E-02 0.80258072E+02</pdfrwt>
<totfact> 0.13121857E+05</totfact>
</mgrwt>
</event>
<event>
 8    1  0.1319619E-020  0.7789610E+02  0.7818608E-02  0.1335130E+00
         -2   -1    0    0    0  501 -0.00000000000E+00  0.00000000000E+00  0.53893017125E+02  0.53893017185E+02  0.25500000000E-02 0.  1.
          1   -1    0    0  501    0  0.00000000000E+00 -0.00000000000E+00 -0.28147439837E+02  0.28147440288E+02  0.50400000000E-02 0. -1.
        -24    2    1    2    0    0  0.35527136788E-14 -0.35527136788E-14  0.25745577288E+02  0.82040457473E+02  0.77896096902E+02 0.  0.
         66    2    3    3    0    0 -0.30424912534E+02  0.18533123138E+02  0.29393173895E+02  0.46228893964E+02  0.20000024147E+01 0.  0.
         13    1    3    3    0    0  0.30424912534E+02 -0.18533123138E+02 -0.36475966064E+01  0.35811563509E+02  0.10566000000E+00 0. -1.
         13    1    4    4    0    0 -0.62006221853E+01  0.30455157133E+01  0.61078564916E+01  0.92217111429E+01  0.10566000000E+00 0. -1.
        -13    1    4    4    0    0 -0.16444245029E+02  0.10083228608E+02  0.15508572116E+02  0.24750993250E+02  0.10566000000E+00 0.  1.
        -14    1    4    4    0    0 -0.77800453191E+01  0.54043788161E+01  0.77767452867E+01  0.12256189571E+02  0.00000000000E+00 0.  1.
<mgrwt>
<rscale>  0 0.77896097E+02</rscale>
<asrwt>0</asrwt>
<pdfrwt beam="1">  1        1 0.43303755E-02 0.77896097E+02</pdfrwt>
<pdfrwt beam="2">  1       -2 0.82912333E-02 0.77896097E+02</pdfrwt>
<totfact> 0.12911234E+05</totfact>
</mgrwt>
</event>
<event>
 8    1  0.1319619E-020  0.7890356E+02  0.7818608E-02  0.1332192E+00
         -2   -1    0    0    0  501 -0.00000000000E+00  0.00000000000E+00  0.13028829539E+02  0.13028829789E+02  0.25500000000E-02 0.  1.
          1   -1    0    0  501    0  0.00000000000E+00 -0.00000000000E+00 -0.11946145507E+03  0.11946145518E+03  0.50400000000E-02 0. -1.
        -24    2    1    2    0    0  0.71054273576E-14  0.00000000000E+00 -0.10643262553E+03  0.13249028496E+03  0.78903560330E+02 0.  0.
         66    2    3    3    0    0  0.35653631582E+02 -0.89308074503E+01 -0.77203782796E+02  0.85529906151E+02  0.20000003765E+01 0.  0.
         13    1    3    3    0    0 -0.35653631582E+02  0.89308074503E+01 -0.29228842734E+02  0.46960378813E+02  0.10566000000E+00 0. -1.
         13    1    4    4    0    0  0.35791306074E+01 -0.88858448588E+00 -0.91356716791E+01  0.98524829031E+01  0.10566000000E+00 0.  1.
        -13    1    4    4    0    0  0.11199750016E+02 -0.28431856717E+01 -0.23175216428E+02  0.25896330352E+02  0.10566000000E+00 0. -1.
        -14    1    4    4    0    0  0.20874750958E+02 -0.51990372927E+01 -0.44892894690E+02  0.49781092896E+02  0.00000000000E+00 0.  1.
<mgrwt>
<rscale>  0 0.78903560E+02</rscale>
<asrwt>0</asrwt>
<pdfrwt beam="1">  1        1 0.18378685E-01 0.78903560E+02</pdfrwt>
<pdfrwt beam="2">  1       -2 0.20044354E-02 0.78903560E+02</pdfrwt>
<totfact> 0.15726722E+05</totfact>
</mgrwt>
</event>
<event>
 8    1  0.1319619E-020  0.8231351E+02  0.7818608E-02  0.1322611E+00
         -2   -1    0    0    0  501 -0.00000000000E+00  0.00000000000E+00  0.14606178351E+03  0.14606178353E+03  0.25500000000E-02 0.  1.
          1   -1    0    0  501    0  0.00000000000E+00 -0.00000000000E+00 -0.11596999739E+02  0.11597000835E+02  0.50400000000E-02 0. -1.
        -24    2    1    2    0    0  0.00000000000E+00 -0.35527136788E-14  0.13446478377E+03  0.15765878437E+03  0.82313511732E+02 0.  0.
         66    2    3    3    0    0 -0.27618110807E+01  0.27542295736E+02  0.12554594791E+03  0.12857678904E+03  0.19999971335E+01 0.  0.
         13    1    3    3    0    0  0.27618110807E+01 -0.27542295736E+02  0.89188358569E+01  0.29081995323E+02  0.10566000000E+00 0. -1.
         13    1    4    4    0    0 -0.41948881388E+00  0.12980801938E+01  0.50793434176E+01  0.52604065094E+01  0.10566000000E+00 0. -1.
        -13    1    4    4    0    0 -0.14580878309E+01  0.18670329385E+02  0.84523753486E+02  0.86573571527E+02  0.10566000000E+00 0.  1.
        -14    1    4    4    0    0 -0.88423443594E+00  0.75738861573E+01  0.35942851010E+02  0.36742811009E+02  0.00000000000E+00 0.  1.
<mgrwt>
<rscale>  0 0.82313512E+02</rscale>
<asrwt>0</asrwt>
<pdfrwt beam="1">  1        1 0.17841539E-02 0.82313512E+02</pdfrwt>
<pdfrwt beam="2">  1       -2 0.22471044E-01 0.82313512E+02</pdfrwt>
<totfact> 0.88585282E+04</totfact>
</mgrwt>
</event>
<event>
 8    1  0.1319619E-020  0.7895499E+02  0.7818608E-02  0.1332043E+00
         -2   -1    0    0    0  501 -0.00000000000E+00  0.00000000000E+00  0.50802158624E+02  0.50802158688E+02  0.25500000000E-02 0.  1.
          1   -1    0    0  501    0  0.00000000000E+00 -0.00000000000E+00 -0.30677291974E+02  0.30677292388E+02  0.50400000000E-02 0. -1.
        -24    2    1    2    0    0 -0.88817841970E-15  0.00000000000E+00  0.20124866650E+02  0.81479451076E+02  0.78954991546E+02 0.  0.
         66    2    3    3    0    0 -0.65428831611E+01  0.28094252495E+02  0.37843556944E+02  0.47625950621E+02  0.20000067622E+01 0.  0.
         13    1    3    3    0    0  0.65428831611E+01 -0.28094252495E+02 -0.17718690294E+02  0.33853500455E+02  0.10566000000E+00 0. -1.
         13    1    4    4    0    0 -0.19217816146E+01  0.10684477215E+02  0.13778582314E+02  0.17541715781E+02  0.10566000000E+00 0. -1.
        -13    1    4    4    0    0 -0.15254763913E+01  0.73661495657E+01  0.10754393827E+02  0.13124610023E+02  0.10566000000E+00 0.  1.
         14    1    4    4    0    0 -0.30956251552E+01  0.10043625714E+02  0.13310580804E+02  0.16959624817E+02  0.00000000000E+00 0. -1.
<mgrwt>
<rscale>  0 0.78954992E+02</rscale>
<asrwt>0</asrwt>
<pdfrwt beam="1">  1        1 0.47195835E-02 0.78954992E+02</pdfrwt>
<pdfrwt beam="2">  1       -2 0.78157166E-02 0.78954992E+02</pdfrwt>
<totfact> 0.12608703E+05</totfact>
</mgrwt>
</event>
<event>
 8    1  0.1319619E-020  0.7956279E+02  0.7818608E-02  0.1330297E+00
          1   -1    0    0  501    0  0.00000000000E+00  0.00000000000E+00  0.28291225176E+03  0.28291225180E+03  0.50400000000E-02 0. -1.
         -2   -1    0    0    0  501 -0.00000000000E+00 -0.00000000000E+00 -0.55938168273E+01  0.55938174086E+01  0.25500000000E-02 0.  1.
        -24    2    1    2    0    0  0.00000000000E+00  0.17763568394E-14  0.27731843493E+03  0.28850606921E+03  0.79562790420E+02 0.  0.
         66    2    3    3    0    0  0.38352445792E+02 -0.84677480560E+01  0.11641072582E+03  0.12287420370E+03  0.19999987948E+01 0.  0.
         13    1    3    3    0    0 -0.38352445792E+02  0.84677480560E+01  0.16090770911E+03  0.16563186551E+03  0.10566000000E+00 0. -1.
         13    1    4    4    0    0  0.57613845266E+01 -0.15601908454E+01  0.18289571323E+02  0.19239213351E+02  0.10566000000E+00 0. -1.
        -13    1    4    4    0    0  0.23614821739E+02 -0.44206703718E+01  0.69353618364E+02  0.73397123081E+02  0.10566000000E+00 0.  1.
        -14    1    4    4    0    0  0.89762395258E+01 -0.24868868388E+01  0.28767536128E+02  0.30237867270E+02  0.00000000000E+00 0.  1.
<mgrwt>
<rscale>  0 0.79562790E+02</rscale>
<asrwt>0</asrwt>
<pdfrwt beam="1">  1        1 0.43524971E-01 0.79562790E+02</pdfrwt>
<pdfrwt beam="2">  1       -2 0.86058708E-03 0.79562790E+02</pdfrwt>
<totfact> 0.18099529E+05</totfact>
</mgrwt>
</event>
<event>
 8    1  0.1319619E-020  0.8134912E+02  0.7818608E-02  0.1325266E+00
         -2   -1    0    0    0  501 -0.00000000000E+00  0.00000000000E+00  0.89059768807E+01  0.89059772458E+01  0.25500000000E-02 0.  1.
          1   -1    0    0  501    0  0.00000000000E+00 -0.00000000000E+00 -0.18576509972E+03  0.18576509979E+03  0.50400000000E-02 0. -1.
        -24    2    1    2    0    0  0.00000000000E+00  0.00000000000E+00 -0.17685912284E+03  0.19467107704E+03  0.81349117403E+02 0.  0.
         66    2    3    3    0    0 -0.16004687767E+02 -0.37340850431E+02 -0.91803582662E+02  0.10041108966E+03  0.19999988194E+01 0.  0.
         13    1    3    3    0    0  0.16004687767E+02  0.37340850431E+02 -0.85055540182E+02  0.94259987381E+02  0.10566000000E+00 0. -1.
         13    1    4    4    0    0 -0.54097255473E+01 -0.11982052075E+02 -0.31362185777E+02  0.34006360629E+02  0.10566000000E+00 0. -1.
        -13    1    4    4    0    0 -0.47435078386E+01 -0.10063297575E+02 -0.24188702767E+02  0.26624712774E+02  0.10566000000E+00 0.  1.
         14    1    4    4    0    0 -0.58514543807E+01 -0.15295500781E+02 -0.36252694118E+02  0.39780016255E+02  0.00000000000E+00 0. -1.
<mgrwt>
<rscale>  0 0.81349117E+02</rscale>
<asrwt>0</asrwt>
<pdfrwt beam="1">  1        1 0.28579243E-01 0.81349117E+02</pdfrwt>
<pdfrwt beam="2">  1       -2 0.13701505E-02 0.81349117E+02</pdfrwt>
<totfact> 0.15722038E+05</totfact>
</mgrwt>
</event>
<event>
 8    1  0.1319619E-020  0.7832238E+02  0.7818608E-02  0.1333881E+00
         -2   -1    0    0    0  501 -0.00000000000E+00  0.00000000000E+00  0.80943313710E+02  0.80943313750E+02  0.25500000000E-02 0.  1.
          1   -1    0    0  501    0  0.00000000000E+00 -0.00000000000E+00 -0.18946575717E+02  0.18946576388E+02  0.50400000000E-02 0. -1.
        -24    2    1    2    0    0 -0.71054273576E-14 -0.88817841970E-15  0.61996737993E+02  0.99889890138E+02  0.78322376305E+02 0.  0.
         66    2    3    3    0    0  0.25507909550E+02  0.57805555767E+01 -0.61103721857E+01  0.26933342158E+02  0.19999997904E+01 0.  0.
         13    1    3    3    0    0 -0.25507909550E+02 -0.57805555767E+01  0.68107110179E+02  0.72956547981E+02  0.10566000000E+00 0. -1.
         13    1    4    4    0    0  0.25234568646E+01  0.30868819287E+00 -0.10878327942E+01  0.27672490260E+01  0.10566000000E+00 0. -1.
        -13    1    4    4    0    0  0.46025506675E+01  0.13511115115E+01 -0.88280604378E+00  0.48784716367E+01  0.10566000000E+00 0.  1.
        -14    1    4    4    0    0  0.18381902017E+02  0.41207558723E+01 -0.41397333477E+01  0.19287621495E+02  0.00000000000E+00 0.  1.
<mgrwt>
<rscale>  0 0.78322376E+02</rscale>
<asrwt>0</asrwt>
<pdfrwt beam="1">  1        1 0.29148579E-02 0.78322376E+02</pdfrwt>
<pdfrwt beam="2">  1       -2 0.12452817E-01 0.78322376E+02</pdfrwt>
<totfact> 0.11766232E+05</totfact>
</mgrwt>
</event>
<event>
 8    1  0.1319619E-020  0.8221020E+02  0.7818608E-02  0.1322894E+00
         -2   -1    0    0    0  501 -0.00000000000E+00  0.00000000000E+00  0.14025056683E+02  0.14025056915E+02  0.25500000000E-02 0.  1.
          1   -1    0    0  501    0  0.00000000000E+00 -0.00000000000E+00 -0.12047218898E+03  0.12047218909E+03  0.50400000000E-02 0. -1.
        -24    2    1    2    0    0  0.00000000000E+00  0.00000000000E+00 -0.10644713230E+03  0.13449724600E+03  0.82210201359E+02 0.  0.
         66    2    3    3    0    0 -0.25090879237E+02  0.26430651663E+02 -0.22235624816E+02  0.42738209800E+02  0.19999994266E+01 0.  0.
         13    1    3    3    0    0  0.25090879237E+02 -0.26430651663E+02 -0.84211507481E+02  0.91759036201E+02  0.10566000000E+00 0. -1.
         13    1    4    4    0    0 -0.25947373746E+01  0.25328866941E+01 -0.19951516432E+01  0.41400448262E+01  0.10566000000E+00 0.  1.
        -13    1    4    4    0    0 -0.13422051420E+02  0.13421938214E+02 -0.12429050567E+02  0.22689035938E+02  0.10566000000E+00 0.  1.
        -14    1    4    4    0    0 -0.90740904426E+01  0.10475826755E+02 -0.78114226055E+01  0.15909129036E+02  0.00000000000E+00 0.  1.
<mgrwt>
<rscale>  0 0.82210201E+02</rscale>
<asrwt>0</asrwt>
<pdfrwt beam="1">  1        1 0.18534182E-01 0.82210201E+02</pdfrwt>
<pdfrwt beam="2">  1       -2 0.21577011E-02 0.82210201E+02</pdfrwt>
<totfact> 0.14103173E+05</totfact>
</mgrwt>
</event>
<event>
 8    1  0.1319619E-020  0.8287533E+02  0.7818608E-02  0.1321084E+00
         -2   -1    0    0    0  501 -0.00000000000E+00  0.00000000000E+00  0.19000574445E+02  0.19000574617E+02  0.25500000000E-02 0.  1.
          1   -1    0    0  501    0  0.00000000000E+00 -0.00000000000E+00 -0.90369905350E+02  0.90369905491E+02  0.50400000000E-02 0. -1.
        -24    2    1    2    0    0  0.00000000000E+00  0.00000000000E+00 -0.71369330905E+02  0.10937048011E+03  0.82875331222E+02 0.  0.
         66    2    3    3    0    0 -0.62549439577E+01  0.16451148382E+02  0.13766783869E+02  0.22434102164E+02  0.19999987018E+01 0.  0.
         13    1    3    3    0    0  0.62549439577E+01 -0.16451148382E+02 -0.85136114774E+02  0.86936377943E+02  0.10566000000E+00 0. -1.
         13    1    4    4    0    0 -0.14670120372E+01  0.23315842982E+01  0.21793930700E+01  0.35141610444E+01  0.10566000000E+00 0. -1.
        -13    1    4    4    0    0 -0.22732912763E+01  0.69289586291E+01  0.49291887890E+01  0.88026352341E+01  0.10566000000E+00 0.  1.
         14    1    4    4    0    0 -0.25146406442E+01  0.71906054548E+01  0.66582020103E+01  0.10117305886E+02  0.00000000000E+00 0. -1.
<mgrwt>
<rscale>  0 0.82875331E+02</rscale>
<asrwt>0</asrwt>
<pdfrwt beam="1">  1        1 0.13903062E-01 0.82875331E+02</pdfrwt>
<pdfrwt beam="2">  1       -2 0.29231654E-02 0.82875331E+02</pdfrwt>
<totfact> 0.13130698E+05</totfact>
</mgrwt>
</event>
<event>
 8    1  0.1319619E-020  0.7652353E+02  0.7818608E-02  0.1339217E+00
          1   -1    0    0  501    0  0.00000000000E+00  0.00000000000E+00  0.52628424528E+01  0.52628448661E+01  0.50400000000E-02 0. -1.
         -2   -1    0    0    0  501 -0.00000000000E+00 -0.00000000000E+00 -0.27816952526E+03  0.27816952527E+03  0.25500000000E-02 0.  1.
        -24    2    1    2    0    0  0.35527136788E-14 -0.35527136788E-14 -0.27290668280E+03  0.28343237013E+03  0.76523531812E+02 0.  0.
         66    2    3    3    0    0 -0.25569031819E+02  0.25507116199E+02 -0.90052978970E+02  0.97046006538E+02  0.19999996423E+01 0.  0.
         13    1    3    3    0    0  0.25569031819E+02 -0.25507116199E+02 -0.18285370383E+03  0.18638636360E+03  0.10566000000E+00 0. -1.
         13    1    4    4    0    0 -0.10823096867E+02  0.10131420720E+02 -0.37772729036E+02  0.40578015408E+02  0.10566000000E+00 0. -1.
        -13    1    4    4    0    0 -0.25841422680E+01  0.20614789936E+01 -0.82081097885E+01  0.88493907835E+01  0.10566000000E+00 0.  1.
        -14    1    4    4    0    0 -0.12161792684E+02  0.13314216486E+02 -0.44072140146E+02  0.47618600346E+02  0.00000000000E+00 0.  1.
<mgrwt>
<rscale>  0 0.76523532E+02</rscale>
<asrwt>0</asrwt>
<pdfrwt beam="1">  1        1 0.80966848E-03 0.76523532E+02</pdfrwt>
<pdfrwt beam="2">  1       -2 0.42795300E-01 0.76523532E+02</pdfrwt>
<totfact> 0.82017413E+04</totfact>
</mgrwt>
</event>
<event>
 8    1  0.1319619E-020  0.7151354E+02  0.7818608E-02  0.1355021E+00
          1   -1    0    0  501    0  0.00000000000E+00  0.00000000000E+00  0.19275065427E+03  0.19275065433E+03  0.50400000000E-02 0. -1.
         -2   -1    0    0    0  501 -0.00000000000E+00 -0.00000000000E+00 -0.66331635983E+01  0.66331640884E+01  0.25500000000E-02 0.  1.
        -24    2    1    2    0    0 -0.35527136788E-14 -0.35527136788E-14  0.18611749067E+03  0.19938381842E+03  0.71513542182E+02 0.  0.
         66    2    3    3    0    0 -0.16558042325E+02 -0.30436481639E+02  0.68826622176E+02  0.77082112889E+02  0.20000067990E+01 0.  0.
         13    1    3    3    0    0  0.16558042325E+02  0.30436481639E+02  0.11729086849E+03  0.12230170553E+03  0.10566000000E+00 0. -1.
         13    1    4    4    0    0 -0.23873346651E+01 -0.59120011069E+01  0.12385322845E+02  0.13930488502E+02  0.10566000000E+00 0. -1.
        -13    1    4    4    0    0 -0.11705232559E+01 -0.18569742446E+01  0.44188135268E+01  0.49351347558E+01  0.10566000000E+00 0.  1.
         14    1    4    4    0    0 -0.13000184404E+02 -0.22667506287E+02  0.52022485804E+02  0.58216489632E+02  0.00000000000E+00 0. -1.
<mgrwt>
<rscale>  0 0.71513542E+02</rscale>
<asrwt>0</asrwt>
<pdfrwt beam="1">  1        1 0.29653946E-01 0.71513542E+02</pdfrwt>
<pdfrwt beam="2">  1       -2 0.10204868E-02 0.71513542E+02</pdfrwt>
<totfact> 0.22254851E+05</totfact>
</mgrwt>
</event>
<event>
 8    1  0.1319619E-020  0.7267832E+02  0.7818608E-02  0.1351215E+00
         -2   -1    0    0    0  501 -0.00000000000E+00  0.00000000000E+00  0.14553852431E+02  0.14553852655E+02  0.25500000000E-02 0.  1.
          1   -1    0    0  501    0  0.00000000000E+00 -0.00000000000E+00 -0.90734356173E+02  0.90734356313E+02  0.50400000000E-02 0. -1.
        -24    2    1    2    0    0 -0.35527136788E-14  0.00000000000E+00 -0.76180503741E+02  0.10528820897E+03  0.72678317243E+02 0.  0.
         66    2    3    3    0    0  0.25108110219E+02 -0.20933953320E+02 -0.61019379576E+02  0.69253247466E+02  0.20000001162E+01 0.  0.
         13    1    3    3    0    0 -0.25108110219E+02  0.20933953320E+02 -0.15161124166E+02  0.36034961501E+02  0.10566000000E+00 0. -1.
         13    1    4    4    0    0  0.16163805308E+02 -0.12749833217E+02 -0.37016215599E+02  0.42356088469E+02  0.10566000000E+00 0. -1.
        -13    1    4    4    0    0  0.40425715543E+01 -0.33650537994E+01 -0.10156544798E+02  0.11438205196E+02  0.10566000000E+00 0.  1.
         14    1    4    4    0    0  0.49017333565E+01 -0.48190663034E+01 -0.13846619179E+02  0.15458953801E+02  0.00000000000E+00 0. -1.
<mgrwt>
<rscale>  0 0.72678317E+02</rscale>
<asrwt>0</asrwt>
<pdfrwt beam="1">  1        1 0.13959131E-01 0.72678317E+02</pdfrwt>
<pdfrwt beam="2">  1       -2 0.22390543E-02 0.72678317E+02</pdfrwt>
<totfact> 0.18726742E+05</totfact>
</mgrwt>
</event>
<event>
 8    1  0.1319619E-020  0.7867236E+02  0.7818608E-02  0.1332862E+00
         -2   -1    0    0    0  501 -0.00000000000E+00  0.00000000000E+00  0.34913078712E+01  0.34913088024E+01  0.25500000000E-02 0.  1.
          1   -1    0    0  501    0  0.00000000000E+00 -0.00000000000E+00 -0.44319634233E+03  0.44319634236E+03  0.50400000000E-02 0. -1.
        -24    2    1    2    0    0  0.00000000000E+00  0.00000000000E+00 -0.43970503446E+03  0.44668765117E+03  0.78672360912E+02 0.  0.
         66    2    3    3    0    0  0.41296362525E+01 -0.39091871608E+02 -0.22180608725E+03  0.22527132231E+03  0.19999986373E+01 0.  0.
         13    1    3    3    0    0 -0.41296362525E+01  0.39091871608E+02 -0.21789894722E+03  0.22141632885E+03  0.10566000000E+00 0. -1.
         13    1    4    4    0    0  0.40573260615E+01 -0.34035285368E+02 -0.19447816914E+03  0.19747564908E+03  0.10566000000E+00 0. -1.
        -13    1    4    4    0    0 -0.24884684615E-02 -0.38126210911E+01 -0.19554574285E+02  0.19923067668E+02  0.10566000000E+00 0.  1.
         14    1    4    4    0    0  0.74798659453E-01 -0.12439651491E+01 -0.77733438258E+01  0.78726055640E+01  0.00000000000E+00 0. -1.
<mgrwt>
<rscale>  0 0.78672361E+02</rscale>
<asrwt>0</asrwt>
<pdfrwt beam="1">  1        1 0.68184008E-01 0.78672361E+02</pdfrwt>
<pdfrwt beam="2">  1       -2 0.53712471E-03 0.78672361E+02</pdfrwt>
<totfact> 0.20163084E+05</totfact>
</mgrwt>
</event>
<event>
 8    1  0.1319619E-020  0.7862804E+02  0.7818608E-02  0.1332991E+00
          1   -1    0    0  501    0  0.00000000000E+00  0.00000000000E+00  0.99486642106E+02  0.99486642233E+02  0.50400000000E-02 0. -1.
         -2   -1    0    0    0  501 -0.00000000000E+00 -0.00000000000E+00 -0.15535674128E+02  0.15535674338E+02  0.25500000000E-02 0.  1.
        -24    2    1    2    0    0  0.17763568394E-14  0.00000000000E+00  0.83950967977E+02  0.11502231657E+03  0.78628037525E+02 0.  0.
         66    2    3    3    0    0 -0.13310717250E+02 -0.17017886363E+02 -0.60009330363E+01  0.22512104648E+02  0.20000021028E+01 0.  0.
         13    1    3    3    0    0  0.13310717250E+02  0.17017886363E+02  0.89951901014E+02  0.92510211923E+02  0.10566000000E+00 0. -1.
         13    1    4    4    0    0 -0.10492676514E+02 -0.12919786047E+02 -0.43061227652E+01  0.17192178141E+02  0.10566000000E+00 0.  1.
        -13    1    4    4    0    0 -0.25900214280E+01 -0.32804001165E+01 -0.15485546844E+01  0.44585223525E+01  0.10566000000E+00 0. -1.
        -14    1    4    4    0    0 -0.22801930813E+00 -0.81770019953E+00 -0.14625558671E+00  0.86140415476E+00  0.00000000000E+00 0.  1.
<mgrwt>
<rscale>  0 0.78628038E+02</rscale>
<asrwt>0</asrwt>
<pdfrwt beam="1">  1        1 0.15305637E-01 0.78628038E+02</pdfrwt>
<pdfrwt beam="2">  1       -2 0.23901037E-02 0.78628038E+02</pdfrwt>
<totfact> 0.15388607E+05</totfact>
</mgrwt>
</event>
<event>
 8    1  0.1319619E-020  0.8255633E+02  0.7818608E-02  0.1321950E+00
         -2   -1    0    0    0  501 -0.00000000000E+00  0.00000000000E+00  0.10177924873E+02  0.10177925192E+02  0.25500000000E-02 0.  1.
          1   -1    0    0  501    0  0.00000000000E+00 -0.00000000000E+00 -0.16741004605E+03  0.16741004612E+03  0.50400000000E-02 0. -1.
        -24    2    1    2    0    0  0.00000000000E+00 -0.35527136788E-14 -0.15723212117E+03  0.17758797131E+03  0.82556330023E+02 0.  0.
         66    2    3    3    0    0  0.99019548579E+01 -0.31510565507E+02 -0.25493567200E+02  0.41771837459E+02  0.19999968800E+01 0.  0.
         13    1    3    3    0    0 -0.99019548579E+01  0.31510565507E+02 -0.13173855397E+03  0.13581613385E+03  0.10566000000E+00 0. -1.
         13    1    4    4    0    0  0.81053388339E+01 -0.24473988745E+02 -0.19359406856E+02  0.32240819477E+02  0.10566000000E+00 0. -1.
        -13    1    4    4    0    0  0.86183129046E+00 -0.34190865416E+01 -0.25427735108E+01  0.43485362037E+01  0.10566000000E+00 0.  1.
         14    1    4    4    0    0  0.93478473356E+00 -0.36174902206E+01 -0.35913868336E+01  0.51824817784E+01  0.00000000000E+00 0. -1.
<mgrwt>
<rscale>  0 0.82556330E+02</rscale>
<asrwt>0</asrwt>
<pdfrwt beam="1">  1        1 0.25755390E-01 0.82556330E+02</pdfrwt>
<pdfrwt beam="2">  1       -2 0.15658347E-02 0.82556330E+02</pdfrwt>
<totfact> 0.14816928E+05</totfact>
</mgrwt>
</event>
<event>
 8    1  0.1319619E-020  0.9018595E+02  0.7818608E-02  0.1302402E+00
         -2   -1    0    0    0  501 -0.00000000000E+00  0.00000000000E+00  0.18106418347E+03  0.18106418349E+03  0.25500000000E-02 0.  1.
          1   -1    0    0  501    0  0.00000000000E+00 -0.00000000000E+00 -0.11230140732E+02  0.11230141863E+02  0.50400000000E-02 0. -1.
        -24    2    1    2    0    0  0.00000000000E+00  0.00000000000E+00  0.16983404274E+03  0.19229432535E+03  0.90185949514E+02 0.  0.
         66    2    3    3    0    0  0.49851114674E+00 -0.36068763860E+02  0.14257408193E+03  0.14708015869E+03  0.20000006131E+01 0.  0.
         13    1    3    3    0    0 -0.49851114674E+00  0.36068763860E+02  0.27259960813E+02  0.45214166666E+02  0.10566000000E+00 0. -1.
         13    1    4    4    0    0  0.70339537674E+00 -0.24449840713E+02  0.94779664552E+02  0.97885062459E+02  0.10566000000E+00 0. -1.
        -13    1    4    4    0    0 -0.98410068942E-01 -0.10804012374E+02  0.45205596074E+02  0.46478957049E+02  0.10566000000E+00 0.  1.
         14    1    4    4    0    0 -0.10647416106E+00 -0.81491077241E+00  0.25888213010E+01  0.27161391796E+01  0.00000000000E+00 0. -1.
<mgrwt>
<rscale>  0 0.90185950E+02</rscale>
<asrwt>0</asrwt>
<pdfrwt beam="1">  1        1 0.17277143E-02 0.90185950E+02</pdfrwt>
<pdfrwt beam="2">  1       -2 0.27856024E-01 0.90185950E+02</pdfrwt>
<totfact> 0.64875562E+04</totfact>
</mgrwt>
</event>
<event>
 8    1  0.1319619E-020  0.7950357E+02  0.7818608E-02  0.1330466E+00
          1   -1    0    0  501    0  0.00000000000E+00  0.00000000000E+00  0.14732897719E+03  0.14732897728E+03  0.50400000000E-02 0. -1.
         -2   -1    0    0    0  501 -0.00000000000E+00 -0.00000000000E+00 -0.10725685689E+02  0.10725685992E+02  0.25500000000E-02 0.  1.
        -24    2    1    2    0    0  0.00000000000E+00 -0.35527136788E-14  0.13660329151E+03  0.15805466327E+03  0.79503568047E+02 0.  0.
         66    2    3    3    0    0 -0.10519826731E+02  0.27065738141E+02  0.14448569594E+02  0.32495879490E+02  0.20000212419E+01 0.  0.
         13    1    3    3    0    0  0.10519826731E+02 -0.27065738141E+02  0.12215472191E+03  0.12555878378E+03  0.10566000000E+00 0. -1.
         13    1    4    4    0    0 -0.28663473034E+01  0.81213347368E+01  0.38347293946E+01  0.94280612183E+01  0.10566000000E+00 0. -1.
        -13    1    4    4    0    0 -0.21599639953E+01  0.55040926310E+01  0.23687593376E+01  0.63704524947E+01  0.10566000000E+00 0.  1.
        -14    1    4    4    0    0 -0.54935154321E+01  0.13440310774E+02  0.82450808616E+01  0.16697365777E+02  0.00000000000E+00 0.  1.
<mgrwt>
<rscale>  0 0.79503568E+02</rscale>
<asrwt>0</asrwt>
<pdfrwt beam="1">  1        1 0.22665996E-01 0.79503568E+02</pdfrwt>
<pdfrwt beam="2">  1       -2 0.16501056E-02 0.79503568E+02</pdfrwt>
<totfact> 0.16000230E+05</totfact>
</mgrwt>
</event>
<event>
 8    1  0.1319619E-020  0.7729421E+02  0.7818608E-02  0.1336910E+00
          1   -1    0    0  501    0  0.00000000000E+00  0.00000000000E+00  0.51728593466E+02  0.51728593712E+02  0.50400000000E-02 0. -1.
         -2   -1    0    0    0  501 -0.00000000000E+00 -0.00000000000E+00 -0.28873752698E+02  0.28873752811E+02  0.25500000000E-02 0.  1.
        -24    2    1    2    0    0  0.00000000000E+00  0.35527136788E-14  0.22854840768E+02  0.80602346523E+02  0.77294207535E+02 0.  0.
         66    2    3    3    0    0  0.19627107385E+02 -0.30370468583E+02 -0.27103604736E+01  0.36317141490E+02  0.20000014577E+01 0.  0.
         13    1    3    3    0    0 -0.19627107385E+02  0.30370468583E+02  0.25565201242E+02  0.44285205033E+02  0.10566000000E+00 0. -1.
         13    1    4    4    0    0  0.43213821683E+00 -0.83377087409E+00 -0.29660513280E+00  0.99048268502E+00  0.10566000000E+00 0. -1.
        -13    1    4    4    0    0  0.16516288719E+02 -0.25730942210E+02 -0.24356767587E+01  0.30672672941E+02  0.10566000000E+00 0.  1.
        -14    1    4    4    0    0  0.26786804496E+01 -0.38057554986E+01  0.21921417899E-01  0.46539858632E+01  0.00000000000E+00 0.  1.
<mgrwt>
<rscale>  0 0.77294208E+02</rscale>
<asrwt>0</asrwt>
<pdfrwt beam="1">  1        1 0.79582451E-02 0.77294208E+02</pdfrwt>
<pdfrwt beam="2">  1       -2 0.44421159E-02 0.77294208E+02</pdfrwt>
<totfact> 0.14549654E+05</totfact>
</mgrwt>
</event>
<event>
 8    1  0.1319619E-020  0.7962231E+02  0.7818608E-02  0.1330127E+00
          1   -1    0    0  501    0  0.00000000000E+00  0.00000000000E+00  0.69624490312E+01  0.69624508554E+01  0.50400000000E-02 0. -1.
         -2   -1    0    0    0  501 -0.00000000000E+00 -0.00000000000E+00 -0.22763943487E+03  0.22763943489E+03  0.25500000000E-02 0.  1.
        -24    2    1    2    0    0  0.00000000000E+00  0.00000000000E+00 -0.22067698584E+03  0.23460188574E+03  0.79622312914E+02 0.  0.
         66    2    3    3    0    0 -0.10888370690E+02 -0.33083788527E+02 -0.16707064820E+03  0.17067423696E+03  0.19999979782E+01 0.  0.
         13    1    3    3    0    0  0.10888370690E+02  0.33083788527E+02 -0.53606337639E+02  0.63927648781E+02  0.10566000000E+00 0. -1.
         13    1    4    4    0    0 -0.41149805205E+01 -0.10888994944E+02 -0.57726322605E+02  0.58888392413E+02  0.10566000000E+00 0. -1.
        -13    1    4    4    0    0 -0.46960071262E+01 -0.16956626686E+02 -0.81778599842E+02  0.83650046191E+02  0.10566000000E+00 0.  1.
        -14    1    4    4    0    0 -0.20773830438E+01 -0.52381668971E+01 -0.27565725756E+02  0.28135798358E+02  0.00000000000E+00 0.  1.
<mgrwt>
<rscale>  0 0.79622313E+02</rscale>
<asrwt>0</asrwt>
<pdfrwt beam="1">  1        1 0.10711463E-02 0.79622313E+02</pdfrwt>
<pdfrwt beam="2">  1       -2 0.35021446E-01 0.79622313E+02</pdfrwt>
<totfact> 0.81508519E+04</totfact>
</mgrwt>
</event>
<event>
 8    1  0.1319619E-020  0.7313749E+02  0.7818608E-02  0.1349738E+00
         -2   -1    0    0    0  501 -0.00000000000E+00  0.00000000000E+00  0.39054409612E+03  0.39054409613E+03  0.25500000000E-02 0.  1.
          1   -1    0    0  501    0  0.00000000000E+00 -0.00000000000E+00 -0.34241261759E+01  0.34241298851E+01  0.50400000000E-02 0. -1.
        -24    2    1    2    0    0  0.00000000000E+00  0.00000000000E+00  0.38711996995E+03  0.39396822602E+03  0.73137486822E+02 0.  0.
         66    2    3    3    0    0 -0.29900974354E+02 -0.10264089924E+02  0.29242151059E+03  0.29413221458E+03  0.19999983835E+01 0.  0.
         13    1    3    3    0    0  0.29900974354E+02  0.10264089924E+02  0.94698459360E+02  0.99836011431E+02  0.10566000000E+00 0. -1.
         13    1    4    4    0    0 -0.13076329435E+02 -0.55087169510E+01  0.13138601661E+03  0.13215003927E+03  0.10566000000E+00 0. -1.
        -13    1    4    4    0    0 -0.11073198795E+02 -0.32518594197E+01  0.10547490574E+03  0.10610446374E+03  0.10566000000E+00 0.  1.
         14    1    4    4    0    0 -0.57514461243E+01 -0.15035135532E+01  0.55560588242E+02  0.55877711579E+02  0.00000000000E+00 0. -1.
<mgrwt>
<rscale>  0 0.73137487E+02</rscale>
<asrwt>0</asrwt>
<pdfrwt beam="1">  1        1 0.52678892E-03 0.73137487E+02</pdfrwt>
<pdfrwt beam="2">  1       -2 0.60083709E-01 0.73137487E+02</pdfrwt>
<totfact> 0.75617263E+04</totfact>
</mgrwt>
</event>
<event>
 8    1  0.1319619E-020  0.7965561E+02  0.7818608E-02  0.1330032E+00
          1   -1    0    0  501    0  0.00000000000E+00  0.00000000000E+00  0.62098294116E+02  0.62098294321E+02  0.50400000000E-02 0. -1.
         -2   -1    0    0    0  501 -0.00000000000E+00 -0.00000000000E+00 -0.25544243049E+02  0.25544243176E+02  0.25500000000E-02 0.  1.
        -24    2    1    2    0    0 -0.17763568394E-14  0.00000000000E+00  0.36554051067E+02  0.87642537497E+02  0.79655607018E+02 0.  0.
         66    2    3    3    0    0 -0.85689990820E+01  0.32902798146E+02 -0.44800500882E+01  0.34352477516E+02  0.19999979016E+01 0.  0.
         13    1    3    3    0    0  0.85689990820E+01 -0.32902798146E+02  0.41034101156E+02  0.53290059981E+02  0.10566000000E+00 0. -1.
         13    1    4    4    0    0 -0.29503649200E+01  0.98830688458E+01 -0.18037170073E+01  0.10471115607E+02  0.10566000000E+00 0. -1.
        -13    1    4    4    0    0 -0.48690293601E+01  0.21001088894E+02 -0.27079637594E+01  0.21727802775E+02  0.10566000000E+00 0.  1.
         14    1    4    4    0    0 -0.74960480202E+00  0.20186404055E+01  0.31630678432E-01  0.21535591345E+01  0.00000000000E+00 0. -1.
<mgrwt>
<rscale>  0 0.79655607E+02</rscale>
<asrwt>0</asrwt>
<pdfrwt beam="1">  1        1 0.95535837E-02 0.79655607E+02</pdfrwt>
<pdfrwt beam="2">  1       -2 0.39298836E-02 0.79655607E+02</pdfrwt>
<totfact> 0.13774075E+05</totfact>
</mgrwt>
</event>
<event>
 8    1  0.1319619E-020  0.8051805E+02  0.7818608E-02  0.1327588E+00
         -2   -1    0    0    0  501 -0.00000000000E+00  0.00000000000E+00  0.27073974114E+02  0.27073974234E+02  0.25500000000E-02 0.  1.
          1   -1    0    0  501    0  0.00000000000E+00 -0.00000000000E+00 -0.59865204266E+02  0.59865204478E+02  0.50400000000E-02 0. -1.
        -24    2    1    2    0    0  0.00000000000E+00  0.00000000000E+00 -0.32791230152E+02  0.86939178712E+02  0.80518047792E+02 0.  0.
         66    2    3    3    0    0  0.91560691425E+01 -0.21795883912E+02  0.18746510151E+02  0.30237820728E+02  0.20000004616E+01 0.  0.
         13    1    3    3    0    0 -0.91560691425E+01  0.21795883912E+02 -0.51537740303E+02  0.56701357984E+02  0.10566000000E+00 0. -1.
         13    1    4    4    0    0  0.74258183322E+00 -0.29023165494E+01  0.28261238556E+01  0.41198312119E+01  0.10566000000E+00 0. -1.
        -13    1    4    4    0    0  0.60285777537E+01 -0.13937717049E+02  0.12175033155E+02  0.19463974482E+02  0.10566000000E+00 0.  1.
         14    1    4    4    0    0  0.23849095556E+01 -0.49558503144E+01  0.37453531403E+01  0.66540150340E+01  0.00000000000E+00 0. -1.
<mgrwt>
<rscale>  0 0.80518048E+02</rscale>
<asrwt>0</asrwt>
<pdfrwt beam="1">  1        1 0.92100315E-02 0.80518048E+02</pdfrwt>
<pdfrwt beam="2">  1       -2 0.41652268E-02 0.80518048E+02</pdfrwt>
<totfact> 0.13294893E+05</totfact>
</mgrwt>
</event>
<event>
 8    1  0.1319619E-020  0.7953422E+02  0.7818608E-02  0.1330378E+00
         -2   -1    0    0    0  501 -0.00000000000E+00  0.00000000000E+00  0.14746192349E+03  0.14746192352E+03  0.25500000000E-02 0.  1.
          1   -1    0    0  501    0  0.00000000000E+00 -0.00000000000E+00 -0.10724278728E+02  0.10724279913E+02  0.50400000000E-02 0. -1.
        -24    2    1    2    0    0  0.17763568394E-14 -0.35527136788E-14  0.13673764477E+03  0.15818620343E+03  0.79534215650E+02 0.  0.
         66    2    3    3    0    0 -0.76150232312E+01  0.27238290124E+02  0.12394146715E+03  0.12714322752E+03  0.19999991153E+01 0.  0.
         13    1    3    3    0    0  0.76150232312E+01 -0.27238290124E+02  0.12796177611E+02  0.31042975907E+02  0.10566000000E+00 0. -1.
         13    1    4    4    0    0 -0.54394873896E+00  0.16431625617E+01  0.60507150670E+01  0.62942974423E+01  0.10566000000E+00 0. -1.
        -13    1    4    4    0    0 -0.19533312802E+01  0.82923788520E+01  0.39478378824E+02  0.40387282760E+02  0.10566000000E+00 0.  1.
        -14    1    4    4    0    0 -0.51177432120E+01  0.17302748710E+02  0.78412373264E+02  0.80461647319E+02  0.00000000000E+00 0.  1.
<mgrwt>
<rscale>  0 0.79534216E+02</rscale>
<asrwt>0</asrwt>
<pdfrwt beam="1">  1        1 0.16498891E-02 0.79534216E+02</pdfrwt>
<pdfrwt beam="2">  1       -2 0.22686451E-01 0.79534216E+02</pdfrwt>
<totfact> 0.96477061E+04</totfact>
</mgrwt>
</event>
<event>
 8    1  0.1319619E-020  0.8095583E+02  0.7818608E-02  0.1326361E+00
          1   -1    0    0  501    0  0.00000000000E+00  0.00000000000E+00  0.13260416088E+02  0.13260417046E+02  0.50400000000E-02 0. -1.
         -2   -1    0    0    0  501 -0.00000000000E+00 -0.00000000000E+00 -0.12356034107E+03  0.12356034110E+03  0.25500000000E-02 0.  1.
        -24    2    1    2    0    0 -0.88817841970E-15  0.00000000000E+00 -0.11029992498E+03  0.13682075814E+03  0.80955829979E+02 0.  0.
         66    2    3    3    0    0  0.79640850042E+01 -0.35992778150E+02 -0.83339751201E+02  0.91150539584E+02  0.20000017967E+01 0.  0.
         13    1    3    3    0    0 -0.79640850042E+01  0.35992778150E+02 -0.26960173783E+02  0.45670218561E+02  0.10566000000E+00 0. -1.
         13    1    4    4    0    0  0.41880395893E+01 -0.15447954103E+02 -0.36823705958E+02  0.40151904638E+02  0.10566000000E+00 0. -1.
        -13    1    4    4    0    0  0.35337786029E+01 -0.17536752228E+02 -0.39804134989E+02  0.43639495829E+02  0.10566000000E+00 0.  1.
         14    1    4    4    0    0  0.24226681193E+00 -0.30080718194E+01 -0.67119102542E+01  0.73591391167E+01  0.00000000000E+00 0. -1.
<mgrwt>
<rscale>  0 0.80955830E+02</rscale>
<asrwt>0</asrwt>
<pdfrwt beam="1">  1        1 0.20400642E-02 0.80955830E+02</pdfrwt>
<pdfrwt beam="2">  1       -2 0.19009282E-01 0.80955830E+02</pdfrwt>
<totfact> 0.97296611E+04</totfact>
</mgrwt>
</event>
<event>
 8    1  0.1319619E-020  0.8220054E+02  0.7818608E-02  0.1322920E+00
         -2   -1    0    0    0  501 -0.00000000000E+00  0.00000000000E+00  0.28718503304E+02  0.28718503417E+02  0.25500000000E-02 0.  1.
          1   -1    0    0  501    0  0.00000000000E+00 -0.00000000000E+00 -0.58820344534E+02  0.58820344750E+02  0.50400000000E-02 0. -1.
        -24    2    1    2    0    0  0.00000000000E+00 -0.17763568394E-14 -0.30101841230E+02  0.87538848167E+02  0.82200541926E+02 0.  0.
         66    2    3    3    0    0  0.28699802958E+02 -0.14906167423E+02  0.11909844262E+02  0.34521252984E+02  0.20000000427E+01 0.  0.
         13    1    3    3    0    0 -0.28699802958E+02  0.14906167423E+02 -0.42011685492E+02  0.53017595183E+02  0.10566000000E+00 0. -1.
         13    1    4    4    0    0  0.97530914794E+01 -0.54984350313E+01  0.41984664223E+01  0.11958004245E+02  0.10566000000E+00 0.  1.
        -13    1    4    4    0    0  0.47953962516E+01 -0.24595580796E+01  0.13041335790E+01  0.55459155767E+01  0.10566000000E+00 0. -1.
         14    1    4    4    0    0  0.14151315227E+02 -0.69481743120E+01  0.64072442607E+01  0.17017333162E+02  0.00000000000E+00 0. -1.
<mgrwt>
<rscale>  0 0.82200542E+02</rscale>
<asrwt>0</asrwt>
<pdfrwt beam="1">  1        1 0.90492838E-02 0.82200542E+02</pdfrwt>
<pdfrwt beam="2">  1       -2 0.44182313E-02 0.82200542E+02</pdfrwt>
<totfact> 0.12520774E+05</totfact>
</mgrwt>
</event>
<event>
 8    1  0.1319619E-020  0.8141871E+02  0.7818608E-02  0.1325073E+00
         -2   -1    0    0    0  501 -0.00000000000E+00  0.00000000000E+00  0.10930268564E+02  0.10930268862E+02  0.25500000000E-02 0.  1.
          1   -1    0    0  501    0  0.00000000000E+00 -0.00000000000E+00 -0.15162038009E+03  0.15162038017E+03  0.50400000000E-02 0. -1.
        -24    2    1    2    0    0  0.00000000000E+00  0.88817841970E-15 -0.14069011152E+03  0.16255064903E+03  0.81418708051E+02 0.  0.
         66    2    3    3    0    0 -0.29372401700E+02  0.46244466227E+01 -0.14946987370E+02  0.33339705519E+02  0.20000111126E+01 0.  0.
         13    1    3    3    0    0  0.29372401700E+02 -0.46244466227E+01 -0.12574312415E+03  0.12921094352E+03  0.10566000000E+00 0. -1.
         13    1    4    4    0    0 -0.14184562855E+02  0.23853807657E+01 -0.76938106375E+01  0.16312502902E+02  0.10566000000E+00 0. -1.
        -13    1    4    4    0    0 -0.57729947814E+01  0.11472249009E+01 -0.33820486702E+01  0.67891833796E+01  0.10566000000E+00 0.  1.
         14    1    4    4    0    0 -0.94148440633E+01  0.10918409562E+01 -0.38711280627E+01  0.10238019237E+02  0.00000000000E+00 0. -1.
<mgrwt>
<rscale>  0 0.81418708E+02</rscale>
<asrwt>0</asrwt>
<pdfrwt beam="1">  1        1 0.23326211E-01 0.81418708E+02</pdfrwt>
<pdfrwt beam="2">  1       -2 0.16815799E-02 0.81418708E+02</pdfrwt>
<totfact> 0.15093370E+05</totfact>
</mgrwt>
</event>
<event>
 8    1  0.1319619E-020  0.8275039E+02  0.7818608E-02  0.1321423E+00
         -2   -1    0    0    0  501 -0.00000000000E+00  0.00000000000E+00  0.17814773138E+03  0.17814773139E+03  0.25500000000E-02 0.  1.
          1   -1    0    0  501    0  0.00000000000E+00 -0.00000000000E+00 -0.96094780662E+01  0.96094793879E+01  0.50400000000E-02 0. -1.
        -24    2    1    2    0    0  0.00000000000E+00  0.00000000000E+00  0.16853825331E+03  0.18775721078E+03  0.82750391975E+02 0.  0.
         66    2    3    3    0    0 -0.99624960061E+01  0.40132717890E+02  0.84036009262E+02  0.93679972382E+02  0.20000002160E+01 0.  0.
         13    1    3    3    0    0  0.99624960061E+01 -0.40132717890E+02  0.84502244048E+02  0.94077238400E+02  0.10566000000E+00 0. -1.
         13    1    4    4    0    0 -0.30148487374E+01  0.11687401461E+02  0.22823213618E+02  0.25818499370E+02  0.10566000000E+00 0.  1.
        -13    1    4    4    0    0 -0.18774543745E+01  0.86896245916E+01  0.17864680663E+02  0.19954758573E+02  0.10566000000E+00 0.  1.
        -14    1    4    4    0    0 -0.50701928942E+01  0.19755691838E+02  0.43348114980E+02  0.47906714439E+02  0.00000000000E+00 0.  1.
<mgrwt>
<rscale>  0 0.82750392E+02</rscale>
<asrwt>0</asrwt>
<pdfrwt beam="1">  1        1 0.14783816E-02 0.82750392E+02</pdfrwt>
<pdfrwt beam="2">  1       -2 0.27407339E-01 0.82750392E+02</pdfrwt>
<totfact> 0.81560721E+04</totfact>
</mgrwt>
</event>
<event>
 8    1  0.1319619E-020  0.8034066E+02  0.7818608E-02  0.1328087E+00
         -2   -1    0    0    0  501 -0.00000000000E+00  0.00000000000E+00  0.53328478928E+02  0.53328478989E+02  0.25500000000E-02 0.  1.
          1   -1    0    0  501    0  0.00000000000E+00 -0.00000000000E+00 -0.30258793588E+02  0.30258794008E+02  0.50400000000E-02 0. -1.
        -24    2    1    2    0    0  0.35527136788E-14  0.00000000000E+00  0.23069685340E+02  0.83587272997E+02  0.80340661097E+02 0.  0.
         66    2    3    3    0    0 -0.31664379243E+02 -0.21467798489E+02  0.24205575807E+02  0.45314558226E+02  0.20000005643E+01 0.  0.
         13    1    3    3    0    0  0.31664379243E+02  0.21467798489E+02 -0.11358904672E+01  0.38272714771E+02  0.10566000000E+00 0. -1.
         13    1    4    4    0    0 -0.36268689673E+00 -0.16065691079E+00  0.35629815323E+00  0.54356677386E+00  0.10566000000E+00 0.  1.
        -13    1    4    4    0    0 -0.44123089206E+01 -0.27583172215E+01  0.27985351939E+01  0.59092932888E+01  0.10566000000E+00 0. -1.
        -14    1    4    4    0    0 -0.26889383425E+02 -0.18548824357E+02  0.21050742460E+02  0.38861698163E+02  0.00000000000E+00 0.  1.
<mgrwt>
<rscale>  0 0.80340661E+02</rscale>
<asrwt>0</asrwt>
<pdfrwt beam="1">  1        1 0.46551991E-02 0.80340661E+02</pdfrwt>
<pdfrwt beam="2">  1       -2 0.82043814E-02 0.80340661E+02</pdfrwt>
<totfact> 0.11966181E+05</totfact>
</mgrwt>
</event>
<event>
 8    1  0.1319619E-020  0.8041876E+02  0.7818608E-02  0.1327867E+00
         -2   -1    0    0    0  501 -0.00000000000E+00  0.00000000000E+00  0.16034964552E+03  0.16034964554E+03  0.25500000000E-02 0.  1.
          1   -1    0    0  501    0  0.00000000000E+00 -0.00000000000E+00 -0.10082929545E+02  0.10082930805E+02  0.50400000000E-02 0. -1.
        -24    2    1    2    0    0  0.00000000000E+00  0.00000000000E+00  0.15026671597E+03  0.17043257634E+03  0.80418761179E+02 0.  0.
         66    2    3    3    0    0  0.16537258381E+02  0.24166643422E+02  0.13350056700E+03  0.13668909572E+03  0.19999826809E+01 0.  0.
         13    1    3    3    0    0 -0.16537258381E+02 -0.24166643422E+02  0.16766148973E+02  0.33743480621E+02  0.10566000000E+00 0. -1.
         13    1    4    4    0    0  0.31656472607E+01  0.47712903700E+01  0.24926972685E+02  0.25576388832E+02  0.10566000000E+00 0.  1.
        -13    1    4    4    0    0  0.10177712307E+02  0.15939663946E+02  0.86762266539E+02  0.88799553904E+02  0.10566000000E+00 0. -1.
        -14    1    4    4    0    0  0.31938988128E+01  0.34556891056E+01  0.21811327778E+02  0.22313152988E+02  0.00000000000E+00 0.  1.
<mgrwt>
<rscale>  0 0.80418761E+02</rscale>
<asrwt>0</asrwt>
<pdfrwt beam="1">  1        1 0.15512202E-02 0.80418761E+02</pdfrwt>
<pdfrwt beam="2">  1       -2 0.24669174E-01 0.80418761E+02</pdfrwt>
<totfact> 0.91177406E+04</totfact>
</mgrwt>
</event>
<event>
 8    1  0.1319619E-020  0.7202648E+02  0.7818608E-02  0.1353334E+00
          1   -1    0    0  501    0  0.00000000000E+00  0.00000000000E+00  0.47623570123E+01  0.47623596793E+01  0.50400000000E-02 0. -1.
         -2   -1    0    0    0  501 -0.00000000000E+00 -0.00000000000E+00 -0.27233425468E+03  0.27233425469E+03  0.25500000000E-02 0.  1.
        -24    2    1    2    0    0  0.00000000000E+00 -0.88817841970E-15 -0.26757189767E+03  0.27709661437E+03  0.72026476205E+02 0.  0.
         66    2    3    3    0    0 -0.25286563975E+02 -0.56461069588E+01 -0.22996436498E+03  0.23142795422E+03  0.19999977249E+01 0.  0.
         13    1    3    3    0    0  0.25286563975E+02  0.56461069588E+01 -0.37607532691E+02  0.45668660158E+02  0.10566000000E+00 0. -1.
         13    1    4    4    0    0 -0.71074973268E+01 -0.21349618508E+01 -0.71103435562E+02  0.71489749566E+02  0.10566000000E+00 0. -1.
        -13    1    4    4    0    0 -0.87026718058E+01 -0.14735571835E+01 -0.78575662262E+02  0.79069929375E+02  0.10566000000E+00 0.  1.
         14    1    4    4    0    0 -0.94763948425E+01 -0.20375879245E+01 -0.80285267155E+02  0.80868275275E+02  0.00000000000E+00 0. -1.
<mgrwt>
<rscale>  0 0.72026476E+02</rscale>
<asrwt>0</asrwt>
<pdfrwt beam="1">  1        1 0.73267073E-03 0.72026476E+02</pdfrwt>
<pdfrwt beam="2">  1       -2 0.41897566E-01 0.72026476E+02</pdfrwt>
<totfact> 0.96851316E+04</totfact>
</mgrwt>
</event>
<event>
 8    1  0.1319619E-020  0.8193380E+02  0.7818608E-02  0.1323651E+00
          1   -1    0    0  501    0  0.00000000000E+00  0.00000000000E+00  0.61465842440E+02  0.61465842646E+02  0.50400000000E-02 0. -1.
         -2   -1    0    0    0  501 -0.00000000000E+00 -0.00000000000E+00 -0.27304384804E+02  0.27304384923E+02  0.25500000000E-02 0.  1.
        -24    2    1    2    0    0  0.88817841970E-15  0.00000000000E+00  0.34161457636E+02  0.88770227569E+02  0.81933803249E+02 0.  0.
         66    2    3    3    0    0 -0.65770641527E+01  0.36144715043E+02 -0.24886207651E+01  0.36876705727E+02  0.19999983870E+01 0.  0.
         13    1    3    3    0    0  0.65770641527E+01 -0.36144715043E+02  0.36650078401E+02  0.51893521843E+02  0.10566000000E+00 0. -1.
         13    1    4    4    0    0 -0.56782648329E+00  0.56847139494E+01 -0.91665562867E+00  0.57870390683E+01  0.10566000000E+00 0. -1.
        -13    1    4    4    0    0 -0.20152736189E+01  0.94906916604E+01 -0.59127961758E+00  0.97208709267E+01  0.10566000000E+00 0.  1.
         14    1    4    4    0    0 -0.39939640504E+01  0.20969309433E+02 -0.98068551881E+00  0.21368795732E+02  0.00000000000E+00 0. -1.
<mgrwt>
<rscale>  0 0.81933803E+02</rscale>
<asrwt>0</asrwt>
<pdfrwt beam="1">  1        1 0.94562833E-02 0.81933803E+02</pdfrwt>
<pdfrwt beam="2">  1       -2 0.42006747E-02 0.81933803E+02</pdfrwt>
<totfact> 0.12723186E+05</totfact>
</mgrwt>
</event>
<event>
 8    1  0.1319619E-020  0.7996164E+02  0.7818608E-02  0.1329160E+00
          1   -1    0    0  501    0  0.00000000000E+00  0.00000000000E+00  0.22975367973E+02  0.22975368525E+02  0.50400000000E-02 0. -1.
         -2   -1    0    0    0  501 -0.00000000000E+00 -0.00000000000E+00 -0.69573035543E+02  0.69573035590E+02  0.25500000000E-02 0.  1.
        -24    2    1    2    0    0 -0.17763568394E-14  0.00000000000E+00 -0.46597667571E+02  0.92548404116E+02  0.79961643813E+02 0.  0.
         66    2    3    3    0    0  0.12158932947E+02 -0.12857273168E+02 -0.64775665349E+02  0.67179133511E+02  0.20000085587E+01 0.  0.
         13    1    3    3    0    0 -0.12158932947E+02  0.12857273168E+02  0.18177997778E+02  0.25369270604E+02  0.10566000000E+00 0. -1.
         13    1    4    4    0    0  0.34387465868E+01 -0.26909849101E+01 -0.16221133562E+02  0.16798890319E+02  0.10566000000E+00 0. -1.
        -13    1    4    4    0    0  0.26841193894E+01 -0.38329413292E+01 -0.15998097354E+02  0.16668719780E+02  0.10566000000E+00 0.  1.
        -14    1    4    4    0    0  0.60360669708E+01 -0.63333469288E+01 -0.32556434433E+02  0.33711523412E+02  0.00000000000E+00 0.  1.
<mgrwt>
<rscale>  0 0.79961644E+02</rscale>
<asrwt>0</asrwt>
<pdfrwt beam="1">  1        1 0.35346721E-02 0.79961644E+02</pdfrwt>
<pdfrwt beam="2">  1       -2 0.10703544E-01 0.79961644E+02</pdfrwt>
<totfact> 0.11519257E+05</totfact>
</mgrwt>
</event>
<event>
 8    1  0.1319619E-020  0.7904011E+02  0.7818608E-02  0.1331798E+00
          1   -1    0    0  501    0  0.00000000000E+00  0.00000000000E+00  0.29772640168E+02  0.29772640595E+02  0.50400000000E-02 0. -1.
         -2   -1    0    0    0  501 -0.00000000000E+00 -0.00000000000E+00 -0.52458718472E+02  0.52458718534E+02  0.25500000000E-02 0.  1.
        -24    2    1    2    0    0  0.35527136788E-14  0.00000000000E+00 -0.22686078304E+02  0.82231359129E+02  0.79040105487E+02 0.  0.
         66    2    3    3    0    0  0.28710440877E+02  0.21700321923E+02  0.55741703431E+01  0.36472794854E+02  0.20000006258E+01 0.  0.
         13    1    3    3    0    0 -0.28710440877E+02 -0.21700321923E+02 -0.28260248647E+02  0.45758564275E+02  0.10566000000E+00 0. -1.
         13    1    4    4    0    0  0.28018489655E+01  0.18407020585E+01  0.92355695234E+00  0.34788882094E+01  0.10566000000E+00 0. -1.
        -13    1    4    4    0    0  0.88818388471E+01  0.74726596124E+01  0.15300901498E+01  0.11708118674E+02  0.10566000000E+00 0.  1.
        -14    1    4    4    0    0  0.17026753064E+02  0.12386960253E+02  0.31205232409E+01  0.21285787970E+02  0.00000000000E+00 0.  1.
<mgrwt>
<rscale>  0 0.79040105E+02</rscale>
<asrwt>0</asrwt>
<pdfrwt beam="1">  1        1 0.45804062E-02 0.79040105E+02</pdfrwt>
<pdfrwt beam="2">  1       -2 0.80705721E-02 0.79040105E+02</pdfrwt>
<totfact> 0.12504594E+05</totfact>
</mgrwt>
</event>
<event>
 8    1  0.1319619E-020  0.7737364E+02  0.7818608E-02  0.1336674E+00
          1   -1    0    0  501    0  0.00000000000E+00  0.00000000000E+00  0.20661191894E+02  0.20661192509E+02  0.50400000000E-02 0. -1.
         -2   -1    0    0    0  501 -0.00000000000E+00 -0.00000000000E+00 -0.72438710460E+02  0.72438710505E+02  0.25500000000E-02 0.  1.
        -24    2    1    2    0    0  0.00000000000E+00 -0.35527136788E-14 -0.51777518566E+02  0.93099903014E+02  0.77373642233E+02 0.  0.
         66    2    3    3    0    0  0.19249566844E+02  0.27831021350E+02 -0.48402412482E+02  0.59092343881E+02  0.19999995478E+01 0.  0.
         13    1    3    3    0    0 -0.19249566844E+02 -0.27831021350E+02 -0.33751060839E+01  0.34007559133E+02  0.10566000000E+00 0. -1.
         13    1    4    4    0    0  0.41027331899E+01  0.65348411044E+01 -0.11727294416E+02  0.14038417512E+02  0.10566000000E+00 0. -1.
        -13    1    4    4    0    0  0.59353671070E+01  0.86699651108E+01 -0.15841487095E+02  0.19009491186E+02  0.10566000000E+00 0.  1.
         14    1    4    4    0    0  0.92114665471E+01  0.12626215135E+02 -0.20833630970E+02  0.26044435183E+02  0.00000000000E+00 0. -1.
<mgrwt>
<rscale>  0 0.77373642E+02</rscale>
<asrwt>0</asrwt>
<pdfrwt beam="1">  1        1 0.31786450E-02 0.77373642E+02</pdfrwt>
<pdfrwt beam="2">  1       -2 0.11144417E-01 0.77373642E+02</pdfrwt>
<totfact> 0.12421922E+05</totfact>
</mgrwt>
</event>
<event>
 8    1  0.1319619E-020  0.7649997E+02  0.7818608E-02  0.1339288E+00
         -2   -1    0    0    0  501 -0.00000000000E+00  0.00000000000E+00  0.88783294560E+02  0.88783294597E+02  0.25500000000E-02 0.  1.
          1   -1    0    0  501    0  0.00000000000E+00 -0.00000000000E+00 -0.16479013874E+02  0.16479014644E+02  0.50400000000E-02 0. -1.
        -24    2    1    2    0    0 -0.88817841970E-15 -0.35527136788E-14  0.72304280686E+02  0.10526230924E+03  0.76499965629E+02 0.  0.
         66    2    3    3    0    0  0.63681461663E+01  0.19133502828E+02  0.80857159243E+02  0.83357809436E+02  0.19999942887E+01 0.  0.
         13    1    3    3    0    0 -0.63681461663E+01 -0.19133502828E+02 -0.85528785561E+01  0.21904499805E+02  0.10566000000E+00 0. -1.
         13    1    4    4    0    0  0.56427003960E+00  0.18364255076E+01  0.57314966996E+01  0.60458314379E+01  0.10566000000E+00 0. -1.
        -13    1    4    4    0    0  0.24340068729E+00  0.10729493765E+01  0.45921004621E+01  0.47232419956E+01  0.10566000000E+00 0.  1.
         14    1    4    4    0    0  0.55604754395E+01  0.16224127944E+02  0.70533562081E+02  0.72588736003E+02  0.00000000000E+00 0. -1.
<mgrwt>
<rscale>  0 0.76499966E+02</rscale>
<asrwt>0</asrwt>
<pdfrwt beam="1">  1        1 0.25352329E-02 0.76499966E+02</pdfrwt>
<pdfrwt beam="2">  1       -2 0.13658969E-01 0.76499966E+02</pdfrwt>
<totfact> 0.12239603E+05</totfact>
</mgrwt>
</event>
<event>
 8    1  0.1319619E-020  0.8038004E+02  0.7818608E-02  0.1327976E+00
          1   -1    0    0  501    0  0.00000000000E+00  0.00000000000E+00  0.33332947632E+02  0.33332948013E+02  0.50400000000E-02 0. -1.
         -2   -1    0    0    0  501 -0.00000000000E+00 -0.00000000000E+00 -0.48457690660E+02  0.48457690727E+02  0.25500000000E-02 0.  1.
        -24    2    1    2    0    0  0.00000000000E+00  0.00000000000E+00 -0.15124743028E+02  0.81790638741E+02  0.80380039400E+02 0.  0.
         66    2    3    3    0    0  0.82129214118E+01  0.34603762129E+02 -0.26558996557E+02  0.44432563986E+02  0.20000031533E+01 0.  0.
         13    1    3    3    0    0 -0.82129214118E+01 -0.34603762129E+02  0.11434253529E+02  0.37358074755E+02  0.10566000000E+00 0. -1.
         13    1    4    4    0    0  0.46125199780E+01  0.18144081066E+02 -0.14416433776E+02  0.23628959883E+02  0.10566000000E+00 0. -1.
        -13    1    4    4    0    0  0.34155936159E+01  0.15996595923E+02 -0.11993143346E+02  0.20283096712E+02  0.10566000000E+00 0.  1.
         14    1    4    4    0    0  0.18480781783E+00  0.46308514021E+00 -0.14941943474E+00  0.52050739101E+00  0.00000000000E+00 0. -1.
<mgrwt>
<rscale>  0 0.80380039E+02</rscale>
<asrwt>0</asrwt>
<pdfrwt beam="1">  1        1 0.51281458E-02 0.80380039E+02</pdfrwt>
<pdfrwt beam="2">  1       -2 0.74550294E-02 0.80380039E+02</pdfrwt>
<totfact> 0.12152799E+05</totfact>
</mgrwt>
</event>
<event>
 8    1  0.1319619E-020  0.8099851E+02  0.7818608E-02  0.1326241E+00
         -2   -1    0    0    0  501 -0.00000000000E+00  0.00000000000E+00  0.77635234310E+01  0.77635238498E+01  0.25500000000E-02 0.  1.
          1   -1    0    0  501    0  0.00000000000E+00 -0.00000000000E+00 -0.21126873183E+03  0.21126873189E+03  0.50400000000E-02 0. -1.
        -24    2    1    2    0    0  0.00000000000E+00 -0.71054273576E-14 -0.20350520840E+03  0.21903225574E+03  0.80998513621E+02 0.  0.
         66    2    3    3    0    0 -0.82073207477E+01  0.32078817132E+02 -0.38872519025E+02  0.51102674674E+02  0.20000002591E+01 0.  0.
         13    1    3    3    0    0  0.82073207477E+01 -0.32078817132E+02 -0.16463268937E+03  0.16792958106E+03  0.10566000000E+00 0. -1.
         13    1    4    4    0    0 -0.10468344329E+01  0.26911158762E+01 -0.39530326514E+01  0.48964883506E+01  0.10566000000E+00 0.  1.
        -13    1    4    4    0    0 -0.30333891828E+01  0.13604094933E+02 -0.15603909009E+02  0.20922858057E+02  0.10566000000E+00 0.  1.
         14    1    4    4    0    0 -0.41270971320E+01  0.15783606323E+02 -0.19315577365E+02  0.25283328266E+02  0.00000000000E+00 0. -1.
<mgrwt>
<rscale>  0 0.80998514E+02</rscale>
<asrwt>0</asrwt>
<pdfrwt beam="1">  1        1 0.32502878E-01 0.80998514E+02</pdfrwt>
<pdfrwt beam="2">  1       -2 0.11943884E-02 0.80998514E+02</pdfrwt>
<totfact> 0.16306852E+05</totfact>
</mgrwt>
</event>
<event>
 8    1  0.1319619E-020  0.7993739E+02  0.7818608E-02  0.1329229E+00
          1   -1    0    0  501    0  0.00000000000E+00  0.00000000000E+00  0.20546218566E+02  0.20546219184E+02  0.50400000000E-02 0. -1.
         -2   -1    0    0    0  501 -0.00000000000E+00 -0.00000000000E+00 -0.77751360709E+02  0.77751360751E+02  0.25500000000E-02 0.  1.
        -24    2    1    2    0    0  0.35527136788E-14  0.00000000000E+00 -0.57205142143E+02  0.98297579935E+02  0.79937387583E+02 0.  0.
         66    2    3    3    0    0  0.24379697766E+02 -0.47346047754E+01 -0.67090131270E+02  0.71567254093E+02  0.19999997557E+01 0.  0.
         13    1    3    3    0    0 -0.24379697766E+02  0.47346047754E+01  0.98849891272E+01  0.26730325842E+02  0.10566000000E+00 0. -1.
         13    1    4    4    0    0  0.10189223173E+01 -0.14484391009E+00 -0.37032036007E+01  0.38450049923E+01  0.10566000000E+00 0.  1.
        -13    1    4    4    0    0  0.16643789973E+02 -0.32312115037E+01 -0.43483627265E+02  0.46672191684E+02  0.10566000000E+00 0.  1.
        -14    1    4    4    0    0  0.67169854761E+01 -0.13585493616E+01 -0.19903300405E+02  0.21050057417E+02  0.00000000000E+00 0.  1.
<mgrwt>
<rscale>  0 0.79937388E+02</rscale>
<asrwt>0</asrwt>
<pdfrwt beam="1">  1        1 0.31609568E-02 0.79937388E+02</pdfrwt>
<pdfrwt beam="2">  1       -2 0.11961748E-01 0.79937388E+02</pdfrwt>
<totfact> 0.11266944E+05</totfact>
</mgrwt>
</event>
<event>
 8    1  0.1319619E-020  0.8123975E+02  0.7818608E-02  0.1325570E+00
          1   -1    0    0  501    0  0.00000000000E+00  0.00000000000E+00  0.87950950812E+01  0.87950965253E+01  0.50400000000E-02 0. -1.
         -2   -1    0    0    0  501 -0.00000000000E+00 -0.00000000000E+00 -0.18760163990E+03  0.18760163992E+03  0.25500000000E-02 0.  1.
        -24    2    1    2    0    0  0.44408920985E-15  0.00000000000E+00 -0.17880654482E+03  0.19639673645E+03  0.81239753910E+02 0.  0.
         66    2    3    3    0    0  0.26482669619E+01 -0.31215867385E+02 -0.15187017167E+03  0.15508060089E+03  0.20000088905E+01 0.  0.
         13    1    3    3    0    0 -0.26482669619E+01  0.31215867385E+02 -0.26936373153E+02  0.41316135554E+02  0.10566000000E+00 0. -1.
         13    1    4    4    0    0  0.20861033690E+01 -0.15431097234E+02 -0.73049009548E+02  0.74690290863E+02  0.10566000000E+00 0. -1.
        -13    1    4    4    0    0  0.40603908099E+00 -0.67209472455E+01 -0.32443278833E+02  0.33134777879E+02  0.10566000000E+00 0.  1.
         14    1    4    4    0    0  0.15612451193E+00 -0.90638229055E+01 -0.46377883288E+02  0.47255532151E+02  0.00000000000E+00 0. -1.
<mgrwt>
<rscale>  0 0.81239754E+02</rscale>
<asrwt>0</asrwt>
<pdfrwt beam="1">  1        1 0.13530918E-02 0.81239754E+02</pdfrwt>
<pdfrwt beam="2">  1       -2 0.28861788E-01 0.81239754E+02</pdfrwt>
<totfact> 0.83867970E+04</totfact>
</mgrwt>
</event>
<event>
 8    1  0.1319619E-020  0.8080290E+02  0.7818608E-02  0.1326788E+00
          1   -1    0    0  501    0  0.00000000000E+00  0.00000000000E+00  0.12124885913E+03  0.12124885924E+03  0.50400000000E-02 0. -1.
         -2   -1    0    0    0  501 -0.00000000000E+00 -0.00000000000E+00 -0.13462207818E+02  0.13462208060E+02  0.25500000000E-02 0.  1.
        -24    2    1    2    0    0 -0.35527136788E-14  0.00000000000E+00  0.10778665131E+03  0.13471106730E+03  0.80802904964E+02 0.  0.
         66    2    3    3    0    0  0.27780669995E+02 -0.98597271667E+00  0.51057607461E+01  0.28333841259E+02  0.20000000246E+01 0.  0.
         13    1    3    3    0    0 -0.27780669995E+02  0.98597271667E+00  0.10268089057E+03  0.10637722604E+03  0.10566000000E+00 0. -1.
         13    1    4    4    0    0  0.10261307764E+01  0.27084162800E+00  0.16022835562E+00  0.10784881637E+01  0.10566000000E+00 0. -1.
        -13    1    4    4    0    0  0.23456248628E+02 -0.89740989543E+00  0.45940174352E+01  0.23918969552E+02  0.10566000000E+00 0.  1.
        -14    1    4    4    0    0  0.32982905913E+01 -0.35940444925E+00  0.35151495524E+00  0.33363835431E+01  0.00000000000E+00 0.  1.
<mgrwt>
<rscale>  0 0.80802905E+02</rscale>
<asrwt>0</asrwt>
<pdfrwt beam="1">  1        1 0.18653671E-01 0.80802905E+02</pdfrwt>
<pdfrwt beam="2">  1       -2 0.20711089E-02 0.80802905E+02</pdfrwt>
<totfact> 0.14791425E+05</totfact>
</mgrwt>
</event>
<event>
 8    1  0.1319619E-020  0.8120492E+02  0.7818608E-02  0.1325666E+00
          1   -1    0    0  501    0  0.00000000000E+00  0.00000000000E+00  0.42266387390E+03  0.42266387393E+03  0.50400000000E-02 0. -1.
         -2   -1    0    0    0  501 -0.00000000000E+00 -0.00000000000E+00 -0.39004034684E+01  0.39004043020E+01  0.25500000000E-02 0.  1.
        -24    2    1    2    0    0  0.00000000000E+00  0.00000000000E+00  0.41876347043E+03  0.42656427823E+03  0.81204921622E+02 0.  0.
         66    2    3    3    0    0  0.38958992488E+02  0.22478736438E+01  0.26793153015E+03  0.27076587835E+03  0.20000000943E+01 0.  0.
         13    1    3    3    0    0 -0.38958992488E+02 -0.22478736438E+01  0.15083194028E+03  0.15579839988E+03  0.10566000000E+00 0. -1.
         13    1    4    4    0    0  0.17749998829E+02  0.15033007787E+01  0.12479494586E+03  0.12605995418E+03  0.10566000000E+00 0. -1.
        -13    1    4    4    0    0  0.10110671195E+02  0.67979109343E-01  0.71569285401E+02  0.72280039222E+02  0.10566000000E+00 0.  1.
         14    1    4    4    0    0  0.11098322464E+02  0.67659375573E+00  0.71567298887E+02  0.72425884948E+02  0.00000000000E+00 0. -1.
<mgrwt>
<rscale>  0 0.81204922E+02</rscale>
<asrwt>0</asrwt>
<pdfrwt beam="1">  1        1 0.65025237E-01 0.81204922E+02</pdfrwt>
<pdfrwt beam="2">  1       -2 0.60006191E-03 0.81204922E+02</pdfrwt>
<totfact> 0.18422990E+05</totfact>
</mgrwt>
</event>
<event>
 8    1  0.1319619E-020  0.8053699E+02  0.7818608E-02  0.1327534E+00
         -2   -1    0    0    0  501 -0.00000000000E+00  0.00000000000E+00  0.53158554266E+02  0.53158554327E+02  0.25500000000E-02 0.  1.
          1   -1    0    0  501    0  0.00000000000E+00 -0.00000000000E+00 -0.30504057977E+02  0.30504058393E+02  0.50400000000E-02 0. -1.
        -24    2    1    2    0    0  0.00000000000E+00  0.00000000000E+00  0.22654496289E+02  0.83662612720E+02  0.80536988800E+02 0.  0.
         66    2    3    3    0    0  0.24948593495E+02 -0.27369736082E+02  0.27693799622E+02  0.46286945332E+02  0.20000000228E+01 0.  0.
         13    1    3    3    0    0 -0.24948593495E+02  0.27369736082E+02 -0.50393033325E+01  0.37375667388E+02  0.10566000000E+00 0. -1.
         13    1    4    4    0    0  0.87124119472E+01 -0.10777414272E+02  0.10580225766E+02  0.17435914705E+02  0.10566000000E+00 0. -1.
        -13    1    4    4    0    0  0.48384390409E+01 -0.51836666151E+01  0.56006883215E+01  0.90365793107E+01  0.10566000000E+00 0.  1.
         14    1    4    4    0    0  0.11397742507E+02 -0.11408655195E+02  0.11512885534E+02  0.19814451316E+02  0.00000000000E+00 0. -1.
<mgrwt>
<rscale>  0 0.80536989E+02</rscale>
<asrwt>0</asrwt>
<pdfrwt beam="1">  1        1 0.46929321E-02 0.80536989E+02</pdfrwt>
<pdfrwt beam="2">  1       -2 0.81782390E-02 0.80536989E+02</pdfrwt>
<totfact> 0.11899547E+05</totfact>
</mgrwt>
</event>
<event>
 8    1  0.1319619E-020  0.7975574E+02  0.7818608E-02  0.1329746E+00
         -2   -1    0    0    0  501 -0.00000000000E+00  0.00000000000E+00  0.10687904678E+03  0.10687904681E+03  0.25500000000E-02 0.  1.
          1   -1    0    0  501    0  0.00000000000E+00 -0.00000000000E+00 -0.14878918771E+02  0.14878919624E+02  0.50400000000E-02 0. -1.
        -24    2    1    2    0    0  0.17763568394E-14 -0.35527136788E-14  0.92000128006E+02  0.12175796643E+03  0.79755744849E+02 0.  0.
         66    2    3    3    0    0 -0.73312031807E+01  0.13469673422E+02  0.10218464476E+03  0.10334834428E+03  0.19999998206E+01 0.  0.
         13    1    3    3    0    0  0.73312031807E+01 -0.13469673422E+02 -0.10184516752E+02  0.18409622149E+02  0.10566000000E+00 0. -1.
         13    1    4    4    0    0 -0.18418928862E+01  0.37289985369E+01  0.28626785755E+02  0.28927530593E+02  0.10566000000E+00 0. -1.
        -13    1    4    4    0    0 -0.16111331330E+01  0.25677048023E+01  0.15599204358E+02  0.15891356096E+02  0.10566000000E+00 0.  1.
        -14    1    4    4    0    0 -0.38781771615E+01  0.71729700828E+01  0.57958654645E+02  0.58529457593E+02  0.00000000000E+00 0.  1.
<mgrwt>
<rscale>  0 0.79755745E+02</rscale>
<asrwt>0</asrwt>
<pdfrwt beam="1">  1        1 0.22890646E-02 0.79755745E+02</pdfrwt>
<pdfrwt beam="2">  1       -2 0.16442930E-01 0.79755745E+02</pdfrwt>
<totfact> 0.10517228E+05</totfact>
</mgrwt>
</event>
<event>
 8    1  0.1319619E-020  0.8163199E+02  0.7818608E-02  0.1324483E+00
         -2   -1    0    0    0  501 -0.00000000000E+00  0.00000000000E+00  0.16056630739E+03  0.16056630741E+03  0.25500000000E-02 0.  1.
          1   -1    0    0  501    0  0.00000000000E+00 -0.00000000000E+00 -0.10375435998E+02  0.10375437222E+02  0.50400000000E-02 0. -1.
        -24    2    1    2    0    0  0.00000000000E+00 -0.35527136788E-14  0.15019087139E+03  0.17094174463E+03  0.81631992553E+02 0.  0.
         66    2    3    3    0    0 -0.20221633837E+02  0.28511065942E+02  0.11917256777E+03  0.12420908282E+03  0.19999974302E+01 0.  0.
         13    1    3    3    0    0  0.20221633837E+02 -0.28511065942E+02  0.31018303613E+02  0.46732661804E+02  0.10566000000E+00 0. -1.
         13    1    4    4    0    0 -0.13914483753E+02  0.19830924714E+02  0.83542613743E+02  0.86984239425E+02  0.10566000000E+00 0. -1.
        -13    1    4    4    0    0 -0.46781269176E+01  0.59042055753E+01  0.26137842179E+02  0.27201883625E+02  0.10566000000E+00 0.  1.
         14    1    4    4    0    0 -0.16290231663E+01  0.27759356526E+01  0.94921118528E+01  0.10022959775E+02  0.00000000000E+00 0. -1.
<mgrwt>
<rscale>  0 0.81631993E+02</rscale>
<asrwt>0</asrwt>
<pdfrwt beam="1">  1        1 0.15962211E-02 0.81631993E+02</pdfrwt>
<pdfrwt beam="2">  1       -2 0.24702508E-01 0.81631993E+02</pdfrwt>
<totfact> 0.87685075E+04</totfact>
</mgrwt>
</event>
<event>
 8    1  0.1319619E-020  0.8441585E+02  0.7818608E-02  0.1316967E+00
         -2   -1    0    0    0  501 -0.00000000000E+00  0.00000000000E+00  0.14924949786E+02  0.14924950004E+02  0.25500000000E-02 0.  1.
          1   -1    0    0  501    0  0.00000000000E+00 -0.00000000000E+00 -0.11936449063E+03  0.11936449073E+03  0.50400000000E-02 0. -1.
        -24    2    1    2    0    0  0.00000000000E+00  0.00000000000E+00 -0.10443954084E+03  0.13428944074E+03  0.84415852792E+02 0.  0.
         66    2    3    3    0    0 -0.40269477541E+02  0.35428563510E+01 -0.71426086096E+02  0.82096701676E+02  0.19999996391E+01 0.  0.
         13    1    3    3    0    0  0.40269477541E+02 -0.35428563510E+01 -0.33013454745E+02  0.52192739062E+02  0.10566000000E+00 0. -1.
         13    1    4    4    0    0 -0.18297033630E+02  0.22219575398E+01 -0.31521597368E+02  0.36514939404E+02  0.10566000000E+00 0. -1.
        -13    1    4    4    0    0 -0.19433445054E+02  0.14506407202E+01 -0.35262778568E+02  0.40289426176E+02  0.10566000000E+00 0.  1.
        -14    1    4    4    0    0 -0.25389988569E+01 -0.12974190891E+00 -0.46417101590E+01  0.52923360965E+01  0.00000000000E+00 0.  1.
<mgrwt>
<rscale>  0 0.84415853E+02</rscale>
<asrwt>0</asrwt>
<pdfrwt beam="1">  1        1 0.18363767E-01 0.84415853E+02</pdfrwt>
<pdfrwt beam="2">  1       -2 0.22961462E-02 0.84415853E+02</pdfrwt>
<totfact> 0.13107970E+05</totfact>
</mgrwt>
</event>
<event>
 8    1  0.1319619E-020  0.7849066E+02  0.7818608E-02  0.1333390E+00
          1   -1    0    0  501    0  0.00000000000E+00  0.00000000000E+00  0.41156796546E+01  0.41156827406E+01  0.50400000000E-02 0. -1.
         -2   -1    0    0    0  501 -0.00000000000E+00 -0.00000000000E+00 -0.37422628890E+03  0.37422628891E+03  0.25500000000E-02 0.  1.
        -24    2    1    2    0    0  0.00000000000E+00  0.00000000000E+00 -0.37011060924E+03  0.37834197165E+03  0.78490664639E+02 0.  0.
         66    2    3    3    0    0 -0.10838878469E+02  0.11879979963E+02 -0.35759984897E+03  0.35796685209E+03  0.19999999282E+01 0.  0.
         13    1    3    3    0    0  0.10838878469E+02 -0.11879979963E+02 -0.12510760271E+02  0.20375119557E+02  0.10566000000E+00 0. -1.
         13    1    4    4    0    0 -0.11645058712E+01  0.87624534020E+00 -0.39212151125E+02  0.39239365944E+02  0.10566000000E+00 0. -1.
        -13    1    4    4    0    0 -0.96370048933E+01  0.10829026862E+02 -0.31106517519E+03  0.31140278430E+03  0.10566000000E+00 0.  1.
        -14    1    4    4    0    0 -0.37367704913E-01  0.17470776035E+00 -0.73225226561E+01  0.73247018503E+01  0.00000000000E+00 0.  1.
<mgrwt>
<rscale>  0 0.78490665E+02</rscale>
<asrwt>0</asrwt>
<pdfrwt beam="1">  1        1 0.63318202E-03 0.78490665E+02</pdfrwt>
<pdfrwt beam="2">  1       -2 0.57573248E-01 0.78490665E+02</pdfrwt>
<totfact> 0.64810564E+04</totfact>
</mgrwt>
</event>
<event>
 8    1  0.1319619E-020  0.7926502E+02  0.7818608E-02  0.1331150E+00
          1   -1    0    0  501    0  0.00000000000E+00  0.00000000000E+00  0.20819765062E+03  0.20819765068E+03  0.50400000000E-02 0. -1.
         -2   -1    0    0    0  501 -0.00000000000E+00 -0.00000000000E+00 -0.75444456981E+01  0.75444461291E+01  0.25500000000E-02 0.  1.
        -24    2    1    2    0    0  0.71054273576E-14  0.00000000000E+00  0.20065320492E+03  0.21574209681E+03  0.79265021860E+02 0.  0.
         66    2    3    3    0    0 -0.34971152207E+02  0.15408150767E+02  0.72060433458E+02  0.81591045254E+02  0.19999996923E+01 0.  0.
         13    1    3    3    0    0  0.34971152207E+02 -0.15408150767E+02  0.12859277146E+03  0.13415105155E+03  0.10566000000E+00 0. -1.
         13    1    4    4    0    0 -0.53003172520E+00  0.16024331974E+00  0.75565973657E+00  0.94276042785E+00  0.10566000000E+00 0. -1.
        -13    1    4    4    0    0 -0.25928446290E+02  0.11672316658E+02  0.54689696217E+02  0.61640095226E+02  0.10566000000E+00 0.  1.
        -14    1    4    4    0    0 -0.85126741916E+01  0.35755907898E+01  0.16615077504E+02  0.19008189600E+02  0.00000000000E+00 0.  1.
<mgrwt>
<rscale>  0 0.79265022E+02</rscale>
<asrwt>0</asrwt>
<pdfrwt beam="1">  1        1 0.32030405E-01 0.79265022E+02</pdfrwt>
<pdfrwt beam="2">  1       -2 0.11606841E-02 0.79265022E+02</pdfrwt>
<totfact> 0.17220968E+05</totfact>
</mgrwt>
</event>
<event>
 8    1  0.1319619E-020  0.7063191E+02  0.7818608E-02  0.1357957E+00
          1   -1    0    0  501    0  0.00000000000E+00  0.00000000000E+00  0.26881824340E+03  0.26881824345E+03  0.50400000000E-02 0. -1.
         -2   -1    0    0    0  501 -0.00000000000E+00 -0.00000000000E+00 -0.46396273161E+01  0.46396280168E+01  0.25500000000E-02 0.  1.
        -24    2    1    2    0    0  0.00000000000E+00  0.35527136788E-14  0.26417861609E+03  0.27345787147E+03  0.70631906881E+02 0.  0.
         66    2    3    3    0    0  0.20369653196E+02 -0.28723991415E+02  0.14104159324E+03  0.14538473606E+03  0.20000001462E+01 0.  0.
         13    1    3    3    0    0 -0.20369653196E+02  0.28723991415E+02  0.12313702284E+03  0.12807313541E+03  0.10566000000E+00 0. -1.
         13    1    4    4    0    0  0.34953610958E+01 -0.60008145121E+01  0.29532666235E+02  0.30338372781E+02  0.10566000000E+00 0. -1.
        -13    1    4    4    0    0  0.86848533509E+01 -0.12130113616E+02  0.58315486592E+02  0.60193633173E+02  0.10566000000E+00 0.  1.
         14    1    4    4    0    0  0.81894387489E+01 -0.10593063287E+02  0.53193440416E+02  0.54852730107E+02  0.00000000000E+00 0. -1.
<mgrwt>
<rscale>  0 0.70631907E+02</rscale>
<asrwt>0</asrwt>
<pdfrwt beam="1">  1        1 0.41356659E-01 0.70631907E+02</pdfrwt>
<pdfrwt beam="2">  1       -2 0.71378877E-03 0.70631907E+02</pdfrwt>
<totfact> 0.24483651E+05</totfact>
</mgrwt>
</event>
<event>
 8    1  0.1319619E-020  0.7985434E+02  0.7818608E-02  0.1329465E+00
         -2   -1    0    0    0  501 -0.00000000000E+00  0.00000000000E+00  0.30884931381E+02  0.30884931486E+02  0.25500000000E-02 0.  1.
          1   -1    0    0  501    0  0.00000000000E+00 -0.00000000000E+00 -0.51616725989E+02  0.51616726235E+02  0.50400000000E-02 0. -1.
        -24    2    1    2    0    0 -0.71123662515E-16  0.00000000000E+00 -0.20731794608E+02  0.82501657721E+02  0.79854343771E+02 0.  0.
         66    2    3    3    0    0  0.11057189624E-01 -0.16768187424E+02  0.27035730139E+02  0.31876369413E+02  0.19999977655E+01 0.  0.
         13    1    3    3    0    0 -0.11057189624E-01  0.16768187424E+02 -0.47767524747E+02  0.50625288308E+02  0.10566000000E+00 0. -1.
         13    1    4    4    0    0 -0.62259285118E+00 -0.67854440809E+01  0.12221762762E+02  0.13993302765E+02  0.10566000000E+00 0.  1.
        -13    1    4    4    0    0  0.62430673818E+00 -0.64841075860E+01  0.98745425404E+01  0.11830095710E+02  0.10566000000E+00 0. -1.
        -14    1    4    4    0    0  0.93433026292E-02 -0.34986357572E+01  0.49394248373E+01  0.60529709385E+01  0.00000000000E+00 0.  1.
<mgrwt>
<rscale>  0 0.79854344E+02</rscale>
<asrwt>0</asrwt>
<pdfrwt beam="1">  1        1 0.79410348E-02 0.79854344E+02</pdfrwt>
<pdfrwt beam="2">  1       -2 0.47515279E-02 0.79854344E+02</pdfrwt>
<totfact> 0.13290131E+05</totfact>
</mgrwt>
</event>
<event>
 8    1  0.1319619E-020  0.7861588E+02  0.7818608E-02  0.1333026E+00
          1   -1    0    0  501    0  0.00000000000E+00  0.00000000000E+00  0.46779260428E+02  0.46779260699E+02  0.50400000000E-02 0. -1.
         -2   -1    0    0    0  501 -0.00000000000E+00 -0.00000000000E+00 -0.33029897347E+02  0.33029897445E+02  0.25500000000E-02 0.  1.
        -24    2    1    2    0    0  0.55511151231E-16  0.00000000000E+00  0.13749363081E+02  0.79809158144E+02  0.78615880957E+02 0.  0.
         66    2    3    3    0    0  0.42102747110E+00  0.26210470125E+02 -0.22821461305E+02  0.34813576488E+02  0.20000008690E+01 0.  0.
         13    1    3    3    0    0 -0.42102747110E+00 -0.26210470125E+02  0.36570824386E+02  0.44995581657E+02  0.10566000000E+00 0. -1.
         13    1    4    4    0    0  0.19201718566E+00  0.89538616078E+00 -0.63226597024E+00  0.11178154003E+01  0.10566000000E+00 0. -1.
        -13    1    4    4    0    0  0.16774106422E+00  0.19048079168E+02 -0.15841472494E+02  0.24775408612E+02  0.10566000000E+00 0.  1.
        -14    1    4    4    0    0  0.61269221220E-01  0.62670047963E+01 -0.63477228405E+01  0.89203524759E+01  0.00000000000E+00 0.  1.
<mgrwt>
<rscale>  0 0.78615881E+02</rscale>
<asrwt>0</asrwt>
<pdfrwt beam="1">  1        1 0.71968094E-02 0.78615881E+02</pdfrwt>
<pdfrwt beam="2">  1       -2 0.50815227E-02 0.78615881E+02</pdfrwt>
<totfact> 0.13668702E+05</totfact>
</mgrwt>
</event>
<event>
 8    1  0.1319619E-020  0.8000850E+02  0.7818608E-02  0.1329027E+00
         -2   -1    0    0    0  501 -0.00000000000E+00  0.00000000000E+00  0.64390955971E+01  0.64390961020E+01  0.25500000000E-02 0.  1.
          1   -1    0    0  501    0  0.00000000000E+00 -0.00000000000E+00 -0.24853490339E+03  0.24853490344E+03  0.50400000000E-02 0. -1.
        -24    2    1    2    0    0  0.00000000000E+00  0.00000000000E+00 -0.24209580779E+03  0.25497399954E+03  0.80008501374E+02 0.  0.
         66    2    3    3    0    0  0.14095181450E+02  0.37386948196E+02 -0.12548948770E+03  0.13171207077E+03  0.20000068875E+01 0.  0.
         13    1    3    3    0    0 -0.14095181450E+02 -0.37386948196E+02 -0.11660632010E+03  0.12326192878E+03  0.10566000000E+00 0. -1.
         13    1    4    4    0    0  0.24826739721E+01  0.57914939864E+01 -0.19578149291E+02  0.20567454056E+02  0.10566000000E+00 0.  1.
        -13    1    4    4    0    0  0.95579662794E+01  0.23975320887E+02 -0.80832912346E+02  0.84853648203E+02  0.10566000000E+00 0.  1.
        -14    1    4    4    0    0  0.20545411986E+01  0.76201333222E+01 -0.25078426061E+02  0.26290968508E+02  0.00000000000E+00 0.  1.
<mgrwt>
<rscale>  0 0.80008501E+02</rscale>
<asrwt>0</asrwt>
<pdfrwt beam="1">  1        1 0.38236132E-01 0.80008501E+02</pdfrwt>
<pdfrwt beam="2">  1       -2 0.99063032E-03 0.80008501E+02</pdfrwt>
<totfact> 0.17390466E+05</totfact>
</mgrwt>
</event>
<event>
 8    1  0.1611794E-020  0.7639299E+02  0.7818608E-02  0.1339611E+00
          1   -1    0    0  501    0  0.00000000000E+00  0.00000000000E+00  0.18734495512E+03  0.18734495519E+03  0.50400000000E-02 0. -1.
         -2   -1    0    0    0  501 -0.00000000000E+00 -0.00000000000E+00 -0.77876236898E+01  0.77876241072E+01  0.25500000000E-02 0.  1.
        -24    2    1    2    0    0 -0.88817841970E-15  0.00000000000E+00  0.17955733143E+03  0.19513257930E+03  0.76392985490E+02 0.  0.
         66    2    3    3    0    0 -0.58214146887E+01 -0.26093000029E+02  0.20250064378E+02  0.33597598504E+02  0.19999996023E+01 0.  0.
         13    1    3    3    0    0  0.58214146887E+01  0.26093000029E+02  0.15930726706E+03  0.16153498080E+03  0.10566000000E+00 0. -1.
         13    1    4    4    0    0 -0.15893933676E+01 -0.51601102912E+01  0.44050690815E+01  0.69691252781E+01  0.10566000000E+00 0. -1.
        -13    1    4    4    0    0 -0.91243284060E+00 -0.40485894285E+01  0.24366819282E+01  0.48137503990E+01  0.10566000000E+00 0.  1.
        -14    1    4    4    0    0 -0.33195884805E+01 -0.16884300310E+02  0.13408313368E+02  0.21814722827E+02  0.00000000000E+00 0.  1.
<mgrwt>
<rscale>  0 0.76392985E+02</rscale>
<asrwt>0</asrwt>
<pdfrwt beam="1">  1        1 0.28822300E-01 0.76392985E+02</pdfrwt>
<pdfrwt beam="2">  1       -2 0.11980960E-02 0.76392985E+02</pdfrwt>
<totfact> 0.18607023E+05</totfact>
</mgrwt>
</event>
<event>
 8    1  0.1319619E-020  0.7809801E+02  0.7818608E-02  0.1334537E+00
         -2   -1    0    0    0  501 -0.00000000000E+00  0.00000000000E+00  0.97876430711E+02  0.97876430744E+02  0.25500000000E-02 0.  1.
          1   -1    0    0  501    0  0.00000000000E+00 -0.00000000000E+00 -0.15579080017E+02  0.15579080832E+02  0.50400000000E-02 0. -1.
        -24    2    1    2    0    0  0.00000000000E+00  0.44408920985E-15  0.82297350694E+02  0.11345551158E+03  0.78098010062E+02 0.  0.
         66    2    3    3    0    0 -0.13405291125E+02 -0.37382675796E+01  0.94138460385E+02  0.95182593982E+02  0.19999996692E+01 0.  0.
         13    1    3    3    0    0  0.13405291125E+02  0.37382675796E+01 -0.11841109691E+02  0.18272917594E+02  0.10566000000E+00 0. -1.
         13    1    4    4    0    0 -0.59198414172E+01 -0.20902537786E+01  0.36511640591E+02  0.37047601082E+02  0.10566000000E+00 0. -1.
        -13    1    4    4    0    0 -0.50699656388E+01 -0.12154865278E+01  0.38689198385E+02  0.39039047053E+02  0.10566000000E+00 0.  1.
         14    1    4    4    0    0 -0.24154840690E+01 -0.43252727329E+00  0.18937621409E+02  0.19095945846E+02  0.00000000000E+00 0. -1.
<mgrwt>
<rscale>  0 0.78098010E+02</rscale>
<asrwt>0</asrwt>
<pdfrwt beam="1">  1        1 0.23967816E-02 0.78098010E+02</pdfrwt>
<pdfrwt beam="2">  1       -2 0.15057913E-01 0.78098010E+02</pdfrwt>
<totfact> 0.11346244E+05</totfact>
</mgrwt>
</event>
<event>
 8    1  0.1319619E-020  0.8478501E+02  0.7818608E-02  0.1315996E+00
         -2   -1    0    0    0  501 -0.00000000000E+00  0.00000000000E+00  0.19036280908E+02  0.19036281078E+02  0.25500000000E-02 0.  1.
          1   -1    0    0  501    0  0.00000000000E+00 -0.00000000000E+00 -0.94405237848E+02  0.94405237982E+02  0.50400000000E-02 0. -1.
        -24    2    1    2    0    0  0.00000000000E+00  0.00000000000E+00 -0.75368956940E+02  0.11344151906E+03  0.84785013868E+02 0.  0.
         66    2    3    3    0    0  0.17377045239E+02 -0.20592005708E+02  0.60435604022E+01  0.27686043758E+02  0.19999990800E+01 0.  0.
         13    1    3    3    0    0 -0.17377045239E+02  0.20592005708E+02 -0.81412517342E+02  0.85755475303E+02  0.10566000000E+00 0. -1.
         13    1    4    4    0    0  0.83122168974E+01 -0.96262534824E+01  0.25846625470E+01  0.12978803888E+02  0.10566000000E+00 0. -1.
        -13    1    4    4    0    0  0.60302299869E+01 -0.79070502479E+01  0.18953403305E+01  0.10123665162E+02  0.10566000000E+00 0.  1.
         14    1    4    4    0    0  0.30345983549E+01 -0.30587019776E+01  0.15635575247E+01  0.45835747072E+01  0.00000000000E+00 0. -1.
<mgrwt>
<rscale>  0 0.84785014E+02</rscale>
<asrwt>0</asrwt>
<pdfrwt beam="1">  1        1 0.14523882E-01 0.84785014E+02</pdfrwt>
<pdfrwt beam="2">  1       -2 0.29286587E-02 0.84785014E+02</pdfrwt>
<totfact> 0.12431659E+05</totfact>
</mgrwt>
</event>
<event>
 8    1  0.1319619E-020  0.8076125E+02  0.7818608E-02  0.1326905E+00
          1   -1    0    0  501    0  0.00000000000E+00  0.00000000000E+00  0.36041087587E+03  0.36041087590E+03  0.50400000000E-02 0. -1.
         -2   -1    0    0    0  501 -0.00000000000E+00 -0.00000000000E+00 -0.45242660102E+01  0.45242667289E+01  0.25500000000E-02 0.  1.
        -24    2    1    2    0    0 -0.71054273576E-14  0.00000000000E+00  0.35588660986E+03  0.36493514263E+03  0.80761248454E+02 0.  0.
         66    2    3    3    0    0  0.39751593425E+02  0.59692333530E+01  0.16190521157E+03  0.16683260612E+03  0.20000011997E+01 0.  0.
         13    1    3    3    0    0 -0.39751593425E+02 -0.59692333530E+01  0.19398139829E+03  0.19810253652E+03  0.10566000000E+00 0. -1.
         13    1    4    4    0    0  0.21582029730E+02  0.32593698272E+01  0.91297472366E+02  0.93870374045E+02  0.10566000000E+00 0. -1.
        -13    1    4    4    0    0  0.19775963068E+01  0.50210286777E+00  0.80696579792E+01  0.83242740452E+01  0.10566000000E+00 0.  1.
         14    1    4    4    0    0  0.16191967388E+02  0.22077606580E+01  0.62538081222E+02  0.64637958027E+02  0.00000000000E+00 0. -1.
<mgrwt>
<rscale>  0 0.80761248E+02</rscale>
<asrwt>0</asrwt>
<pdfrwt beam="1">  1        1 0.55447843E-01 0.80761248E+02</pdfrwt>
<pdfrwt beam="2">  1       -2 0.69604078E-03 0.80761248E+02</pdfrwt>
<totfact> 0.18200595E+05</totfact>
</mgrwt>
</event>
<event>
 8    1  0.1319619E-020  0.7036622E+02  0.7818608E-02  0.1358852E+00
          1   -1    0    0  501    0  0.00000000000E+00  0.00000000000E+00  0.24464492996E+02  0.24464493515E+02  0.50400000000E-02 0. -1.
         -2   -1    0    0    0  501 -0.00000000000E+00 -0.00000000000E+00 -0.50597871951E+02  0.50597872016E+02  0.25500000000E-02 0.  1.
        -24    2    1    2    0    0 -0.35527136788E-14  0.00000000000E+00 -0.26133378955E+02  0.75062365531E+02  0.70366222177E+02 0.  0.
         66    2    3    3    0    0  0.25019148591E+02 -0.73870902645E+01 -0.38215146648E+02  0.46313327748E+02  0.19999987386E+01 0.  0.
         13    1    3    3    0    0 -0.25019148591E+02  0.73870902645E+01  0.12081767693E+02  0.28749037783E+02  0.10566000000E+00 0. -1.
         13    1    4    4    0    0  0.20607333606E+02 -0.59075429410E+01 -0.31772573373E+02  0.38328433894E+02  0.10566000000E+00 0. -1.
        -13    1    4    4    0    0  0.37780636349E+01 -0.12427467571E+01 -0.49857467533E+01  0.63786377116E+01  0.10566000000E+00 0.  1.
         14    1    4    4    0    0  0.63375135022E+00 -0.23680056636E+00 -0.14568265215E+01  0.16062561427E+01  0.00000000000E+00 0. -1.
<mgrwt>
<rscale>  0 0.70366222E+02</rscale>
<asrwt>0</asrwt>
<pdfrwt beam="1">  1        1 0.37637682E-02 0.70366222E+02</pdfrwt>
<pdfrwt beam="2">  1       -2 0.77842880E-02 0.70366222E+02</pdfrwt>
<totfact> 0.16845842E+05</totfact>
</mgrwt>
</event>
<event>
 8    1  0.1319619E-020  0.7914571E+02  0.7818608E-02  0.1331493E+00
         -2   -1    0    0    0  501 -0.00000000000E+00  0.00000000000E+00  0.22216015819E+03  0.22216015820E+03  0.25500000000E-02 0.  1.
          1   -1    0    0  501    0  0.00000000000E+00 -0.00000000000E+00 -0.70490165630E+01  0.70490183648E+01  0.50400000000E-02 0. -1.
        -24    2    1    2    0    0 -0.17763568394E-14  0.71054273576E-14  0.21511114163E+03  0.22920917657E+03  0.79145709748E+02 0.  0.
         66    2    3    3    0    0 -0.11517839618E+02  0.37562067983E+02  0.12071606484E+03  0.12696431720E+03  0.19999881004E+01 0.  0.
         13    1    3    3    0    0  0.11517839618E+02 -0.37562067983E+02  0.94395076788E+02  0.10224485936E+03  0.10566000000E+00 0. -1.
         13    1    4    4    0    0 -0.55068839907E+01  0.16758550751E+02  0.55038568063E+02  0.57796452599E+02  0.10566000000E+00 0. -1.
        -13    1    4    4    0    0 -0.49711997812E+01  0.18331031770E+02  0.58462201656E+02  0.61470153242E+02  0.10566000000E+00 0.  1.
         14    1    4    4    0    0 -0.10397558460E+01  0.24724854622E+01  0.72152951192E+01  0.76977113636E+01  0.00000000000E+00 0. -1.
<mgrwt>
<rscale>  0 0.79145710E+02</rscale>
<asrwt>0</asrwt>
<pdfrwt beam="1">  1        1 0.10844641E-02 0.79145710E+02</pdfrwt>
<pdfrwt beam="2">  1       -2 0.34178489E-01 0.79145710E+02</pdfrwt>
<totfact> 0.83676235E+04</totfact>
</mgrwt>
</event>
<event>
 8    1  0.1319619E-020  0.7876285E+02  0.7818608E-02  0.1332599E+00
         -2   -1    0    0    0  501 -0.00000000000E+00  0.00000000000E+00  0.49159302834E+01  0.49159309448E+01  0.25500000000E-02 0.  1.
          1   -1    0    0  501    0  0.00000000000E+00 -0.00000000000E+00 -0.31548381102E+03  0.31548381106E+03  0.50400000000E-02 0. -1.
        -24    2    1    2    0    0  0.00000000000E+00  0.00000000000E+00 -0.31056788073E+03  0.32039974200E+03  0.78762847406E+02 0.  0.
         66    2    3    3    0    0 -0.15749481462E+02  0.32642206863E+02 -0.92979987894E+02  0.99814016921E+02  0.19999974689E+01 0.  0.
         13    1    3    3    0    0  0.15749481462E+02 -0.32642206863E+02 -0.21758789284E+03  0.22058572508E+03  0.10566000000E+00 0. -1.
         13    1    4    4    0    0 -0.70999185378E+01  0.13543727317E+02 -0.39856211886E+02  0.42689227948E+02  0.10566000000E+00 0. -1.
        -13    1    4    4    0    0 -0.54278829795E+01  0.12421601558E+02 -0.35845956743E+02  0.38323646457E+02  0.10566000000E+00 0.  1.
         14    1    4    4    0    0 -0.32216799450E+01  0.66768779882E+01 -0.17277819265E+02  0.18801142516E+02  0.00000000000E+00 0. -1.
<mgrwt>
<rscale>  0 0.78762847E+02</rscale>
<asrwt>0</asrwt>
<pdfrwt beam="1">  1        1 0.48535955E-01 0.78762847E+02</pdfrwt>
<pdfrwt beam="2">  1       -2 0.75629726E-03 0.78762847E+02</pdfrwt>
<totfact> 0.18976646E+05</totfact>
</mgrwt>
</event>
<event>
 8    1  0.1319619E-020  0.7937954E+02  0.7818608E-02  0.1330821E+00
          1   -1    0    0  501    0  0.00000000000E+00  0.00000000000E+00  0.73635552431E+02  0.73635552603E+02  0.50400000000E-02 0. -1.
         -2   -1    0    0    0  501 -0.00000000000E+00 -0.00000000000E+00 -0.21392897156E+02  0.21392897308E+02  0.25500000000E-02 0.  1.
        -24    2    1    2    0    0  0.00000000000E+00  0.00000000000E+00  0.52242655275E+02  0.95028449911E+02  0.79379539318E+02 0.  0.
         66    2    3    3    0    0 -0.24012402444E+02 -0.24463752379E+02  0.22489218723E+01  0.34411165287E+02  0.19999988141E+01 0.  0.
         13    1    3    3    0    0  0.24012402444E+02  0.24463752379E+02  0.49993733403E+02  0.60617284624E+02  0.10566000000E+00 0. -1.
         13    1    4    4    0    0 -0.16806807532E+01 -0.16949707662E+01  0.44521103882E+00  0.24304301259E+01  0.10566000000E+00 0. -1.
        -13    1    4    4    0    0 -0.10152068601E+02 -0.96203169628E+01  0.13579959983E+01  0.14052413049E+02  0.10566000000E+00 0.  1.
        -14    1    4    4    0    0 -0.12179653090E+02 -0.13148464650E+02  0.44571483515E+00  0.17928322112E+02  0.00000000000E+00 0.  1.
<mgrwt>
<rscale>  0 0.79379539E+02</rscale>
<asrwt>0</asrwt>
<pdfrwt beam="1">  1        1 0.11328546E-01 0.79379539E+02</pdfrwt>
<pdfrwt beam="2">  1       -2 0.32912150E-02 0.79379539E+02</pdfrwt>
<totfact> 0.14283048E+05</totfact>
</mgrwt>
</event>
<event>
 8    1  0.1319619E-020  0.7874065E+02  0.7818608E-02  0.1332664E+00
         -2   -1    0    0    0  501 -0.00000000000E+00  0.00000000000E+00  0.41850333568E+02  0.41850333645E+02  0.25500000000E-02 0.  1.
          1   -1    0    0  501    0  0.00000000000E+00 -0.00000000000E+00 -0.37037279187E+02  0.37037279530E+02  0.50400000000E-02 0. -1.
        -24    2    1    2    0    0  0.00000000000E+00  0.00000000000E+00  0.48130543802E+01  0.78887613176E+02  0.78740650366E+02 0.  0.
         66    2    3    3    0    0  0.40845118928E+01 -0.17661954566E+02  0.37393010926E+02  0.41603667447E+02  0.20000006010E+01 0.  0.
         13    1    3    3    0    0 -0.40845118928E+01  0.17661954566E+02 -0.32579956546E+02  0.37283945729E+02  0.10566000000E+00 0. -1.
         13    1    4    4    0    0  0.17119627805E+01 -0.99897692339E+01  0.19641383076E+02  0.22102520197E+02  0.10566000000E+00 0. -1.
        -13    1    4    4    0    0  0.63018062124E+00 -0.29172466772E+01  0.73015638924E+01  0.78886915963E+01  0.10566000000E+00 0.  1.
         14    1    4    4    0    0  0.17423684910E+01 -0.47549386551E+01  0.10450063958E+02  0.11612455654E+02  0.00000000000E+00 0. -1.
<mgrwt>
<rscale>  0 0.78740650E+02</rscale>
<asrwt>0</asrwt>
<pdfrwt beam="1">  1        1 0.56980430E-02 0.78740650E+02</pdfrwt>
<pdfrwt beam="2">  1       -2 0.64385129E-02 0.78740650E+02</pdfrwt>
<totfact> 0.13113574E+05</totfact>
</mgrwt>
</event>
<event>
 8    1  0.1319619E-020  0.7872061E+02  0.7818608E-02  0.1332722E+00
          1   -1    0    0  501    0  0.00000000000E+00  0.00000000000E+00  0.66568423088E+01  0.66568442167E+01  0.50400000000E-02 0. -1.
         -2   -1    0    0    0  501 -0.00000000000E+00 -0.00000000000E+00 -0.23272796799E+03  0.23272796800E+03  0.25500000000E-02 0.  1.
        -24    2    1    2    0    0  0.00000000000E+00  0.00000000000E+00 -0.22607112568E+03  0.23938481222E+03  0.78720610104E+02 0.  0.
         66    2    3    3    0    0 -0.32361738706E+02 -0.22323280451E+02 -0.10924063844E+03  0.11611687277E+03  0.20000185219E+01 0.  0.
         13    1    3    3    0    0  0.32361738706E+02  0.22323280451E+02 -0.11683048724E+03  0.12326793944E+03  0.10566000000E+00 0. -1.
         13    1    4    4    0    0 -0.20893354866E+01 -0.13704936762E+01 -0.82917014297E+01  0.86606611946E+01  0.10566000000E+00 0. -1.
        -13    1    4    4    0    0 -0.10949878343E+02 -0.71218991030E+01 -0.35457508964E+02  0.37787132578E+02  0.10566000000E+00 0.  1.
        -14    1    4    4    0    0 -0.19322524877E+02 -0.13830887671E+02 -0.65491428045E+02  0.69669079001E+02  0.00000000000E+00 0.  1.
<mgrwt>
<rscale>  0 0.78720610E+02</rscale>
<asrwt>0</asrwt>
<pdfrwt beam="1">  1        1 0.10241299E-02 0.78720610E+02</pdfrwt>
<pdfrwt beam="2">  1       -2 0.35804296E-01 0.78720610E+02</pdfrwt>
<totfact> 0.83109876E+04</totfact>
</mgrwt>
</event>
<event>
 8    1  0.1319619E-020  0.7959739E+02  0.7818608E-02  0.1330198E+00
         -2   -1    0    0    0  501 -0.00000000000E+00  0.00000000000E+00  0.15595676677E+03  0.15595676679E+03  0.25500000000E-02 0.  1.
          1   -1    0    0  501    0  0.00000000000E+00 -0.00000000000E+00 -0.10156251842E+02  0.10156253093E+02  0.50400000000E-02 0. -1.
        -24    2    1    2    0    0  0.00000000000E+00  0.00000000000E+00  0.14580051493E+03  0.16611301989E+03  0.79597394567E+02 0.  0.
         66    2    3    3    0    0  0.17476860109E+02 -0.20694740145E+02  0.13372587116E+03  0.13645629898E+03  0.20000008889E+01 0.  0.
         13    1    3    3    0    0 -0.17476860109E+02  0.20694740145E+02  0.12074643769E+02  0.29656720910E+02  0.10566000000E+00 0. -1.
         13    1    4    4    0    0  0.33427821725E+00 -0.43339176546E+00  0.20412596867E+01  0.21160046061E+01  0.10566000000E+00 0. -1.
        -13    1    4    4    0    0  0.59903672412E+01 -0.63421834520E+01  0.40887513064E+02  0.41807985830E+02  0.10566000000E+00 0.  1.
         14    1    4    4    0    0  0.11152214650E+02 -0.13919164928E+02  0.90797098412E+02  0.92532308541E+02  0.00000000000E+00 0. -1.
<mgrwt>
<rscale>  0 0.79597395E+02</rscale>
<asrwt>0</asrwt>
<pdfrwt beam="1">  1        1 0.15625004E-02 0.79597395E+02</pdfrwt>
<pdfrwt beam="2">  1       -2 0.23993348E-01 0.79597395E+02</pdfrwt>
<totfact> 0.94511403E+04</totfact>
</mgrwt>
</event>
<event>
 8    1  0.1319619E-020  0.8076836E+02  0.7818608E-02  0.1326885E+00
          1   -1    0    0  501    0  0.00000000000E+00  0.00000000000E+00  0.49019257275E+02  0.49019257534E+02  0.50400000000E-02 0. -1.
         -2   -1    0    0    0  501 -0.00000000000E+00 -0.00000000000E+00 -0.33270229677E+02  0.33270229775E+02  0.25500000000E-02 0.  1.
        -24    2    1    2    0    0  0.00000000000E+00  0.00000000000E+00  0.15749027598E+02  0.82289487308E+02  0.80768359221E+02 0.  0.
         66    2    3    3    0    0  0.17934374153E+02 -0.11488023777E+02 -0.27048386113E+02  0.34485238011E+02  0.19999956943E+01 0.  0.
         13    1    3    3    0    0 -0.17934374153E+02  0.11488023777E+02  0.42797413711E+02  0.47804249298E+02  0.10566000000E+00 0. -1.
         13    1    4    4    0    0  0.74578225248E+01 -0.44503723999E+01 -0.11778274362E+02  0.14634337781E+02  0.10566000000E+00 0. -1.
        -13    1    4    4    0    0  0.93380092598E+01 -0.57578542635E+01 -0.13203909011E+02  0.17166993908E+02  0.10566000000E+00 0.  1.
        -14    1    4    4    0    0  0.11385423681E+01 -0.12797971134E+01 -0.20662027406E+01  0.26839063212E+01  0.00000000000E+00 0.  1.
<mgrwt>
<rscale>  0 0.80768359E+02</rscale>
<asrwt>0</asrwt>
<pdfrwt beam="1">  1        1 0.75414242E-02 0.80768359E+02</pdfrwt>
<pdfrwt beam="2">  1       -2 0.51184969E-02 0.80768359E+02</pdfrwt>
<totfact> 0.12771378E+05</totfact>
</mgrwt>
</event>
<event>
 8    1  0.1319619E-020  0.7722691E+02  0.7818608E-02  0.1337110E+00
          1   -1    0    0  501    0  0.00000000000E+00  0.00000000000E+00  0.20415555120E+02  0.20415555742E+02  0.50400000000E-02 0. -1.
         -2   -1    0    0    0  501 -0.00000000000E+00 -0.00000000000E+00 -0.73032489416E+02  0.73032489460E+02  0.25500000000E-02 0.  1.
        -24    2    1    2    0    0  0.00000000000E+00  0.00000000000E+00 -0.52616934296E+02  0.93448045202E+02  0.77226908376E+02 0.  0.
         66    2    3    3    0    0  0.33564006287E+02 -0.12676596025E+02 -0.43513616646E+02  0.56432910985E+02  0.20000009549E+01 0.  0.
         13    1    3    3    0    0 -0.33564006287E+02  0.12676596025E+02 -0.91033176502E+01  0.37015134217E+02  0.10566000000E+00 0. -1.
         13    1    4    4    0    0  0.15935572094E+02 -0.60426958552E+01 -0.20672044356E+02  0.26791812426E+02  0.10566000000E+00 0. -1.
        -13    1    4    4    0    0  0.54131904456E+01 -0.23618761449E+01 -0.81053193680E+01  0.10029379633E+02  0.10566000000E+00 0.  1.
         14    1    4    4    0    0  0.12215243747E+02 -0.42720240253E+01 -0.14736252922E+02  0.19611718927E+02  0.00000000000E+00 0. -1.
<mgrwt>
<rscale>  0 0.77226908E+02</rscale>
<asrwt>0</asrwt>
<pdfrwt beam="1">  1        1 0.31408547E-02 0.77226908E+02</pdfrwt>
<pdfrwt beam="2">  1       -2 0.11235767E-01 0.77226908E+02</pdfrwt>
<totfact> 0.12461313E+05</totfact>
</mgrwt>
</event>
<event>
 8    1  0.1319619E-020  0.8052570E+02  0.7818608E-02  0.1327566E+00
          1   -1    0    0  501    0  0.00000000000E+00  0.00000000000E+00  0.12645697481E+02  0.12645698486E+02  0.50400000000E-02 0. -1.
         -2   -1    0    0    0  501 -0.00000000000E+00 -0.00000000000E+00 -0.12819354887E+03  0.12819354890E+03  0.25500000000E-02 0.  1.
        -24    2    1    2    0    0  0.00000000000E+00  0.00000000000E+00 -0.11554785139E+03  0.14083924738E+03  0.80525695541E+02 0.  0.
         66    2    3    3    0    0  0.92887410089E+01 -0.27345151557E+02 -0.10681430252E+03  0.11066767031E+03  0.20000015233E+01 0.  0.
         13    1    3    3    0    0 -0.92887410089E+01  0.27345151557E+02 -0.87335488732E+01  0.30171577074E+02  0.10566000000E+00 0. -1.
         13    1    4    4    0    0  0.92723622550E+00 -0.36004078406E+01 -0.15912993508E+02  0.16341885756E+02  0.10566000000E+00 0. -1.
        -13    1    4    4    0    0  0.41440029725E+01 -0.10875157760E+02 -0.42849270715E+02  0.44401722734E+02  0.10566000000E+00 0.  1.
        -14    1    4    4    0    0  0.42175018109E+01 -0.12869585956E+02 -0.48052038297E+02  0.49924061821E+02  0.00000000000E+00 0.  1.
<mgrwt>
<rscale>  0 0.80525696E+02</rscale>
<asrwt>0</asrwt>
<pdfrwt beam="1">  1        1 0.19454921E-02 0.80525696E+02</pdfrwt>
<pdfrwt beam="2">  1       -2 0.19722084E-01 0.80525696E+02</pdfrwt>
<totfact> 0.97587242E+04</totfact>
</mgrwt>
</event>
<event>
 8    1  0.1319619E-020  0.8043113E+02  0.7818608E-02  0.1327832E+00
          1   -1    0    0  501    0  0.00000000000E+00  0.00000000000E+00  0.26280297502E+01  0.26280345831E+01  0.50400000000E-02 0. -1.
         -2   -1    0    0    0  501 -0.00000000000E+00 -0.00000000000E+00 -0.61540020232E+03  0.61540020232E+03  0.25500000000E-02 0.  1.
        -24    2    1    2    0    0 -0.35527136788E-14  0.44408920985E-15 -0.61277217257E+03  0.61802823691E+03  0.80431126687E+02 0.  0.
         66    2    3    3    0    0 -0.24193045049E+02  0.25929369195E+01 -0.55237231134E+03  0.55291156354E+03  0.20000011434E+01 0.  0.
         13    1    3    3    0    0  0.24193045049E+02 -0.25929369195E+01 -0.60399861228E+02  0.65116673372E+02  0.10566000000E+00 0. -1.
         13    1    4    4    0    0 -0.30125364278E+00 -0.13100975022E+00 -0.10222522221E+02  0.10228345022E+02  0.10566000000E+00 0. -1.
        -13    1    4    4    0    0 -0.69948404942E+01  0.50669285106E+00 -0.15765154977E+03  0.15780749932E+03  0.10566000000E+00 0.  1.
         14    1    4    4    0    0 -0.16896950912E+02  0.22172538186E+01 -0.38449823935E+03  0.38487571920E+03  0.00000000000E+00 0. -1.
<mgrwt>
<rscale>  0 0.80431127E+02</rscale>
<asrwt>0</asrwt>
<pdfrwt beam="1">  1        1 0.40431313E-03 0.80431127E+02</pdfrwt>
<pdfrwt beam="2">  1       -2 0.94676840E-01 0.80431127E+02</pdfrwt>
<totfact> 0.41941685E+04</totfact>
</mgrwt>
</event>
<event>
 8    1  0.1319619E-020  0.7953410E+02  0.7818608E-02  0.1330379E+00
          1   -1    0    0  501    0  0.00000000000E+00  0.00000000000E+00  0.24005440237E+02  0.24005440766E+02  0.50400000000E-02 0. -1.
         -2   -1    0    0    0  501 -0.00000000000E+00 -0.00000000000E+00 -0.65877496035E+02  0.65877496084E+02  0.25500000000E-02 0.  1.
        -24    2    1    2    0    0 -0.71054273576E-14  0.88817841970E-15 -0.41872055798E+02  0.89882936851E+02  0.79534101366E+02 0.  0.
         66    2    3    3    0    0  0.38216878458E+02 -0.62020762596E+01 -0.31083675742E+02  0.49690949374E+02  0.20000007645E+01 0.  0.
         13    1    3    3    0    0 -0.38216878458E+02  0.62020762596E+01 -0.10788380056E+02  0.40191987476E+02  0.10566000000E+00 0. -1.
         13    1    4    4    0    0  0.96348892825E+01 -0.12092511078E+01 -0.86382122423E+01  0.12997047915E+02  0.10566000000E+00 0. -1.
        -13    1    4    4    0    0  0.14645618950E+02 -0.29770643812E+01 -0.11375456750E+02  0.18782152354E+02  0.10566000000E+00 0.  1.
        -14    1    4    4    0    0  0.13936370226E+02 -0.20157607706E+01 -0.11070006749E+02  0.17911749105E+02  0.00000000000E+00 0.  1.
<mgrwt>
<rscale>  0 0.79534101E+02</rscale>
<asrwt>0</asrwt>
<pdfrwt beam="1">  1        1 0.36931447E-02 0.79534101E+02</pdfrwt>
<pdfrwt beam="2">  1       -2 0.10134999E-01 0.79534101E+02</pdfrwt>
<totfact> 0.11803478E+05</totfact>
</mgrwt>
</event>
<event>
 8    1  0.1319619E-020  0.7980825E+02  0.7818608E-02  0.1329596E+00
          1   -1    0    0  501    0  0.00000000000E+00  0.00000000000E+00  0.84173642377E+01  0.84173657465E+01  0.50400000000E-02 0. -1.
         -2   -1    0    0    0  501 -0.00000000000E+00 -0.00000000000E+00 -0.18917313436E+03  0.18917313438E+03  0.25500000000E-02 0.  1.
        -24    2    1    2    0    0  0.00000000000E+00 -0.88817841970E-15 -0.18075577013E+03  0.19759050013E+03  0.79808253375E+02 0.  0.
         66    2    3    3    0    0 -0.18715886447E+02 -0.56402938847E+01 -0.17649309481E+03  0.17758352920E+03  0.20000023287E+01 0.  0.
         13    1    3    3    0    0  0.18715886447E+02  0.56402938847E+01 -0.42626753177E+01  0.20006970922E+02  0.10566000000E+00 0. -1.
         13    1    4    4    0    0 -0.18655598681E+01 -0.10078845601E+01 -0.20472213861E+02  0.20582003044E+02  0.10566000000E+00 0. -1.
        -13    1    4    4    0    0 -0.15105230523E+02 -0.38369268915E+01 -0.13662665085E+03  0.13751270081E+03  0.10566000000E+00 0.  1.
        -14    1    4    4    0    0 -0.17450960556E+01 -0.79548243305E+00 -0.19394230100E+02  0.19488825355E+02  0.00000000000E+00 0.  1.
<mgrwt>
<rscale>  0 0.79808253E+02</rscale>
<asrwt>0</asrwt>
<pdfrwt beam="1">  1        1 0.12949794E-02 0.79808253E+02</pdfrwt>
<pdfrwt beam="2">  1       -2 0.29103556E-01 0.79808253E+02</pdfrwt>
<totfact> 0.87519344E+04</totfact>
</mgrwt>
</event>
<event>
 8    1  0.1319619E-020  0.7980280E+02  0.7818608E-02  0.1329612E+00
          1   -1    0    0  501    0  0.00000000000E+00  0.00000000000E+00  0.36850404512E+02  0.36850404856E+02  0.50400000000E-02 0. -1.
         -2   -1    0    0    0  501 -0.00000000000E+00 -0.00000000000E+00 -0.43204996876E+02  0.43204996951E+02  0.25500000000E-02 0.  1.
        -24    2    1    2    0    0 -0.71054273576E-14  0.00000000000E+00 -0.63545923640E+01  0.80055401807E+02  0.79802797660E+02 0.  0.
         66    2    3    3    0    0 -0.38220555812E+02  0.94286727479E+01  0.31973989840E+01  0.39546606970E+02  0.20000015551E+01 0.  0.
         13    1    3    3    0    0  0.38220555812E+02 -0.94286727479E+01 -0.95519913479E+01  0.40508794837E+02  0.10566000000E+00 0. -1.
         13    1    4    4    0    0 -0.14545411523E+02  0.34043323802E+01  0.20783389962E+01  0.15082742866E+02  0.10566000000E+00 0. -1.
        -13    1    4    4    0    0 -0.19790941937E+02  0.48547732900E+01  0.10942778561E+01  0.20407322571E+02  0.10566000000E+00 0.  1.
        -14    1    4    4    0    0 -0.38842023521E+01  0.11695670777E+01  0.24782131633E-01  0.40565415338E+01  0.00000000000E+00 0.  1.
<mgrwt>
<rscale>  0 0.79802798E+02</rscale>
<asrwt>0</asrwt>
<pdfrwt beam="1">  1        1 0.56692930E-02 0.79802798E+02</pdfrwt>
<pdfrwt beam="2">  1       -2 0.66469227E-02 0.79802798E+02</pdfrwt>
<totfact> 0.12615663E+05</totfact>
</mgrwt>
</event>
<event>
 8    1  0.1319619E-020  0.8103913E+02  0.7818608E-02  0.1326128E+00
          1   -1    0    0  501    0  0.00000000000E+00  0.00000000000E+00  0.44244104399E+01  0.44244133106E+01  0.50400000000E-02 0. -1.
         -2   -1    0    0    0  501 -0.00000000000E+00 -0.00000000000E+00 -0.37108553374E+03  0.37108553375E+03  0.25500000000E-02 0.  1.
        -24    2    1    2    0    0  0.71054273576E-14  0.88817841970E-15 -0.36666112330E+03  0.37550994706E+03  0.81039132528E+02 0.  0.
         66    2    3    3    0    0  0.35865181724E+02  0.32345332496E+01 -0.26926609611E+03  0.27167076394E+03  0.20000000585E+01 0.  0.
         13    1    3    3    0    0 -0.35865181724E+02 -0.32345332496E+01 -0.97395027194E+02  0.10383918312E+03  0.10566000000E+00 0. -1.
         13    1    4    4    0    0  0.62926704847E+01  0.88149999483E+00 -0.46024857130E+02  0.46461525825E+02  0.10566000000E+00 0. -1.
        -13    1    4    4    0    0  0.27156382630E+02  0.17832008891E+01 -0.20287702846E+03  0.20469428122E+03  0.10566000000E+00 0.  1.
        -14    1    4    4    0    0  0.24161286093E+01  0.56983236567E+00 -0.20364210516E+02  0.20514956893E+02  0.00000000000E+00 0.  1.
<mgrwt>
<rscale>  0 0.81039133E+02</rscale>
<asrwt>0</asrwt>
<pdfrwt beam="1">  1        1 0.68067905E-03 0.81039133E+02</pdfrwt>
<pdfrwt beam="2">  1       -2 0.57090057E-01 0.81039133E+02</pdfrwt>
<totfact> 0.59993963E+04</totfact>
</mgrwt>
</event>
<event>
 8    1  0.1319619E-020  0.8106654E+02  0.7818608E-02  0.1326052E+00
          1   -1    0    0  501    0  0.00000000000E+00  0.00000000000E+00  0.36287792781E+01  0.36287827781E+01  0.50400000000E-02 0. -1.
         -2   -1    0    0    0  501 -0.00000000000E+00 -0.00000000000E+00 -0.45275426389E+03  0.45275426390E+03  0.25500000000E-02 0.  1.
        -24    2    1    2    0    0  0.00000000000E+00  0.00000000000E+00 -0.44912548461E+03  0.45638304668E+03  0.81066542820E+02 0.  0.
         66    2    3    3    0    0 -0.95559839291E+01  0.11104801342E+02 -0.43731431764E+03  0.43756421911E+03  0.19999974098E+01 0.  0.
         13    1    3    3    0    0  0.95559839291E+01 -0.11104801342E+02 -0.11811166972E+02  0.18818827567E+02  0.10566000000E+00 0. -1.
         13    1    4    4    0    0 -0.55388457827E+01  0.57644276380E+01 -0.24518275028E+03  0.24531306454E+03  0.10566000000E+00 0. -1.
        -13    1    4    4    0    0 -0.16235465573E+01  0.17330225102E+01 -0.82234254916E+02  0.82268603465E+02  0.10566000000E+00 0.  1.
         14    1    4    4    0    0 -0.23935915892E+01  0.36073511941E+01 -0.10989731245E+03  0.10998255110E+03  0.00000000000E+00 0. -1.
<mgrwt>
<rscale>  0 0.81066543E+02</rscale>
<asrwt>0</asrwt>
<pdfrwt beam="1">  1        1 0.55827436E-03 0.81066543E+02</pdfrwt>
<pdfrwt beam="2">  1       -2 0.69654458E-01 0.81066543E+02</pdfrwt>
<totfact> 0.52419908E+04</totfact>
</mgrwt>
</event>
<event>
 8    1  0.1319619E-020  0.7887438E+02  0.7818608E-02  0.1332276E+00
         -2   -1    0    0    0  501 -0.00000000000E+00  0.00000000000E+00  0.54406727708E+01  0.54406733684E+01  0.25500000000E-02 0.  1.
          1   -1    0    0  501    0  0.00000000000E+00 -0.00000000000E+00 -0.28586387217E+03  0.28586387221E+03  0.50400000000E-02 0. -1.
        -24    2    1    2    0    0  0.00000000000E+00  0.00000000000E+00 -0.28042319939E+03  0.29130454558E+03  0.78874378070E+02 0.  0.
         66    2    3    3    0    0  0.80141896603E+01 -0.38199205059E+02 -0.12011297391E+03  0.12631125462E+03  0.20000096192E+01 0.  0.
         13    1    3    3    0    0 -0.80141896603E+01  0.38199205059E+02 -0.16031022549E+03  0.16499329096E+03  0.10566000000E+00 0. -1.
         13    1    4    4    0    0  0.11639098446E+01 -0.84714263916E+01 -0.27447889968E+02  0.28749218754E+02  0.10566000000E+00 0. -1.
        -13    1    4    4    0    0  0.15520283810E+01 -0.84135382203E+01 -0.25480215093E+02  0.26878410346E+02  0.10566000000E+00 0.  1.
        -14    1    4    4    0    0  0.52982514347E+01 -0.21314240447E+02 -0.67184868846E+02  0.70683625515E+02  0.00000000000E+00 0.  1.
<mgrwt>
<rscale>  0 0.78874378E+02</rscale>
<asrwt>0</asrwt>
<pdfrwt beam="1">  1        1 0.43979046E-01 0.78874378E+02</pdfrwt>
<pdfrwt beam="2">  1       -2 0.83702685E-03 0.78874378E+02</pdfrwt>
<totfact> 0.18555928E+05</totfact>
</mgrwt>
</event>
<event>
 8    1  0.1319619E-020  0.7987066E+02  0.7818608E-02  0.1329419E+00
         -2   -1    0    0    0  501 -0.00000000000E+00  0.00000000000E+00  0.84651536398E+01  0.84651540239E+01  0.25500000000E-02 0.  1.
          1   -1    0    0  501    0  0.00000000000E+00 -0.00000000000E+00 -0.18839949596E+03  0.18839949602E+03  0.50400000000E-02 0. -1.
        -24    2    1    2    0    0 -0.35527136788E-14  0.00000000000E+00 -0.17993434232E+03  0.19686465005E+03  0.79870663535E+02 0.  0.
         66    2    3    3    0    0  0.23519427871E+02  0.16838885556E+02 -0.22247704393E+02  0.36546845367E+02  0.20000003424E+01 0.  0.
         13    1    3    3    0    0 -0.23519427871E+02 -0.16838885556E+02 -0.15768663792E+03  0.16031780468E+03  0.10566000000E+00 0. -1.
         13    1    4    4    0    0  0.96333634577E+01  0.69984877515E+01 -0.84631444411E+01  0.14608781612E+02  0.10566000000E+00 0. -1.
        -13    1    4    4    0    0  0.87503897948E+01  0.65339352780E+01 -0.81369051598E+01  0.13619178440E+02  0.10566000000E+00 0.  1.
        -14    1    4    4    0    0  0.51356746182E+01  0.33064625262E+01 -0.56476547926E+01  0.83188853146E+01  0.00000000000E+00 0.  1.
<mgrwt>
<rscale>  0 0.79870664E+02</rscale>
<asrwt>0</asrwt>
<pdfrwt beam="1">  1        1 0.28984535E-01 0.79870664E+02</pdfrwt>
<pdfrwt beam="2">  1       -2 0.13023315E-02 0.79870664E+02</pdfrwt>
<totfact> 0.16553309E+05</totfact>
</mgrwt>
</event>
<event>
 8    1  0.2035568E-020  0.8049841E+02  0.7818608E-02  0.1327643E+00
          1   -1    0    0  501    0  0.00000000000E+00  0.00000000000E+00  0.58925152488E+02  0.58925152704E+02  0.50400000000E-02 0. -1.
         -2   -1    0    0    0  501 -0.00000000000E+00 -0.00000000000E+00 -0.27492480726E+02  0.27492480844E+02  0.25500000000E-02 0.  1.
        -24    2    1    2    0    0  0.00000000000E+00  0.00000000000E+00  0.31432671762E+02  0.86417633548E+02  0.80498413239E+02 0.  0.
         66    2    3    3    0    0 -0.14390621936E+02 -0.48494060199E+01 -0.24260530914E+02  0.28691116878E+02  0.20000222538E+01 0.  0.
         13    1    3    3    0    0  0.14390621936E+02  0.48494060199E+01  0.55693202676E+02  0.57726516670E+02  0.10566000000E+00 0. -1.
         13    1    4    4    0    0 -0.10163884821E+01 -0.13965792616E+00 -0.10591835151E+01  0.14783719549E+01  0.10566000000E+00 0. -1.
        -13    1    4    4    0    0 -0.41899129011E+01 -0.17619965580E+01 -0.66460767106E+01  0.80524220994E+01  0.10566000000E+00 0.  1.
        -14    1    4    4    0    0 -0.91843205524E+01 -0.29477515357E+01 -0.16555270689E+02  0.19160322824E+02  0.00000000000E+00 0.  1.
<mgrwt>
<rscale>  0 0.80498413E+02</rscale>
<asrwt>0</asrwt>
<pdfrwt beam="1">  1        1 0.90654080E-02 0.80498413E+02</pdfrwt>
<pdfrwt beam="2">  1       -2 0.42296125E-02 0.80498413E+02</pdfrwt>
<totfact> 0.13270766E+05</totfact>
</mgrwt>
</event>
<event>
 8    1  0.1742279E-020  0.7967485E+02  0.7818608E-02  0.1329977E+00
         -2   -1    0    0    0  501 -0.00000000000E+00  0.00000000000E+00  0.31079514401E+02  0.31079514506E+02  0.25500000000E-02 0.  1.
          1   -1    0    0  501    0  0.00000000000E+00 -0.00000000000E+00 -0.51063231016E+02  0.51063231265E+02  0.50400000000E-02 0. -1.
        -24    2    1    2    0    0  0.00000000000E+00  0.35527136788E-14 -0.19983716614E+02  0.82142745770E+02  0.79674850191E+02 0.  0.
         66    2    3    3    0    0 -0.11494245377E+02 -0.23905743957E+02  0.20610059578E+02  0.33650807260E+02  0.20000006363E+01 0.  0.
         13    1    3    3    0    0  0.11494245377E+02  0.23905743957E+02 -0.40593776192E+02  0.48491938510E+02  0.10566000000E+00 0. -1.
         13    1    4    4    0    0 -0.51059500503E+00 -0.65826333242E+00  0.49900282424E+00  0.97682430773E+00  0.10566000000E+00 0. -1.
        -13    1    4    4    0    0 -0.54638225657E+01 -0.11147523986E+02  0.88370172019E+01  0.15238920077E+02  0.10566000000E+00 0.  1.
        -14    1    4    4    0    0 -0.55198278059E+01 -0.12099956639E+02  0.11274039551E+02  0.17435062876E+02  0.00000000000E+00 0.  1.
<mgrwt>
<rscale>  0 0.79674850E+02</rscale>
<asrwt>0</asrwt>
<pdfrwt beam="1">  1        1 0.78558817E-02 0.79674850E+02</pdfrwt>
<pdfrwt beam="2">  1       -2 0.47814638E-02 0.79674850E+02</pdfrwt>
<totfact> 0.13350869E+05</totfact>
</mgrwt>
</event>
<event>
 8    1  0.1319619E-020  0.7941100E+02  0.7818608E-02  0.1330731E+00
         -2   -1    0    0    0  501 -0.00000000000E+00  0.00000000000E+00  0.13005997530E+02  0.13005997780E+02  0.25500000000E-02 0.  1.
          1   -1    0    0  501    0  0.00000000000E+00 -0.00000000000E+00 -0.12121536701E+03  0.12121536712E+03  0.50400000000E-02 0. -1.
        -24    2    1    2    0    0  0.00000000000E+00  0.00000000000E+00 -0.10820936948E+03  0.13422136490E+03  0.79411001448E+02 0.  0.
         66    2    3    3    0    0  0.23355022385E+02  0.16300155876E+02 -0.74398160590E+01  0.29504287907E+02  0.19999974305E+01 0.  0.
         13    1    3    3    0    0 -0.23355022385E+02 -0.16300155876E+02 -0.10076955342E+03  0.10471707699E+03  0.10566000000E+00 0. -1.
         13    1    4    4    0    0  0.64139335539E+01  0.41782886796E+01 -0.23381866651E+01  0.80046811829E+01  0.10566000000E+00 0. -1.
        -13    1    4    4    0    0  0.15072828072E+02  0.10829466802E+02 -0.40528482383E+01  0.18997479837E+02  0.10566000000E+00 0.  1.
        -14    1    4    4    0    0  0.18682607591E+01  0.12924003945E+01 -0.10487811556E+01  0.25021268865E+01  0.00000000000E+00 0.  1.
<mgrwt>
<rscale>  0 0.79411001E+02</rscale>
<asrwt>0</asrwt>
<pdfrwt beam="1">  1        1 0.18648517E-01 0.79411001E+02</pdfrwt>
<pdfrwt beam="2">  1       -2 0.20009228E-02 0.79411001E+02</pdfrwt>
<totfact> 0.15497801E+05</totfact>
</mgrwt>
</event>
<event>
 8    1  0.1319619E-020  0.7984323E+02  0.7818608E-02  0.1329497E+00
         -2   -1    0    0    0  501 -0.00000000000E+00  0.00000000000E+00  0.90951722311E+01  0.90951725886E+01  0.25500000000E-02 0.  1.
          1   -1    0    0  501    0  0.00000000000E+00 -0.00000000000E+00 -0.17522871437E+03  0.17522871445E+03  0.50400000000E-02 0. -1.
        -24    2    1    2    0    0  0.00000000000E+00  0.71054273576E-14 -0.16613354214E+03  0.18432388703E+03  0.79843230814E+02 0.  0.
         66    2    3    3    0    0  0.11853164276E+02  0.35288784889E+02 -0.11624773322E+03  0.12207920101E+03  0.19999996098E+01 0.  0.
         13    1    3    3    0    0 -0.11853164276E+02 -0.35288784889E+02 -0.49885808925E+02  0.62244686025E+02  0.10566000000E+00 0. -1.
         13    1    4    4    0    0  0.42655941401E+01  0.12537756959E+02 -0.43978399271E+02  0.45929308828E+02  0.10566000000E+00 0. -1.
        -13    1    4    4    0    0  0.59867968994E+00  0.19091624910E+01 -0.67602701749E+01  0.70509386369E+01  0.10566000000E+00 0.  1.
        -14    1    4    4    0    0  0.69888904455E+01  0.20841865440E+02 -0.65509063772E+02  0.69098953544E+02  0.00000000000E+00 0.  1.
<mgrwt>
<rscale>  0 0.79843231E+02</rscale>
<asrwt>0</asrwt>
<pdfrwt beam="1">  1        1 0.26958261E-01 0.79843231E+02</pdfrwt>
<pdfrwt beam="2">  1       -2 0.13992574E-02 0.79843231E+02</pdfrwt>
<totfact> 0.16339917E+05</totfact>
</mgrwt>
</event>
<event>
 8    1  0.1319619E-020  0.7840128E+02  0.7818608E-02  0.1333651E+00
          1   -1    0    0  501    0  0.00000000000E+00  0.00000000000E+00  0.30593211092E+03  0.30593211097E+03  0.50400000000E-02 0. -1.
         -2   -1    0    0    0  501 -0.00000000000E+00 -0.00000000000E+00 -0.50229770536E+01  0.50229777009E+01  0.25500000000E-02 0.  1.
        -24    2    1    2    0    0  0.00000000000E+00  0.35527136788E-14  0.30090913387E+03  0.31095508867E+03  0.78401277546E+02 0.  0.
         66    2    3    3    0    0 -0.23592531640E+02  0.26935485397E+02  0.87521168914E+02  0.94583735029E+02  0.20000002924E+01 0.  0.
         13    1    3    3    0    0  0.23592531640E+02 -0.26935485397E+02  0.21338796496E+03  0.21637135364E+03  0.10566000000E+00 0. -1.
         13    1    4    4    0    0 -0.14570650272E+02  0.17481263891E+02  0.55214369200E+02  0.59720483644E+02  0.10566000000E+00 0. -1.
        -13    1    4    4    0    0 -0.72205946750E+01  0.80002181213E+01  0.27140757313E+02  0.29202266162E+02  0.10566000000E+00 0.  1.
         14    1    4    4    0    0 -0.18012866928E+01  0.14540033847E+01  0.51660424014E+01  0.56609852221E+01  0.00000000000E+00 0. -1.
<mgrwt>
<rscale>  0 0.78401278E+02</rscale>
<asrwt>0</asrwt>
<pdfrwt beam="1">  1        1 0.47066485E-01 0.78401278E+02</pdfrwt>
<pdfrwt beam="2">  1       -2 0.77276564E-03 0.78401278E+02</pdfrwt>
<totfact> 0.19097251E+05</totfact>
</mgrwt>
</event>
<event>
 8    1  0.1319619E-020  0.7257797E+02  0.7818608E-02  0.1351540E+00
          1   -1    0    0  501    0  0.00000000000E+00  0.00000000000E+00  0.37474771608E+03  0.37474771611E+03  0.50400000000E-02 0. -1.
         -2   -1    0    0    0  501 -0.00000000000E+00 -0.00000000000E+00 -0.35140718128E+01  0.35140727380E+01  0.25500000000E-02 0.  1.
        -24    2    1    2    0    0  0.00000000000E+00  0.00000000000E+00  0.37123364426E+03  0.37826178885E+03  0.72577973721E+02 0.  0.
         66    2    3    3    0    0 -0.29380835880E+02  0.15475108163E+02  0.26167331500E+03  0.26377952209E+03  0.20000003800E+01 0.  0.
         13    1    3    3    0    0  0.29380835880E+02 -0.15475108163E+02  0.10956032927E+03  0.11448226676E+03  0.10566000000E+00 0. -1.
         13    1    4    4    0    0 -0.52141478886E+01  0.24998401498E+01  0.50053309459E+02  0.50386322458E+02  0.10566000000E+00 0. -1.
        -13    1    4    4    0    0 -0.72760137625E+01  0.39962903236E+01  0.67988242977E+02  0.68493233679E+02  0.10566000000E+00 0.  1.
        -14    1    4    4    0    0 -0.16890674229E+02  0.89789776895E+01  0.14363176256E+03  0.14489996595E+03  0.00000000000E+00 0.  1.
<mgrwt>
<rscale>  0 0.72577974E+02</rscale>
<asrwt>0</asrwt>
<pdfrwt beam="1">  1        1 0.57653448E-01 0.72577974E+02</pdfrwt>
<pdfrwt beam="2">  1       -2 0.54062695E-03 0.72577974E+02</pdfrwt>
<totfact> 0.24231464E+05</totfact>
</mgrwt>
</event>
<event>
 8    1  0.1319619E-020  0.7837515E+02  0.7818608E-02  0.1333727E+00
          1   -1    0    0  501    0  0.00000000000E+00  0.00000000000E+00  0.56484271896E+02  0.56484272120E+02  0.50400000000E-02 0. -1.
         -2   -1    0    0    0  501 -0.00000000000E+00 -0.00000000000E+00 -0.27187499043E+02  0.27187499162E+02  0.25500000000E-02 0.  1.
        -24    2    1    2    0    0  0.00000000000E+00  0.00000000000E+00  0.29296772853E+02  0.83671771283E+02  0.78375151738E+02 0.  0.
         66    2    3    3    0    0  0.17676573112E+02 -0.80099256364E+01 -0.21656173065E+02  0.29148069946E+02  0.20000010212E+01 0.  0.
         13    1    3    3    0    0 -0.17676573112E+02  0.80099256364E+01  0.50952945918E+02  0.54523701337E+02  0.10566000000E+00 0. -1.
         13    1    4    4    0    0  0.88231599570E+01 -0.40692797185E+01 -0.12212534778E+02  0.15606548586E+02  0.10566000000E+00 0.  1.
        -13    1    4    4    0    0  0.24908112582E+01 -0.98201506390E+00 -0.28719540371E+01  0.39278210673E+01  0.10566000000E+00 0.  1.
         14    1    4    4    0    0  0.63626018966E+01 -0.29586308540E+01 -0.65716842503E+01  0.96137002923E+01  0.00000000000E+00 0. -1.
<mgrwt>
<rscale>  0 0.78375152E+02</rscale>
<asrwt>0</asrwt>
<pdfrwt beam="1">  1        1 0.86898879E-02 0.78375152E+02</pdfrwt>
<pdfrwt beam="2">  1       -2 0.41826922E-02 0.78375152E+02</pdfrwt>
<totfact> 0.14192538E+05</totfact>
</mgrwt>
</event>
<event>
 8    1  0.1319619E-020  0.6987041E+02  0.7818608E-02  0.1360534E+00
         -2   -1    0    0    0  501 -0.00000000000E+00  0.00000000000E+00  0.80769449010E+01  0.80769453036E+01  0.25500000000E-02 0.  1.
          1   -1    0    0  501    0  0.00000000000E+00 -0.00000000000E+00 -0.15110520312E+03  0.15110520321E+03  0.50400000000E-02 0. -1.
        -24    2    1    2    0    0  0.00000000000E+00  0.00000000000E+00 -0.14302825822E+03  0.15918214851E+03  0.69870406857E+02 0.  0.
         66    2    3    3    0    0  0.21862304552E+02  0.19021457595E+02 -0.27238087944E+02  0.39820718784E+02  0.20000000629E+01 0.  0.
         13    1    3    3    0    0 -0.21862304552E+02 -0.19021457595E+02 -0.11579017028E+03  0.11936142973E+03  0.10566000000E+00 0. -1.
         13    1    4    4    0    0  0.71029929937E+01  0.70211492671E+01 -0.95913473533E+01  0.13847532437E+02  0.10566000000E+00 0. -1.
        -13    1    4    4    0    0  0.14491686333E+02  0.11743129976E+02 -0.17053301099E+02  0.25273233208E+02  0.10566000000E+00 0.  1.
         14    1    4    4    0    0  0.26762522604E+00  0.25717835198E+00 -0.59343949182E+00  0.69995313900E+00  0.00000000000E+00 0. -1.
<mgrwt>
<rscale>  0 0.69870407E+02</rscale>
<asrwt>0</asrwt>
<pdfrwt beam="1">  1        1 0.23246952E-01 0.69870407E+02</pdfrwt>
<pdfrwt beam="2">  1       -2 0.12426071E-02 0.69870407E+02</pdfrwt>
<totfact> 0.22625874E+05</totfact>
</mgrwt>
</event>
<event>
 8    1  0.1319619E-020  0.8004713E+02  0.7818608E-02  0.1328918E+00
          1   -1    0    0  501    0  0.00000000000E+00  0.00000000000E+00  0.58344220064E+01  0.58344241833E+01  0.50400000000E-02 0. -1.
         -2   -1    0    0    0  501 -0.00000000000E+00 -0.00000000000E+00 -0.27455768852E+03  0.27455768854E+03  0.25500000000E-02 0.  1.
        -24    2    1    2    0    0  0.00000000000E+00 -0.17763568394E-14 -0.26872326652E+03  0.28039211272E+03  0.80047129288E+02 0.  0.
         66    2    3    3    0    0  0.37795324852E+02  0.11224803659E+02 -0.15804670190E+03  0.16290255608E+03  0.20000001442E+01 0.  0.
         13    1    3    3    0    0 -0.37795324852E+02 -0.11224803659E+02 -0.11067656462E+03  0.11748955664E+03  0.10566000000E+00 0. -1.
         13    1    4    4    0    0  0.70650946895E+01  0.22728969576E+01 -0.30862012207E+02  0.31742031836E+02  0.10566000000E+00 0.  1.
        -13    1    4    4    0    0  0.21087012583E+02  0.54070146694E+01 -0.87521556940E+02  0.90188314102E+02  0.10566000000E+00 0.  1.
         14    1    4    4    0    0  0.96432175794E+01  0.35448920323E+01 -0.39663132749E+02  0.40972210146E+02  0.00000000000E+00 0. -1.
<mgrwt>
<rscale>  0 0.80047129E+02</rscale>
<asrwt>0</asrwt>
<pdfrwt beam="1">  1        1 0.89760377E-03 0.80047129E+02</pdfrwt>
<pdfrwt beam="2">  1       -2 0.42239634E-01 0.80047129E+02</pdfrwt>
<totfact> 0.73517861E+04</totfact>
</mgrwt>
</event>
<event>
 8    1  0.1319619E-020  0.8111481E+02  0.7818608E-02  0.1325917E+00
          1   -1    0    0  501    0  0.00000000000E+00  0.00000000000E+00  0.14736667142E+03  0.14736667151E+03  0.50400000000E-02 0. -1.
         -2   -1    0    0    0  501 -0.00000000000E+00 -0.00000000000E+00 -0.11161973476E+02  0.11161973767E+02  0.25500000000E-02 0.  1.
        -24    2    1    2    0    0  0.00000000000E+00  0.00000000000E+00  0.13620469794E+03  0.15852864527E+03  0.81114805246E+02 0.  0.
         66    2    3    3    0    0 -0.27529282868E+02  0.27568671904E+02  0.46292649554E+02  0.60538438132E+02  0.20000007527E+01 0.  0.
         13    1    3    3    0    0  0.27529282868E+02 -0.27568671904E+02  0.89912048391E+02  0.97990207142E+02  0.10566000000E+00 0. -1.
         13    1    4    4    0    0 -0.24793030655E+00  0.20510778176E+00  0.33354718565E+00  0.47534871379E+00  0.10566000000E+00 0.  1.
        -13    1    4    4    0    0 -0.20848285250E+02  0.21376168882E+02  0.34652702099E+02  0.45742895850E+02  0.10566000000E+00 0.  1.
        -14    1    4    4    0    0 -0.64330673109E+01  0.59873952403E+01  0.11306400269E+02  0.14320193568E+02  0.00000000000E+00 0.  1.
<mgrwt>
<rscale>  0 0.81114805E+02</rscale>
<asrwt>0</asrwt>
<pdfrwt beam="1">  1        1 0.22671795E-01 0.81114805E+02</pdfrwt>
<pdfrwt beam="2">  1       -2 0.17172268E-02 0.81114805E+02</pdfrwt>
<totfact> 0.15165020E+05</totfact>
</mgrwt>
</event>
<event>
 8    1  0.1319619E-020  0.8154078E+02  0.7818608E-02  0.1324735E+00
          1   -1    0    0  501    0  0.00000000000E+00  0.00000000000E+00  0.10397586628E+03  0.10397586641E+03  0.50400000000E-02 0. -1.
         -2   -1    0    0    0  501 -0.00000000000E+00 -0.00000000000E+00 -0.15986638618E+02  0.15986638821E+02  0.25500000000E-02 0.  1.
        -24    2    1    2    0    0  0.00000000000E+00  0.00000000000E+00  0.87989227667E+02  0.11996250523E+03  0.81540777990E+02 0.  0.
         66    2    3    3    0    0  0.45513819158E+01  0.32652188421E+02  0.87939410962E+01  0.34179143991E+02  0.19999994912E+01 0.  0.
         13    1    3    3    0    0 -0.45513819158E+01 -0.32652188421E+02  0.79195286571E+02  0.85783361237E+02  0.10566000000E+00 0. -1.
         13    1    4    4    0    0  0.14845383679E+01  0.75181841179E+01  0.27490735076E+01  0.81422058303E+01  0.10566000000E+00 0. -1.
        -13    1    4    4    0    0  0.23581385351E+01  0.18302883772E+02  0.42193638367E+01  0.18930677932E+02  0.10566000000E+00 0.  1.
         14    1    4    4    0    0  0.70870501283E+00  0.68311205307E+01  0.18255037518E+01  0.71062602294E+01  0.00000000000E+00 0. -1.
<mgrwt>
<rscale>  0 0.81540778E+02</rscale>
<asrwt>0</asrwt>
<pdfrwt beam="1">  1        1 0.15996287E-01 0.81540778E+02</pdfrwt>
<pdfrwt beam="2">  1       -2 0.24594829E-02 0.81540778E+02</pdfrwt>
<totfact> 0.14052703E+05</totfact>
</mgrwt>
</event>
<event>
 8    1  0.1319619E-020  0.7936117E+02  0.7818608E-02  0.1330874E+00
          1   -1    0    0  501    0  0.00000000000E+00  0.00000000000E+00  0.18399449334E+03  0.18399449341E+03  0.50400000000E-02 0. -1.
         -2   -1    0    0    0  501 -0.00000000000E+00 -0.00000000000E+00 -0.85575873763E+01  0.85575877562E+01  0.25500000000E-02 0.  1.
        -24    2    1    2    0    0 -0.35527136788E-14 -0.71054273576E-14  0.17543690596E+03  0.19255208117E+03  0.79361174304E+02 0.  0.
         66    2    3    3    0    0  0.17233120005E+02  0.21228909626E+02  0.18088896480E+02  0.32845931373E+02  0.20000007235E+01 0.  0.
         13    1    3    3    0    0 -0.17233120005E+02 -0.21228909626E+02  0.15734800948E+03  0.15970614979E+03  0.10566000000E+00 0. -1.
         13    1    4    4    0    0  0.94167235707E+01  0.11586962531E+02  0.90997456106E+01  0.17485677502E+02  0.10566000000E+00 0.  1.
        -13    1    4    4    0    0  0.33995360472E+01  0.35725802794E+01  0.31844575376E+01  0.58712953455E+01  0.10566000000E+00 0. -1.
        -14    1    4    4    0    0  0.44168603867E+01  0.60693668150E+01  0.58046933315E+01  0.94889585247E+01  0.00000000000E+00 0.  1.
<mgrwt>
<rscale>  0 0.79361174E+02</rscale>
<asrwt>0</asrwt>
<pdfrwt beam="1">  1        1 0.28306846E-01 0.79361174E+02</pdfrwt>
<pdfrwt beam="2">  1       -2 0.13165519E-02 0.79361174E+02</pdfrwt>
<totfact> 0.16760808E+05</totfact>
</mgrwt>
</event>
<event>
 8    1  0.1319619E-020  0.7987302E+02  0.7818608E-02  0.1329412E+00
         -2   -1    0    0    0  501 -0.00000000000E+00  0.00000000000E+00  0.15108374721E+02  0.15108374937E+02  0.25500000000E-02 0.  1.
          1   -1    0    0  501    0  0.00000000000E+00 -0.00000000000E+00 -0.10556561451E+03  0.10556561463E+03  0.50400000000E-02 0. -1.
        -24    2    1    2    0    0  0.00000000000E+00  0.00000000000E+00 -0.90457239788E+02  0.12067398957E+03  0.79873021276E+02 0.  0.
         66    2    3    3    0    0 -0.24053438965E+02  0.24367829433E+02 -0.14273573985E+02  0.37149615061E+02  0.19999868797E+01 0.  0.
         13    1    3    3    0    0  0.24053438965E+02 -0.24367829433E+02 -0.76183665803E+02  0.83524374506E+02  0.10566000000E+00 0. -1.
         13    1    4    4    0    0 -0.20257697494E+01  0.13863619577E+01 -0.10332611348E+01  0.26654333913E+01  0.10566000000E+00 0. -1.
        -13    1    4    4    0    0 -0.10639135070E+02  0.10676493255E+02 -0.64546605455E+01  0.16396722540E+02  0.10566000000E+00 0.  1.
        -14    1    4    4    0    0 -0.11388534146E+02  0.12304974220E+02 -0.67856523045E+01  0.18087459129E+02  0.00000000000E+00 0.  1.
<mgrwt>
<rscale>  0 0.79873021E+02</rscale>
<asrwt>0</asrwt>
<pdfrwt beam="1">  1        1 0.16240863E-01 0.79873021E+02</pdfrwt>
<pdfrwt beam="2">  1       -2 0.23243654E-02 0.79873021E+02</pdfrwt>
<totfact> 0.14898144E+05</totfact>
</mgrwt>
</event>
<event>
 8    1  0.1319619E-020  0.7969246E+02  0.7818608E-02  0.1329926E+00
         -2   -1    0    0    0  501 -0.00000000000E+00  0.00000000000E+00  0.30844528294E+03  0.30844528296E+03  0.25500000000E-02 0.  1.
          1   -1    0    0  501    0  0.00000000000E+00 -0.00000000000E+00 -0.51474990308E+01  0.51475014982E+01  0.50400000000E-02 0. -1.
        -24    2    1    2    0    0  0.00000000000E+00  0.00000000000E+00  0.30329778391E+03  0.31359278445E+03  0.79692463472E+02 0.  0.
         66    2    3    3    0    0 -0.20612565497E+02 -0.75735132676E+01  0.28246090408E+03  0.28332031041E+03  0.19999990779E+01 0.  0.
         13    1    3    3    0    0  0.20612565497E+02  0.75735132676E+01  0.20836879832E+02  0.30272474044E+02  0.10566000000E+00 0. -1.
         13    1    4    4    0    0 -0.29737672665E+01 -0.80834937365E+00  0.38309878202E+02  0.38433769687E+02  0.10566000000E+00 0.  1.
        -13    1    4    4    0    0 -0.25611617737E+01 -0.11519616278E+01  0.29581166576E+02  0.29714359244E+02  0.10566000000E+00 0. -1.
         14    1    4    4    0    0 -0.15077636456E+02 -0.56132022662E+01  0.21456985930E+03  0.21517218148E+03  0.00000000000E+00 0. -1.
<mgrwt>
<rscale>  0 0.79692463E+02</rscale>
<asrwt>0</asrwt>
<pdfrwt beam="1">  1        1 0.79192302E-03 0.79692463E+02</pdfrwt>
<pdfrwt beam="2">  1       -2 0.47453126E-01 0.79692463E+02</pdfrwt>
<totfact> 0.69898436E+04</totfact>
</mgrwt>
</event>
<event>
 8    1  0.1319619E-020  0.7923804E+02  0.7818608E-02  0.1331228E+00
          1   -1    0    0  501    0  0.00000000000E+00  0.00000000000E+00  0.10447803142E+02  0.10447804358E+02  0.50400000000E-02 0. -1.
         -2   -1    0    0    0  501 -0.00000000000E+00 -0.00000000000E+00 -0.15023893022E+03  0.15023893025E+03  0.25500000000E-02 0.  1.
        -24    2    1    2    0    0 -0.71054273576E-14  0.71054273576E-14 -0.13979112708E+03  0.16068673460E+03  0.79238043051E+02 0.  0.
         66    2    3    3    0    0  0.24307272619E+02 -0.29292780382E+02 -0.92038616711E+02  0.99619362829E+02  0.19999998968E+01 0.  0.
         13    1    3    3    0    0 -0.24307272619E+02  0.29292780382E+02 -0.47752510370E+02  0.61067371774E+02  0.10566000000E+00 0. -1.
         13    1    4    4    0    0  0.70661417697E+01 -0.79304991278E+01 -0.24308313087E+02  0.26527880147E+02  0.10566000000E+00 0. -1.
        -13    1    4    4    0    0  0.67775732246E+01 -0.77090530820E+01 -0.24374961580E+02  0.26448344264E+02  0.10566000000E+00 0.  1.
         14    1    4    4    0    0  0.10463557625E+02 -0.13653228172E+02 -0.43355342044E+02  0.46643138417E+02  0.00000000000E+00 0. -1.
<mgrwt>
<rscale>  0 0.79238043E+02</rscale>
<asrwt>0</asrwt>
<pdfrwt beam="1">  1        1 0.16073545E-02 0.79238043E+02</pdfrwt>
<pdfrwt beam="2">  1       -2 0.23113680E-01 0.79238043E+02</pdfrwt>
<totfact> 0.96815666E+04</totfact>
</mgrwt>
</event>
<event>
 8    1  0.1319619E-020  0.7805390E+02  0.7818608E-02  0.1334667E+00
         -2   -1    0    0    0  501 -0.00000000000E+00  0.00000000000E+00  0.16069601360E+02  0.16069601563E+02  0.25500000000E-02 0.  1.
          1   -1    0    0  501    0  0.00000000000E+00 -0.00000000000E+00 -0.94781612057E+02  0.94781612191E+02  0.50400000000E-02 0. -1.
        -24    2    1    2    0    0  0.35527136788E-14 -0.17763568394E-14 -0.78712010697E+02  0.11085121375E+03  0.78053897806E+02 0.  0.
         66    2    3    3    0    0  0.23867293244E+02  0.13490337933E+02  0.13047826991E-01  0.27488854694E+02  0.20000144604E+01 0.  0.
         13    1    3    3    0    0 -0.23867293244E+02 -0.13490337933E+02 -0.78725058524E+02  0.83362359059E+02  0.10566000000E+00 0. -1.
         13    1    4    4    0    0  0.62031346505E+01  0.37633692993E+01 -0.15520630385E+00  0.72578978366E+01  0.10566000000E+00 0.  1.
        -13    1    4    4    0    0  0.14712578979E+02  0.74010744698E+01  0.59396258050E-02  0.16469580530E+02  0.10566000000E+00 0. -1.
         14    1    4    4    0    0  0.29515796141E+01  0.23258941639E+01  0.16231450503E+00  0.37613763277E+01  0.00000000000E+00 0. -1.
<mgrwt>
<rscale>  0 0.78053898E+02</rscale>
<asrwt>0</asrwt>
<pdfrwt beam="1">  1        1 0.14581786E-01 0.78053898E+02</pdfrwt>
<pdfrwt beam="2">  1       -2 0.24722464E-02 0.78053898E+02</pdfrwt>
<totfact> 0.15570647E+05</totfact>
</mgrwt>
</event>
<event>
 8    1  0.1319619E-020  0.8210442E+02  0.7818608E-02  0.1323183E+00
          1   -1    0    0  501    0  0.00000000000E+00  0.00000000000E+00  0.12058515431E+03  0.12058515441E+03  0.50400000000E-02 0. -1.
         -2   -1    0    0    0  501 -0.00000000000E+00 -0.00000000000E+00 -0.13975883074E+02  0.13975883307E+02  0.25500000000E-02 0.  1.
        -24    2    1    2    0    0 -0.88817841970E-15  0.00000000000E+00  0.10660927124E+03  0.13456103772E+03  0.82104422289E+02 0.  0.
         66    2    3    3    0    0 -0.53173212200E+01 -0.37225467079E+02  0.26442724520E+02  0.46013334869E+02  0.20000003735E+01 0.  0.
         13    1    3    3    0    0  0.53173212200E+01  0.37225467079E+02  0.80166546715E+02  0.88547702853E+02  0.10566000000E+00 0. -1.
         13    1    4    4    0    0 -0.97682091368E+00 -0.58128153871E+01  0.44389061208E+01  0.73795700014E+01  0.10566000000E+00 0.  1.
        -13    1    4    4    0    0 -0.22554010547E+01 -0.21718564195E+02  0.15411834925E+02  0.26726740998E+02  0.10566000000E+00 0. -1.
         14    1    4    4    0    0 -0.20850992517E+01 -0.96940874976E+01  0.65919834747E+01  0.11907023870E+02  0.00000000000E+00 0. -1.
<mgrwt>
<rscale>  0 0.82104422E+02</rscale>
<asrwt>0</asrwt>
<pdfrwt beam="1">  1        1 0.18551562E-01 0.82104422E+02</pdfrwt>
<pdfrwt beam="2">  1       -2 0.21501359E-02 0.82104422E+02</pdfrwt>
<totfact> 0.14154578E+05</totfact>
</mgrwt>
</event>
<event>
 8    1  0.1319619E-020  0.7968066E+02  0.7818608E-02  0.1329960E+00
          1   -1    0    0  501    0  0.00000000000E+00  0.00000000000E+00  0.16734205376E+02  0.16734206135E+02  0.50400000000E-02 0. -1.
         -2   -1    0    0    0  501 -0.00000000000E+00 -0.00000000000E+00 -0.94850750671E+02  0.94850750705E+02  0.25500000000E-02 0.  1.
        -24    2    1    2    0    0  0.00000000000E+00  0.00000000000E+00 -0.78116545295E+02  0.11158495684E+03  0.79680662297E+02 0.  0.
         66    2    3    3    0    0  0.19901332860E+02 -0.34331700824E+02 -0.43624585943E+02  0.59007060770E+02  0.19999977365E+01 0.  0.
         13    1    3    3    0    0 -0.19901332860E+02  0.34331700824E+02 -0.34491959352E+02  0.52577896069E+02  0.10566000000E+00 0. -1.
         13    1    4    4    0    0  0.65667814314E+01 -0.12247356894E+02 -0.15695901723E+02  0.20964085103E+02  0.10566000000E+00 0. -1.
        -13    1    4    4    0    0  0.89361086745E+00 -0.20891236501E+01 -0.22152999570E+01  0.31751686479E+01  0.10566000000E+00 0.  1.
        -14    1    4    4    0    0  0.12440940561E+02 -0.19995220280E+02 -0.25713384262E+02  0.34867807019E+02  0.00000000000E+00 0.  1.
<mgrwt>
<rscale>  0 0.79680662E+02</rscale>
<asrwt>0</asrwt>
<pdfrwt beam="1">  1        1 0.25744933E-02 0.79680662E+02</pdfrwt>
<pdfrwt beam="2">  1       -2 0.14592423E-01 0.79680662E+02</pdfrwt>
<totfact> 0.10861180E+05</totfact>
</mgrwt>
</event>
<event>
 8    1  0.1319619E-020  0.8323102E+02  0.7818608E-02  0.1320124E+00
          1   -1    0    0  501    0  0.00000000000E+00  0.00000000000E+00  0.17231293176E+03  0.17231293183E+03  0.50400000000E-02 0. -1.
         -2   -1    0    0    0  501 -0.00000000000E+00 -0.00000000000E+00 -0.10050614373E+02  0.10050614696E+02  0.25500000000E-02 0.  1.
        -24    2    1    2    0    0 -0.35527136788E-14  0.00000000000E+00  0.16226231738E+03  0.18236354653E+03  0.83231024619E+02 0.  0.
         66    2    3    3    0    0  0.24978014769E+02  0.15162377203E+02  0.16326904022E+02  0.33531577712E+02  0.20000011708E+01 0.  0.
         13    1    3    3    0    0 -0.24978014769E+02 -0.15162377203E+02  0.14593541336E+03  0.14883196882E+03  0.10566000000E+00 0. -1.
         13    1    4    4    0    0  0.42416751196E+01  0.28351367047E+01  0.35201284360E+01  0.61993770813E+01  0.10566000000E+00 0. -1.
        -13    1    4    4    0    0  0.10470857717E+01  0.51497094815E+00  0.82692392757E+00  0.14340679581E+01  0.10566000000E+00 0. -1.
        -14    1    4    4    0    0  0.19689253877E+02  0.11812269551E+02  0.11979851659E+02  0.25898132673E+02  0.00000000000E+00 0.  1.
<mgrwt>
<rscale>  0 0.83231025E+02</rscale>
<asrwt>0</asrwt>
<pdfrwt beam="1">  1        1 0.26509682E-01 0.83231025E+02</pdfrwt>
<pdfrwt beam="2">  1       -2 0.15462484E-02 0.83231025E+02</pdfrwt>
<totfact> 0.14577918E+05</totfact>
</mgrwt>
</event>
<event>
 8    1  0.1319619E-020  0.7863681E+02  0.7818608E-02  0.1332965E+00
          1   -1    0    0  501    0  0.00000000000E+00  0.00000000000E+00  0.69330373463E+02  0.69330373647E+02  0.50400000000E-02 0. -1.
         -2   -1    0    0    0  501 -0.00000000000E+00 -0.00000000000E+00 -0.22298116857E+02  0.22298117003E+02  0.25500000000E-02 0.  1.
        -24    2    1    2    0    0  0.35527136788E-14  0.00000000000E+00  0.47032256607E+02  0.91628490649E+02  0.78636805232E+02 0.  0.
         66    2    3    3    0    0 -0.20914324100E+02  0.18496322423E+02 -0.86844011537E+01  0.29307707505E+02  0.20000000116E+01 0.  0.
         13    1    3    3    0    0  0.20914324100E+02 -0.18496322423E+02  0.55716657760E+02  0.62320783145E+02  0.10566000000E+00 0. -1.
         13    1    4    4    0    0 -0.11472846900E+02  0.96296989615E+01 -0.45713047218E+01  0.15660948534E+02  0.10566000000E+00 0. -1.
        -13    1    4    4    0    0 -0.88974708297E+01  0.84208072286E+01 -0.41697522970E+01  0.12941135182E+02  0.10566000000E+00 0.  1.
        -14    1    4    4    0    0 -0.54400636994E+00  0.44581623318E+00  0.56655865140E-01  0.70562378883E+00  0.00000000000E+00 0.  1.
<mgrwt>
<rscale>  0 0.78636805E+02</rscale>
<asrwt>0</asrwt>
<pdfrwt beam="1">  1        1 0.10666211E-01 0.78636805E+02</pdfrwt>
<pdfrwt beam="2">  1       -2 0.34304796E-02 0.78636805E+02</pdfrwt>
<totfact> 0.14516272E+05</totfact>
</mgrwt>
</event>
<event>
 8    1  0.1319619E-020  0.8078866E+02  0.7818608E-02  0.1326828E+00
          1   -1    0    0  501    0  0.00000000000E+00  0.00000000000E+00  0.15908027945E+03  0.15908027953E+03  0.50400000000E-02 0. -1.
         -2   -1    0    0    0  501 -0.00000000000E+00 -0.00000000000E+00 -0.10257097038E+02  0.10257097355E+02  0.25500000000E-02 0.  1.
        -24    2    1    2    0    0  0.35527136788E-14  0.00000000000E+00  0.14882318241E+03  0.16933737688E+03  0.80788660013E+02 0.  0.
         66    2    3    3    0    0 -0.21532670014E+02  0.13832740921E+02  0.90180023452E+01  0.27208913384E+02  0.20000004845E+01 0.  0.
         13    1    3    3    0    0  0.21532670014E+02 -0.13832740921E+02  0.13980518007E+03  0.14212846350E+03  0.10566000000E+00 0. -1.
         13    1    4    4    0    0 -0.15169559394E+02  0.96702796130E+01  0.63252904477E+01  0.19069617282E+02  0.10566000000E+00 0. -1.
        -13    1    4    4    0    0 -0.63655777752E+01  0.41992140310E+01  0.27159165840E+01  0.80957609783E+01  0.10566000000E+00 0.  1.
         14    1    4    4    0    0  0.24671551093E-02 -0.36752723406E-01 -0.23204686510E-01  0.43535123844E-01  0.00000000000E+00 0. -1.
<mgrwt>
<rscale>  0 0.80788660E+02</rscale>
<asrwt>0</asrwt>
<pdfrwt beam="1">  1        1 0.24473886E-01 0.80788660E+02</pdfrwt>
<pdfrwt beam="2">  1       -2 0.15780151E-02 0.80788660E+02</pdfrwt>
<totfact> 0.15548974E+05</totfact>
</mgrwt>
</event>
<event>
 8    1  0.1319619E-020  0.7960356E+02  0.7818608E-02  0.1330180E+00
         -2   -1    0    0    0  501 -0.00000000000E+00  0.00000000000E+00  0.20311553416E+02  0.20311553576E+02  0.25500000000E-02 0.  1.
          1   -1    0    0  501    0  0.00000000000E+00 -0.00000000000E+00 -0.77994115085E+02  0.77994115248E+02  0.50400000000E-02 0. -1.
        -24    2    1    2    0    0  0.00000000000E+00  0.00000000000E+00 -0.57682561669E+02  0.98305668824E+02  0.79603558980E+02 0.  0.
         66    2    3    3    0    0  0.27437469540E+02 -0.52229495893E+01  0.61153988232E+01  0.28661682263E+02  0.19999975441E+01 0.  0.
         13    1    3    3    0    0 -0.27437469540E+02  0.52229495893E+01 -0.63797960492E+02  0.69643986561E+02  0.10566000000E+00 0. -1.
         13    1    4    4    0    0  0.98803483989E+01 -0.26267976820E+01  0.23304365195E+01  0.10486345834E+02  0.10566000000E+00 0. -1.
        -13    1    4    4    0    0  0.11013247341E+02 -0.14894965348E+01  0.28444333712E+01  0.11472235273E+02  0.10566000000E+00 0.  1.
         14    1    4    4    0    0  0.65438738008E+01 -0.11066553725E+01  0.94052893252E+00  0.67031011560E+01  0.00000000000E+00 0. -1.
<mgrwt>
<rscale>  0 0.79603559E+02</rscale>
<asrwt>0</asrwt>
<pdfrwt beam="1">  1        1 0.11999095E-01 0.79603559E+02</pdfrwt>
<pdfrwt beam="2">  1       -2 0.31248544E-02 0.79603559E+02</pdfrwt>
<totfact> 0.14304025E+05</totfact>
</mgrwt>
</event>
<event>
 8    1  0.1319619E-020  0.7831257E+02  0.7818608E-02  0.1333909E+00
         -2   -1    0    0    0  501 -0.00000000000E+00  0.00000000000E+00  0.55908736122E+02  0.55908736180E+02  0.25500000000E-02 0.  1.
          1   -1    0    0  501    0  0.00000000000E+00 -0.00000000000E+00 -0.27423523578E+02  0.27423524041E+02  0.50400000000E-02 0. -1.
        -24    2    1    2    0    0  0.00000000000E+00  0.17763568394E-14  0.28485212544E+02  0.83332260221E+02  0.78312567701E+02 0.  0.
         66    2    3    3    0    0 -0.82880624882E+01  0.14497487477E+02  0.51908626368E+02  0.54565324302E+02  0.20000004467E+01 0.  0.
         13    1    3    3    0    0  0.82880624882E+01 -0.14497487477E+02 -0.23423413825E+02  0.28766935919E+02  0.10566000000E+00 0. -1.
         13    1    4    4    0    0 -0.40473411056E+01  0.63906998222E+01  0.22209951684E+02  0.23463058881E+02  0.10566000000E+00 0. -1.
        -13    1    4    4    0    0 -0.16153367746E+01  0.43226957705E+01  0.15792965840E+02  0.16453690944E+02  0.10566000000E+00 0.  1.
        -14    1    4    4    0    0 -0.26253846081E+01  0.37840918840E+01  0.13905708844E+02  0.14648574476E+02  0.00000000000E+00 0.  1.
<mgrwt>
<rscale>  0 0.78312568E+02</rscale>
<asrwt>0</asrwt>
<pdfrwt beam="1">  1        1 0.42190037E-02 0.78312568E+02</pdfrwt>
<pdfrwt beam="2">  1       -2 0.86013440E-02 0.78312568E+02</pdfrwt>
<totfact> 0.12656181E+05</totfact>
</mgrwt>
</event>
<event>
 8    1  0.1319619E-020  0.8501279E+02  0.7818608E-02  0.1315399E+00
          1   -1    0    0  501    0  0.00000000000E+00  0.00000000000E+00  0.12162325353E+02  0.12162326397E+02  0.50400000000E-02 0. -1.
         -2   -1    0    0    0  501 -0.00000000000E+00 -0.00000000000E+00 -0.14855659460E+03  0.14855659462E+03  0.25500000000E-02 0.  1.
        -24    2    1    2    0    0  0.00000000000E+00  0.00000000000E+00 -0.13639426925E+03  0.16071892102E+03  0.85012792509E+02 0.  0.
         66    2    3    3    0    0 -0.22113238246E+02  0.16622886167E+02 -0.12918696782E+03  0.13213095138E+03  0.20000016060E+01 0.  0.
         13    1    3    3    0    0  0.22113238246E+02 -0.16622886167E+02 -0.72073014215E+01  0.28587969639E+02  0.10566000000E+00 0. -1.
         13    1    4    4    0    0 -0.13893419796E+01  0.13744129425E+01 -0.77341362991E+01  0.79779264475E+01  0.10566000000E+00 0. -1.
        -13    1    4    4    0    0 -0.13176078330E+02  0.90782572180E+01 -0.76281791896E+02  0.77941944633E+02  0.10566000000E+00 0.  1.
        -14    1    4    4    0    0 -0.75478179369E+01  0.61702160068E+01 -0.45171039630E+02  0.46211080299E+02  0.00000000000E+00 0.  1.
<mgrwt>
<rscale>  0 0.85012793E+02</rscale>
<asrwt>0</asrwt>
<pdfrwt beam="1">  1        1 0.18711272E-02 0.85012793E+02</pdfrwt>
<pdfrwt beam="2">  1       -2 0.22854859E-01 0.85012793E+02</pdfrwt>
<totfact> 0.81063679E+04</totfact>
</mgrwt>
</event>
<event>
 8    1  0.1319619E-020  0.7791565E+02  0.7818608E-02  0.1335073E+00
          1   -1    0    0  501    0  0.00000000000E+00  0.00000000000E+00  0.56372470088E+01  0.56372492618E+01  0.50400000000E-02 0. -1.
         -2   -1    0    0    0  501 -0.00000000000E+00 -0.00000000000E+00 -0.26922926789E+03  0.26922926790E+03  0.25500000000E-02 0.  1.
        -24    2    1    2    0    0 -0.17763568394E-14  0.00000000000E+00 -0.26359202088E+03  0.27486651716E+03  0.77915651736E+02 0.  0.
         66    2    3    3    0    0  0.10865365546E+02 -0.80414404558E+01 -0.26068086213E+03  0.26103875732E+03  0.20000014439E+01 0.  0.
         13    1    3    3    0    0 -0.10865365546E+02  0.80414404558E+01 -0.29111587452E+01  0.13827759845E+02  0.10566000000E+00 0. -1.
         13    1    4    4    0    0  0.27736760302E+01 -0.14074354155E+01 -0.59118640260E+02  0.59200497830E+02  0.10566000000E+00 0. -1.
        -13    1    4    4    0    0  0.58788987940E+01 -0.51806076897E+01 -0.16001275915E+03  0.16020453927E+03  0.10566000000E+00 0.  1.
        -14    1    4    4    0    0  0.22127907214E+01 -0.14533973506E+01 -0.41549462723E+02  0.41633720219E+02  0.00000000000E+00 0.  1.
<mgrwt>
<rscale>  0 0.77915652E+02</rscale>
<asrwt>0</asrwt>
<pdfrwt beam="1">  1        1 0.86726916E-03 0.77915652E+02</pdfrwt>
<pdfrwt beam="2">  1       -2 0.41419877E-01 0.77915652E+02</pdfrwt>
<totfact> 0.79607756E+04</totfact>
</mgrwt>
</event>
<event>
 8    1  0.1319619E-020  0.8111692E+02  0.7818608E-02  0.1325911E+00
          1   -1    0    0  501    0  0.00000000000E+00  0.00000000000E+00  0.46915543154E+02  0.46915543424E+02  0.50400000000E-02 0. -1.
         -2   -1    0    0    0  501 -0.00000000000E+00 -0.00000000000E+00 -0.35062762383E+02  0.35062762476E+02  0.25500000000E-02 0.  1.
        -24    2    1    2    0    0  0.00000000000E+00  0.00000000000E+00  0.11852780771E+02  0.81978305900E+02  0.81116917016E+02 0.  0.
         66    2    3    3    0    0 -0.29025578214E+02 -0.10121496485E+02 -0.20771306224E+02  0.37153412168E+02  0.19999979255E+01 0.  0.
         13    1    3    3    0    0  0.29025578214E+02  0.10121496485E+02  0.32624086995E+02  0.44824893732E+02  0.10566000000E+00 0. -1.
         13    1    4    4    0    0 -0.64466148785E+01 -0.22375913760E+01 -0.39027731198E+01  0.78618357028E+01  0.10566000000E+00 0. -1.
        -13    1    4    4    0    0 -0.17148162166E+02 -0.61593284602E+01 -0.13439736689E+02  0.22641432796E+02  0.10566000000E+00 0.  1.
        -14    1    4    4    0    0 -0.54308011701E+01 -0.17245766485E+01 -0.34287964159E+01  0.66501436697E+01  0.00000000000E+00 0.  1.
<mgrwt>
<rscale>  0 0.81116917E+02</rscale>
<asrwt>0</asrwt>
<pdfrwt beam="1">  1        1 0.72177759E-02 0.81116917E+02</pdfrwt>
<pdfrwt beam="2">  1       -2 0.53942711E-02 0.81116917E+02</pdfrwt>
<totfact> 0.12530638E+05</totfact>
</mgrwt>
</event>
<event>
 8    1  0.1319619E-020  0.7842809E+02  0.7818608E-02  0.1333572E+00
         -2   -1    0    0    0  501 -0.00000000000E+00  0.00000000000E+00  0.47570100855E+02  0.47570100923E+02  0.25500000000E-02 0.  1.
          1   -1    0    0  501    0  0.00000000000E+00 -0.00000000000E+00 -0.32325790960E+02  0.32325791353E+02  0.50400000000E-02 0. -1.
        -24    2    1    2    0    0 -0.11102230246E-15 -0.71054273576E-14  0.15244309895E+02  0.79895892276E+02  0.78428085648E+02 0.  0.
         66    2    3    3    0    0 -0.71799251706E+00 -0.23584256259E+02  0.39501714686E+02  0.46055598131E+02  0.19999998752E+01 0.  0.
         13    1    3    3    0    0  0.71799251706E+00  0.23584256259E+02 -0.24257404792E+02  0.33840294145E+02  0.10566000000E+00 0. -1.
         13    1    4    4    0    0  0.13974185579E+00 -0.50478549583E+01  0.74358294364E+01  0.89890539496E+01  0.10566000000E+00 0. -1.
        -13    1    4    4    0    0  0.84612211549E-01 -0.26803434784E+00  0.49246672594E+00  0.57679212003E+00  0.10566000000E+00 0. -1.
        -14    1    4    4    0    0 -0.94234658440E+00 -0.18268366953E+02  0.31573418524E+02  0.36489752062E+02  0.00000000000E+00 0.  1.
<mgrwt>
<rscale>  0 0.78428086E+02</rscale>
<asrwt>0</asrwt>
<pdfrwt beam="1">  1        1 0.49731987E-02 0.78428086E+02</pdfrwt>
<pdfrwt beam="2">  1       -2 0.73184771E-02 0.78428086E+02</pdfrwt>
<totfact> 0.12967199E+05</totfact>
</mgrwt>
</event>
<event>
 8    1  0.1319619E-020  0.7827167E+02  0.7818608E-02  0.1334029E+00
         -2   -1    0    0    0  501 -0.00000000000E+00  0.00000000000E+00  0.91668655453E+01  0.91668659000E+01  0.25500000000E-02 0.  1.
          1   -1    0    0  501    0  0.00000000000E+00 -0.00000000000E+00 -0.16708148562E+03  0.16708148570E+03  0.50400000000E-02 0. -1.
        -24    2    1    2    0    0  0.00000000000E+00  0.00000000000E+00 -0.15791462008E+03  0.17624835160E+03  0.78271669249E+02 0.  0.
         66    2    3    3    0    0 -0.24193854862E+02  0.85530327461E+01 -0.12549171276E+02  0.28635270025E+02  0.20000018655E+01 0.  0.
         13    1    3    3    0    0  0.24193854862E+02 -0.85530327461E+01 -0.14536544880E+03  0.14761308157E+03  0.10566000000E+00 0. -1.
         13    1    4    4    0    0 -0.32673641899E+01  0.96587241842E+00 -0.10277154596E+01  0.35603288303E+01  0.10566000000E+00 0. -1.
        -13    1    4    4    0    0 -0.67566113476E+01  0.25281356555E+01 -0.40960121880E+01  0.82964900214E+01  0.10566000000E+00 0.  1.
         14    1    4    4    0    0 -0.14169879325E+02  0.50590246722E+01 -0.74254436282E+01  0.16778451174E+02  0.00000000000E+00 0. -1.
<mgrwt>
<rscale>  0 0.78271669E+02</rscale>
<asrwt>0</asrwt>
<pdfrwt beam="1">  1        1 0.25704842E-01 0.78271669E+02</pdfrwt>
<pdfrwt beam="2">  1       -2 0.14102872E-02 0.78271669E+02</pdfrwt>
<totfact> 0.17073507E+05</totfact>
</mgrwt>
</event>
<event>
 8    1  0.1319619E-020  0.7974778E+02  0.7818608E-02  0.1329769E+00
          1   -1    0    0  501    0  0.00000000000E+00  0.00000000000E+00  0.97637892451E+01  0.97637905459E+01  0.50400000000E-02 0. -1.
         -2   -1    0    0    0  501 -0.00000000000E+00 -0.00000000000E+00 -0.16283913026E+03  0.16283913028E+03  0.25500000000E-02 0.  1.
        -24    2    1    2    0    0  0.00000000000E+00 -0.17763568394E-14 -0.15307534102E+03  0.17260292083E+03  0.79747778972E+02 0.  0.
         66    2    3    3    0    0  0.37872797844E+02 -0.12253739368E+02 -0.80587787408E+02  0.89904918813E+02  0.20000006106E+01 0.  0.
         13    1    3    3    0    0 -0.37872797844E+02  0.12253739368E+02 -0.72487553612E+02  0.82698002017E+02  0.10566000000E+00 0. -1.
         13    1    4    4    0    0  0.56183719687E+01 -0.16641470309E+01 -0.12450147290E+02  0.13760553060E+02  0.10566000000E+00 0.  1.
        -13    1    4    4    0    0  0.23087136825E+02 -0.70913570153E+01 -0.47117853089E+02  0.52947204599E+02  0.10566000000E+00 0.  1.
         14    1    4    4    0    0  0.91672890501E+01 -0.34982353219E+01 -0.21019787028E+02  0.23197161154E+02  0.00000000000E+00 0. -1.
<mgrwt>
<rscale>  0 0.79747779E+02</rscale>
<asrwt>0</asrwt>
<pdfrwt beam="1">  1        1 0.15021216E-02 0.79747779E+02</pdfrwt>
<pdfrwt beam="2">  1       -2 0.25052172E-01 0.79747779E+02</pdfrwt>
<totfact> 0.92670339E+04</totfact>
</mgrwt>
</event>
<event>
 8    1  0.1319619E-020  0.7957813E+02  0.7818608E-02  0.1330253E+00
          1   -1    0    0  501    0  0.00000000000E+00  0.00000000000E+00  0.12876944340E+03  0.12876944350E+03  0.50400000000E-02 0. -1.
         -2   -1    0    0    0  501 -0.00000000000E+00 -0.00000000000E+00 -0.12294606841E+02  0.12294607105E+02  0.25500000000E-02 0.  1.
        -24    2    1    2    0    0 -0.71054273576E-14  0.35527136788E-14  0.11647483656E+03  0.14106405060E+03  0.79578130295E+02 0.  0.
         66    2    3    3    0    0  0.38149890854E+02 -0.10984910863E+02  0.54277843067E+02  0.67276791525E+02  0.19999977669E+01 0.  0.
         13    1    3    3    0    0 -0.38149890854E+02  0.10984910863E+02  0.62196993490E+02  0.73787259077E+02  0.10566000000E+00 0. -1.
         13    1    4    4    0    0  0.21166799931E+02 -0.62949819433E+01  0.29328738662E+02  0.36713026196E+02  0.10566000000E+00 0. -1.
        -13    1    4    4    0    0  0.52457457224E+01 -0.99176620908E+00  0.71126749191E+01  0.88939730682E+01  0.10566000000E+00 0. -1.
        -14    1    4    4    0    0  0.11737345201E+02 -0.36981627103E+01  0.17836429486E+02  0.21669792260E+02  0.00000000000E+00 0.  1.
<mgrwt>
<rscale>  0 0.79578130E+02</rscale>
<asrwt>0</asrwt>
<pdfrwt beam="1">  1        1 0.19810684E-01 0.79578130E+02</pdfrwt>
<pdfrwt beam="2">  1       -2 0.18914780E-02 0.79578130E+02</pdfrwt>
<totfact> 0.15576236E+05</totfact>
</mgrwt>
</event>
<event>
 8    1  0.1319619E-020  0.7817163E+02  0.7818608E-02  0.1334322E+00
          1   -1    0    0  501    0  0.00000000000E+00  0.00000000000E+00  0.11555440609E+02  0.11555441709E+02  0.50400000000E-02 0. -1.
         -2   -1    0    0    0  501 -0.00000000000E+00 -0.00000000000E+00 -0.13220620370E+03  0.13220620373E+03  0.25500000000E-02 0.  1.
        -24    2    1    2    0    0  0.00000000000E+00  0.00000000000E+00 -0.12065076310E+03  0.14376164544E+03  0.78171632090E+02 0.  0.
         66    2    3    3    0    0  0.94179619465E+01  0.78967127235E+01 -0.12854968052E+03  0.12915137030E+03  0.20000020654E+01 0.  0.
         13    1    3    3    0    0 -0.94179619465E+01 -0.78967127235E+01  0.78989174284E+01  0.14610275139E+02  0.10566000000E+00 0. -1.
         13    1    4    4    0    0  0.87940943393E+00  0.92281600958E+00 -0.96406948175E+01  0.97251792241E+01  0.10566000000E+00 0. -1.
        -13    1    4    4    0    0  0.67910186517E+01  0.53240337765E+01 -0.87067882859E+02  0.87494517883E+02  0.10566000000E+00 0.  1.
         14    1    4    4    0    0  0.17475338609E+01  0.16498629375E+01 -0.31841102847E+02  0.31931673192E+02  0.00000000000E+00 0. -1.
<mgrwt>
<rscale>  0 0.78171632E+02</rscale>
<asrwt>0</asrwt>
<pdfrwt beam="1">  1        1 0.17777603E-02 0.78171632E+02</pdfrwt>
<pdfrwt beam="2">  1       -2 0.20339415E-01 0.78171632E+02</pdfrwt>
<totfact> 0.10435382E+05</totfact>
</mgrwt>
</event>
<event>
 8    1  0.1319619E-020  0.8006827E+02  0.7818608E-02  0.1328858E+00
          1   -1    0    0  501    0  0.00000000000E+00  0.00000000000E+00  0.11098209821E+02  0.11098210966E+02  0.50400000000E-02 0. -1.
         -2   -1    0    0    0  501 -0.00000000000E+00 -0.00000000000E+00 -0.14441356478E+03  0.14441356481E+03  0.25500000000E-02 0.  1.
        -24    2    1    2    0    0  0.88817841970E-15 -0.71054273576E-14 -0.13331535496E+03  0.15551177577E+03  0.80068274210E+02 0.  0.
         66    2    3    3    0    0  0.30845510014E+01 -0.38273881901E+02 -0.88528635963E+02  0.96517997681E+02  0.20000000529E+01 0.  0.
         13    1    3    3    0    0 -0.30845510014E+01  0.38273881901E+02 -0.44786719000E+02  0.58993778091E+02  0.10566000000E+00 0. -1.
         13    1    4    4    0    0  0.90254363483E+00 -0.17038623831E+02 -0.38447228750E+02  0.42063402735E+02  0.10566000000E+00 0.  1.
        -13    1    4    4    0    0  0.58064130277E+00 -0.22992083807E+01 -0.52449061687E+01  0.57570572565E+01  0.10566000000E+00 0. -1.
        -14    1    4    4    0    0  0.16013660638E+01 -0.18936049690E+02 -0.44836501044E+02  0.48697537689E+02  0.00000000000E+00 0.  1.
<mgrwt>
<rscale>  0 0.80068274E+02</rscale>
<asrwt>0</asrwt>
<pdfrwt beam="1">  1        1 0.17074171E-02 0.80068274E+02</pdfrwt>
<pdfrwt beam="2">  1       -2 0.22217470E-01 0.80068274E+02</pdfrwt>
<totfact> 0.95470696E+04</totfact>
</mgrwt>
</event>
<event>
 8    1  0.1319619E-020  0.8086120E+02  0.7818608E-02  0.1326625E+00
          1   -1    0    0  501    0  0.00000000000E+00  0.00000000000E+00  0.15430595118E+02  0.15430595941E+02  0.50400000000E-02 0. -1.
         -2   -1    0    0    0  501 -0.00000000000E+00 -0.00000000000E+00 -0.10593456305E+03  0.10593456308E+03  0.25500000000E-02 0.  1.
        -24    2    1    2    0    0  0.00000000000E+00  0.00000000000E+00 -0.90503967935E+02  0.12136515903E+03  0.80861199677E+02 0.  0.
         66    2    3    3    0    0  0.12750282872E+02 -0.93406995945E+01 -0.10109255715E+03  0.10234023412E+03  0.20000066105E+01 0.  0.
         13    1    3    3    0    0 -0.12750282872E+02  0.93406995945E+01  0.10588589212E+02  0.19024924908E+02  0.10566000000E+00 0. -1.
         13    1    4    4    0    0  0.53973706035E+01 -0.32972958501E+01 -0.42066870981E+02  0.42539823314E+02  0.10566000000E+00 0. -1.
        -13    1    4    4    0    0  0.68998587352E+01 -0.57105602493E+01 -0.53321260929E+02  0.54068351002E+02  0.10566000000E+00 0.  1.
         14    1    4    4    0    0  0.45305353348E+00 -0.33284349513E+00 -0.57044252359E+01  0.57320598016E+01  0.00000000000E+00 0. -1.
<mgrwt>
<rscale>  0 0.80861200E+02</rscale>
<asrwt>0</asrwt>
<pdfrwt beam="1">  1        1 0.23739378E-02 0.80861200E+02</pdfrwt>
<pdfrwt beam="2">  1       -2 0.16297625E-01 0.80861200E+02</pdfrwt>
<totfact> 0.10176035E+05</totfact>
</mgrwt>
</event>
<event>
 8    1  0.1319619E-020  0.7992187E+02  0.7818608E-02  0.1329273E+00
          1   -1    0    0  501    0  0.00000000000E+00  0.00000000000E+00  0.85700996620E+02  0.85700996768E+02  0.50400000000E-02 0. -1.
         -2   -1    0    0    0  501 -0.00000000000E+00 -0.00000000000E+00 -0.18633110157E+02  0.18633110332E+02  0.25500000000E-02 0.  1.
        -24    2    1    2    0    0  0.00000000000E+00  0.00000000000E+00  0.67067886463E+02  0.10433410710E+03  0.79921865029E+02 0.  0.
         66    2    3    3    0    0 -0.26501332913E+02 -0.16789877166E+02  0.12954260728E+01  0.31462656372E+02  0.19999989747E+01 0.  0.
         13    1    3    3    0    0  0.26501332913E+02  0.16789877166E+02  0.65772460390E+02  0.72871450728E+02  0.10566000000E+00 0. -1.
         13    1    4    4    0    0 -0.11477957481E+02 -0.67280047629E+01  0.36343929168E+00  0.13309876340E+02  0.10566000000E+00 0. -1.
        -13    1    4    4    0    0 -0.12953499540E+02 -0.86097663591E+01  0.34943849779E+00  0.15558100732E+02  0.10566000000E+00 0.  1.
         14    1    4    4    0    0 -0.20698758910E+01 -0.14521060438E+01  0.58254828332E+00  0.25946792999E+01  0.00000000000E+00 0. -1.
<mgrwt>
<rscale>  0 0.79921865E+02</rscale>
<asrwt>0</asrwt>
<pdfrwt beam="1">  1        1 0.13184768E-01 0.79921865E+02</pdfrwt>
<pdfrwt beam="2">  1       -2 0.28666324E-02 0.79921865E+02</pdfrwt>
<totfact> 0.14366461E+05</totfact>
</mgrwt>
</event>
<event>
 8    1  0.1319619E-020  0.7862589E+02  0.7818608E-02  0.1332997E+00
          1   -1    0    0  501    0  0.00000000000E+00  0.00000000000E+00  0.60702887499E+02  0.60702887708E+02  0.50400000000E-02 0. -1.
         -2   -1    0    0    0  501 -0.00000000000E+00 -0.00000000000E+00 -0.25460201509E+02  0.25460201636E+02  0.25500000000E-02 0.  1.
        -24    2    1    2    0    0  0.00000000000E+00  0.00000000000E+00  0.35242685991E+02  0.86163089345E+02  0.78625892997E+02 0.  0.
         66    2    3    3    0    0  0.34012926644E+02 -0.19538444271E+02  0.20051766086E+02  0.44098791002E+02  0.20000153267E+01 0.  0.
         13    1    3    3    0    0 -0.34012926644E+02  0.19538444271E+02  0.15190919905E+02  0.42064298342E+02  0.10566000000E+00 0. -1.
         13    1    4    4    0    0  0.92013762609E+01 -0.53592924269E+01  0.60093295291E+01  0.12227450504E+02  0.10566000000E+00 0. -1.
        -13    1    4    4    0    0  0.24410031072E+02 -0.14035478385E+02  0.13990177861E+02  0.31441700193E+02  0.10566000000E+00 0.  1.
        -14    1    4    4    0    0  0.40151931140E+00 -0.14367345870E+00  0.52258695179E-01  0.42964030465E+00  0.00000000000E+00 0.  1.
<mgrwt>
<rscale>  0 0.78625893E+02</rscale>
<asrwt>0</asrwt>
<pdfrwt beam="1">  1        1 0.93389057E-02 0.78625893E+02</pdfrwt>
<pdfrwt beam="2">  1       -2 0.39169541E-02 0.78625893E+02</pdfrwt>
<totfact> 0.14225325E+05</totfact>
</mgrwt>
</event>
<event>
 8    1  0.1319619E-020  0.7861326E+02  0.7818608E-02  0.1333033E+00
         -2   -1    0    0    0  501 -0.00000000000E+00  0.00000000000E+00  0.15031657414E+02  0.15031657630E+02  0.25500000000E-02 0.  1.
          1   -1    0    0  501    0  0.00000000000E+00 -0.00000000000E+00 -0.10278382705E+03  0.10278382718E+03  0.50400000000E-02 0. -1.
        -24    2    1    2    0    0  0.00000000000E+00  0.00000000000E+00 -0.87752169639E+02  0.11781548481E+03  0.78613263409E+02 0.  0.
         66    2    3    3    0    0  0.32405791677E+02  0.19864156131E+02 -0.29046652297E+02  0.47879307020E+02  0.19999995016E+01 0.  0.
         13    1    3    3    0    0 -0.32405791677E+02 -0.19864156131E+02 -0.58705517342E+02  0.69936177787E+02  0.10566000000E+00 0. -1.
         13    1    4    4    0    0  0.48700227656E+01  0.28920569608E+01 -0.39472877553E+01  0.69045897678E+01  0.10566000000E+00 0. -1.
        -13    1    4    4    0    0  0.39636394407E+01  0.24960981304E+01 -0.43742178934E+01  0.64098275880E+01  0.10566000000E+00 0.  1.
        -14    1    4    4    0    0  0.23572129470E+02  0.14476001040E+02 -0.20725146648E+02  0.34564889664E+02  0.00000000000E+00 0.  1.
<mgrwt>
<rscale>  0 0.78613263E+02</rscale>
<asrwt>0</asrwt>
<pdfrwt beam="1">  1        1 0.15812896E-01 0.78613263E+02</pdfrwt>
<pdfrwt beam="2">  1       -2 0.23125628E-02 0.78613263E+02</pdfrwt>
<totfact> 0.15480536E+05</totfact>
</mgrwt>
</event>
<event>
 8    1  0.1319619E-020  0.7977169E+02  0.7818608E-02  0.1329701E+00
          1   -1    0    0  501    0  0.00000000000E+00  0.00000000000E+00  0.86326111225E+01  0.86326125937E+01  0.50400000000E-02 0. -1.
         -2   -1    0    0    0  501 -0.00000000000E+00 -0.00000000000E+00 -0.18428729717E+03  0.18428729719E+03  0.25500000000E-02 0.  1.
        -24    2    1    2    0    0  0.71054273576E-14  0.35527136788E-14 -0.17565468605E+03  0.19291990978E+03  0.79771692095E+02 0.  0.
         66    2    3    3    0    0 -0.33569718044E+02 -0.20472284393E+02 -0.72054265585E+02  0.82108815202E+02  0.19999867737E+01 0.  0.
         13    1    3    3    0    0  0.33569718044E+02  0.20472284393E+02 -0.10360042046E+03  0.11081109458E+03  0.10566000000E+00 0. -1.
         13    1    4    4    0    0 -0.29484572409E+01 -0.14959742715E+01 -0.70989073014E+01  0.78317934110E+01  0.10566000000E+00 0. -1.
        -13    1    4    4    0    0 -0.13637396905E+02 -0.85936265471E+01 -0.28882977351E+02  0.33076676923E+02  0.10566000000E+00 0.  1.
         14    1    4    4    0    0 -0.16983863898E+02 -0.10382683574E+02 -0.36072380933E+02  0.41200344868E+02  0.00000000000E+00 0. -1.
<mgrwt>
<rscale>  0 0.79771692E+02</rscale>
<asrwt>0</asrwt>
<pdfrwt beam="1">  1        1 0.13280943E-02 0.79771692E+02</pdfrwt>
<pdfrwt beam="2">  1       -2 0.28351889E-01 0.79771692E+02</pdfrwt>
<totfact> 0.88511938E+04</totfact>
</mgrwt>
</event>
<event>
 8    1  0.1319619E-020  0.7943213E+02  0.7818608E-02  0.1330671E+00
         -2   -1    0    0    0  501 -0.00000000000E+00  0.00000000000E+00  0.12592159432E+02  0.12592159690E+02  0.25500000000E-02 0.  1.
          1   -1    0    0  501    0  0.00000000000E+00 -0.00000000000E+00 -0.12526571699E+03  0.12526571709E+03  0.50400000000E-02 0. -1.
        -24    2    1    2    0    0 -0.35527136788E-14 -0.35527136788E-14 -0.11267355756E+03  0.13785787678E+03  0.79432132152E+02 0.  0.
         66    2    3    3    0    0  0.30926706762E+02  0.23553354463E+02 -0.42472953845E+02  0.57612268657E+02  0.19999984967E+01 0.  0.
         13    1    3    3    0    0 -0.30926706762E+02 -0.23553354463E+02 -0.70200603716E+02  0.80245608127E+02  0.10566000000E+00 0. -1.
         13    1    4    4    0    0  0.71325410654E+01  0.61726860575E+01 -0.96513954697E+01  0.13495769476E+02  0.10566000000E+00 0. -1.
        -13    1    4    4    0    0  0.17322591122E+02  0.13118139140E+02 -0.24283885410E+02  0.32586438780E+02  0.10566000000E+00 0.  1.
         14    1    4    4    0    0  0.64715745741E+01  0.42625292654E+01 -0.85376729645E+01  0.11530060401E+02  0.00000000000E+00 0. -1.
<mgrwt>
<rscale>  0 0.79432132E+02</rscale>
<asrwt>0</asrwt>
<pdfrwt beam="1">  1        1 0.19271648E-01 0.79432132E+02</pdfrwt>
<pdfrwt beam="2">  1       -2 0.19372554E-02 0.79432132E+02</pdfrwt>
<totfact> 0.15576649E+05</totfact>
</mgrwt>
</event>
<event>
 8    1  0.1319619E-020  0.8035239E+02  0.7818608E-02  0.1328054E+00
          1   -1    0    0  501    0  0.00000000000E+00  0.00000000000E+00  0.84806967829E+01  0.84806982805E+01  0.50400000000E-02 0. -1.
         -2   -1    0    0    0  501 -0.00000000000E+00 -0.00000000000E+00 -0.19032947599E+03  0.19032947600E+03  0.25500000000E-02 0.  1.
        -24    2    1    2    0    0  0.71054273576E-14  0.00000000000E+00 -0.18184877920E+03  0.19881017428E+03  0.80352392006E+02 0.  0.
         66    2    3    3    0    0 -0.38788181006E+02  0.45433608443E+01 -0.11405287842E+03  0.12057041176E+03  0.20000003135E+01 0.  0.
         13    1    3    3    0    0  0.38788181006E+02 -0.45433608443E+01 -0.67795900781E+02  0.78239762527E+02  0.10566000000E+00 0. -1.
         13    1    4    4    0    0 -0.90401751497E+01  0.92973083196E+00 -0.25176101608E+02  0.26766330013E+02  0.10566000000E+00 0. -1.
        -13    1    4    4    0    0 -0.26275986732E+02  0.33224249853E+01 -0.79870581773E+02  0.84147412220E+02  0.10566000000E+00 0.  1.
        -14    1    4    4    0    0 -0.34720191246E+01  0.29120502700E+00 -0.90061950418E+01  0.96566695242E+01  0.00000000000E+00 0.  1.
<mgrwt>
<rscale>  0 0.80352392E+02</rscale>
<asrwt>0</asrwt>
<pdfrwt beam="1">  1        1 0.13047228E-02 0.80352392E+02</pdfrwt>
<pdfrwt beam="2">  1       -2 0.29281455E-01 0.80352392E+02</pdfrwt>
<totfact> 0.85794762E+04</totfact>
</mgrwt>
</event>
<event>
 8    1  0.1319619E-020  0.7931518E+02  0.7818608E-02  0.1331006E+00
          1   -1    0    0  501    0  0.00000000000E+00  0.00000000000E+00  0.32596765156E+01  0.32596804119E+01  0.50400000000E-02 0. -1.
         -2   -1    0    0    0  501 -0.00000000000E+00 -0.00000000000E+00 -0.48247844244E+03  0.48247844244E+03  0.25500000000E-02 0.  1.
        -24    2    1    2    0    0  0.00000000000E+00  0.00000000000E+00 -0.47921876592E+03  0.48573812286E+03  0.79315183818E+02 0.  0.
         66    2    3    3    0    0  0.17361939715E+02  0.16520575360E+02 -0.43307051528E+03  0.43373775207E+03  0.20000005452E+01 0.  0.
         13    1    3    3    0    0 -0.17361939715E+02 -0.16520575360E+02 -0.46148250642E+02  0.52000370789E+02  0.10566000000E+00 0. -1.
         13    1    4    4    0    0  0.97240125929E+00  0.12734213406E+01 -0.24217301730E+02  0.24270476577E+02  0.10566000000E+00 0. -1.
        -13    1    4    4    0    0  0.35997605104E+01  0.27379959672E+01 -0.80138434442E+02  0.80266024796E+02  0.10566000000E+00 0.  1.
         14    1    4    4    0    0  0.12789777945E+02  0.12509158052E+02 -0.32871477911E+03  0.32920125069E+03  0.00000000000E+00 0. -1.
<mgrwt>
<rscale>  0 0.79315184E+02</rscale>
<asrwt>0</asrwt>
<pdfrwt beam="1">  1        1 0.50148938E-03 0.79315184E+02</pdfrwt>
<pdfrwt beam="2">  1       -2 0.74227396E-01 0.79315184E+02</pdfrwt>
<totfact> 0.52932099E+04</totfact>
</mgrwt>
</event>
<event>
 8    1  0.1319619E-020  0.7990450E+02  0.7818608E-02  0.1329323E+00
         -2   -1    0    0    0  501 -0.00000000000E+00  0.00000000000E+00  0.12159181559E+02  0.12159181827E+02  0.25500000000E-02 0.  1.
          1   -1    0    0  501    0  0.00000000000E+00 -0.00000000000E+00 -0.13127382836E+03  0.13127382845E+03  0.50400000000E-02 0. -1.
        -24    2    1    2    0    0  0.00000000000E+00  0.00000000000E+00 -0.11911464680E+03  0.14343301028E+03  0.79904501476E+02 0.  0.
         66    2    3    3    0    0  0.32300825494E+02 -0.22189328275E+02 -0.73320282051E+02  0.83159926540E+02  0.20000013039E+01 0.  0.
         13    1    3    3    0    0 -0.32300825494E+02  0.22189328275E+02 -0.45794364746E+02  0.60273083739E+02  0.10566000000E+00 0. -1.
         13    1    4    4    0    0  0.22204291465E+02 -0.15139287183E+02 -0.51934495524E+02  0.58475905852E+02  0.10566000000E+00 0. -1.
        -13    1    4    4    0    0  0.71623407923E+01 -0.47965681110E+01 -0.15322064947E+02  0.17580757365E+02  0.10566000000E+00 0.  1.
         14    1    4    4    0    0  0.29341932364E+01 -0.22534729811E+01 -0.60637215802E+01  0.71032633224E+01  0.00000000000E+00 0. -1.
<mgrwt>
<rscale>  0 0.79904501E+02</rscale>
<asrwt>0</asrwt>
<pdfrwt beam="1">  1        1 0.20195973E-01 0.79904501E+02</pdfrwt>
<pdfrwt beam="2">  1       -2 0.18706434E-02 0.79904501E+02</pdfrwt>
<totfact> 0.15459394E+05</totfact>
</mgrwt>
</event>
<event>
 8    1  0.1319619E-020  0.7860931E+02  0.7818608E-02  0.1333045E+00
         -2   -1    0    0    0  501 -0.00000000000E+00  0.00000000000E+00  0.34246926522E+02  0.34246926617E+02  0.25500000000E-02 0.  1.
          1   -1    0    0  501    0  0.00000000000E+00 -0.00000000000E+00 -0.45109326495E+02  0.45109326777E+02  0.50400000000E-02 0. -1.
        -24    2    1    2    0    0  0.00000000000E+00  0.00000000000E+00 -0.10862399974E+02  0.79356253394E+02  0.78609307461E+02 0.  0.
         66    2    3    3    0    0 -0.25567745748E+02 -0.24704745626E+02  0.11421764654E+02  0.37396400722E+02  0.20000000204E+01 0.  0.
         13    1    3    3    0    0  0.25567745748E+02  0.24704745626E+02 -0.22284164628E+02  0.41959852672E+02  0.10566000000E+00 0. -1.
         13    1    4    4    0    0 -0.44220851172E+01 -0.46778134748E+01  0.17608013642E+01  0.66744558706E+01  0.10566000000E+00 0. -1.
        -13    1    4    4    0    0 -0.50067836169E+01 -0.38997908836E+01  0.20189821451E+01  0.66606083851E+01  0.10566000000E+00 0.  1.
        -14    1    4    4    0    0 -0.16138877014E+02 -0.16127141267E+02  0.76419811449E+01  0.24061336466E+02  0.00000000000E+00 0.  1.
<mgrwt>
<rscale>  0 0.78609307E+02</rscale>
<asrwt>0</asrwt>
<pdfrwt beam="1">  1        1 0.69398964E-02 0.78609307E+02</pdfrwt>
<pdfrwt beam="2">  1       -2 0.52687580E-02 0.78609307E+02</pdfrwt>
<totfact> 0.13594641E+05</totfact>
</mgrwt>
</event>
<event>
 8    1  0.1319619E-020  0.8127426E+02  0.7818608E-02  0.1325474E+00
         -2   -1    0    0    0  501 -0.00000000000E+00  0.00000000000E+00  0.26492131726E+02  0.26492131849E+02  0.25500000000E-02 0.  1.
          1   -1    0    0  501    0  0.00000000000E+00 -0.00000000000E+00 -0.62334594233E+02  0.62334594437E+02  0.50400000000E-02 0. -1.
        -24    2    1    2    0    0  0.00000000000E+00  0.00000000000E+00 -0.35842462507E+02  0.88826726286E+02  0.81274259049E+02 0.  0.
         66    2    3    3    0    0 -0.22304831506E+02 -0.69654213947E+01  0.18371324565E+02  0.29791410783E+02  0.19999966157E+01 0.  0.
         13    1    3    3    0    0  0.22304831506E+02  0.69654213947E+01 -0.54213787072E+02  0.59035315502E+02  0.10566000000E+00 0. -1.
         13    1    4    4    0    0 -0.80731222935E+00 -0.35041817891E-01  0.44325081538E+00  0.92769406897E+00  0.10566000000E+00 0. -1.
        -13    1    4    4    0    0 -0.71168174372E+01 -0.23797715081E+01  0.66917974845E+01  0.10055034583E+02  0.10566000000E+00 0.  1.
         14    1    4    4    0    0 -0.14380701839E+02 -0.45506080687E+01  0.11236276265E+02  0.18808682131E+02  0.00000000000E+00 0. -1.
<mgrwt>
<rscale>  0 0.81274259E+02</rscale>
<asrwt>0</asrwt>
<pdfrwt beam="1">  1        1 0.95899376E-02 0.81274259E+02</pdfrwt>
<pdfrwt beam="2">  1       -2 0.40757126E-02 0.81274259E+02</pdfrwt>
<totfact> 0.13039419E+05</totfact>
</mgrwt>
</event>
<event>
 8    1  0.1319619E-020  0.7897103E+02  0.7818608E-02  0.1331997E+00
          1   -1    0    0  501    0  0.00000000000E+00  0.00000000000E+00  0.22921402126E+03  0.22921402132E+03  0.50400000000E-02 0. -1.
         -2   -1    0    0    0  501 -0.00000000000E+00 -0.00000000000E+00 -0.68019645045E+01  0.68019649824E+01  0.25500000000E-02 0.  1.
        -24    2    1    2    0    0  0.00000000000E+00  0.35527136788E-14  0.22241205676E+03  0.23601598630E+03  0.78971025054E+02 0.  0.
         66    2    3    3    0    0  0.15269452269E+02  0.30483887749E+02  0.51903383149E+02  0.62131994729E+02  0.20000004498E+01 0.  0.
         13    1    3    3    0    0 -0.15269452269E+02 -0.30483887749E+02  0.17050867361E+03  0.17388399157E+03  0.10566000000E+00 0. -1.
         13    1    4    4    0    0  0.91981963712E+01  0.19778415773E+02  0.33539927485E+02  0.40009129542E+02  0.10566000000E+00 0.  1.
        -13    1    4    4    0    0  0.11958430385E+01  0.17263380420E+01  0.27131160804E+01  0.34325568473E+01  0.10566000000E+00 0. -1.
        -14    1    4    4    0    0  0.48754128596E+01  0.89791339340E+01  0.15650339583E+02  0.18690308339E+02  0.00000000000E+00 0.  1.
<mgrwt>
<rscale>  0 0.78971025E+02</rscale>
<asrwt>0</asrwt>
<pdfrwt beam="1">  1        1 0.35263690E-01 0.78971025E+02</pdfrwt>
<pdfrwt beam="2">  1       -2 0.10464563E-02 0.78971025E+02</pdfrwt>
<totfact> 0.17719621E+05</totfact>
</mgrwt>
</event>
<event>
 8    1  0.1319619E-020  0.8242945E+02  0.7818608E-02  0.1322295E+00
          1   -1    0    0  501    0  0.00000000000E+00  0.00000000000E+00  0.20068501467E+02  0.20068502100E+02  0.50400000000E-02 0. -1.
         -2   -1    0    0    0  501 -0.00000000000E+00 -0.00000000000E+00 -0.84642767812E+02  0.84642767850E+02  0.25500000000E-02 0.  1.
        -24    2    1    2    0    0  0.00000000000E+00  0.00000000000E+00 -0.64574266345E+02  0.10471126995E+03  0.82429449716E+02 0.  0.
         66    2    3    3    0    0 -0.40693612510E+01 -0.32650209426E+02 -0.63784573437E+02  0.71798800345E+02  0.20000114945E+01 0.  0.
         13    1    3    3    0    0  0.40693612510E+01  0.32650209426E+02 -0.78969290804E+00  0.32912469604E+02  0.10566000000E+00 0. -1.
         13    1    4    4    0    0  0.62974366300E-01 -0.11201108775E+01 -0.22718356443E+01  0.25359446719E+01  0.10566000000E+00 0. -1.
        -13    1    4    4    0    0 -0.17549315770E+00 -0.13902975228E+01 -0.34179061326E+01  0.36955339827E+01  0.10566000000E+00 0.  1.
         14    1    4    4    0    0 -0.39568424596E+01 -0.30139801025E+02 -0.58094831660E+02  0.65567321691E+02  0.00000000000E+00 0. -1.
<mgrwt>
<rscale>  0 0.82429450E+02</rscale>
<asrwt>0</asrwt>
<pdfrwt beam="1">  1        1 0.30874619E-02 0.82429450E+02</pdfrwt>
<pdfrwt beam="2">  1       -2 0.13021964E-01 0.82429450E+02</pdfrwt>
<totfact> 0.10226789E+05</totfact>
</mgrwt>
</event>
<event>
 8    1  0.1319619E-020  0.7910315E+02  0.7818608E-02  0.1331616E+00
          1   -1    0    0  501    0  0.00000000000E+00  0.00000000000E+00  0.10113552203E+02  0.10113553459E+02  0.50400000000E-02 0. -1.
         -2   -1    0    0    0  501 -0.00000000000E+00 -0.00000000000E+00 -0.15467632262E+03  0.15467632264E+03  0.25500000000E-02 0.  1.
        -24    2    1    2    0    0  0.00000000000E+00  0.00000000000E+00 -0.14456277042E+03  0.16478987610E+03  0.79103152115E+02 0.  0.
         66    2    3    3    0    0 -0.11405209836E+02 -0.29545156124E+02 -0.12159600227E+03  0.12566854350E+03  0.19999984101E+01 0.  0.
         13    1    3    3    0    0  0.11405209836E+02  0.29545156124E+02 -0.22966768145E+02  0.39121332606E+02  0.10566000000E+00 0. -1.
         13    1    4    4    0    0 -0.71359445150E+01 -0.17053109845E+02 -0.73228255927E+02  0.75525617440E+02  0.10566000000E+00 0. -1.
        -13    1    4    4    0    0 -0.40643592600E+01 -0.12209527997E+02 -0.46819119535E+02  0.48555460128E+02  0.10566000000E+00 0.  1.
         14    1    4    4    0    0 -0.20490606108E+00 -0.28251828219E+00 -0.15486268111E+01  0.15874659283E+01  0.00000000000E+00 0. -1.
<mgrwt>
<rscale>  0 0.79103152E+02</rscale>
<asrwt>0</asrwt>
<pdfrwt beam="1">  1        1 0.15559313E-02 0.79103152E+02</pdfrwt>
<pdfrwt beam="2">  1       -2 0.23796356E-01 0.79103152E+02</pdfrwt>
<totfact> 0.96305397E+04</totfact>
</mgrwt>
</event>
<event>
 8    1  0.1319619E-020  0.7835536E+02  0.7818608E-02  0.1333785E+00
         -2   -1    0    0    0  501 -0.00000000000E+00  0.00000000000E+00  0.17880873122E+02  0.17880873304E+02  0.25500000000E-02 0.  1.
          1   -1    0    0  501    0  0.00000000000E+00 -0.00000000000E+00 -0.85839791213E+02  0.85839791361E+02  0.50400000000E-02 0. -1.
        -24    2    1    2    0    0  0.00000000000E+00  0.71054273576E-14 -0.67958918091E+02  0.10372066466E+03  0.78355355468E+02 0.  0.
         66    2    3    3    0    0  0.23161838608E+01 -0.38892004272E+02 -0.28886282134E+02  0.48542455663E+02  0.20000005739E+01 0.  0.
         13    1    3    3    0    0 -0.23161838608E+01  0.38892004272E+02 -0.39072635957E+02  0.55178209002E+02  0.10566000000E+00 0. -1.
         13    1    4    4    0    0  0.76842471305E+00 -0.93425548665E+01 -0.61243642095E+01  0.11197893060E+02  0.10566000000E+00 0. -1.
        -13    1    4    4    0    0  0.16153376841E+01 -0.25040875658E+02 -0.19080307027E+02  0.31523388933E+02  0.10566000000E+00 0.  1.
        -14    1    4    4    0    0 -0.67578536420E-01 -0.45085737478E+01 -0.36816108971E+01  0.58211736699E+01  0.00000000000E+00 0.  1.
<mgrwt>
<rscale>  0 0.78355355E+02</rscale>
<asrwt>0</asrwt>
<pdfrwt beam="1">  1        1 0.13206122E-01 0.78355355E+02</pdfrwt>
<pdfrwt beam="2">  1       -2 0.27509036E-02 0.78355355E+02</pdfrwt>
<totfact> 0.15162910E+05</totfact>
</mgrwt>
</event>
<event>
 8    1  0.1319619E-020  0.8105084E+02  0.7818608E-02  0.1326095E+00
         -2   -1    0    0    0  501 -0.00000000000E+00  0.00000000000E+00  0.31073972915E+03  0.31073972916E+03  0.25500000000E-02 0.  1.
          1   -1    0    0  501    0  0.00000000000E+00 -0.00000000000E+00 -0.52851599908E+01  0.52851623939E+01  0.50400000000E-02 0. -1.
        -24    2    1    2    0    0 -0.35527136788E-14  0.00000000000E+00  0.30545456916E+03  0.31602489156E+03  0.81050837514E+02 0.  0.
         66    2    3    3    0    0 -0.18794948408E+02  0.33866018208E+02  0.19897899732E+03  0.20272345362E+03  0.19999998402E+01 0.  0.
         13    1    3    3    0    0  0.18794948408E+02 -0.33866018208E+02  0.10647557184E+03  0.11330143793E+03  0.10566000000E+00 0. -1.
         13    1    4    4    0    0 -0.10526026919E+02  0.17773745630E+02  0.10866634010E+03  0.11061233164E+03  0.10566000000E+00 0. -1.
        -13    1    4    4    0    0 -0.65399126701E+01  0.11986149503E+02  0.68821117206E+02  0.70162636604E+02  0.10566000000E+00 0.  1.
         14    1    4    4    0    0 -0.17290088188E+01  0.41061230746E+01  0.21491540016E+02  0.21948485379E+02  0.00000000000E+00 0. -1.
<mgrwt>
<rscale>  0 0.81050838E+02</rscale>
<asrwt>0</asrwt>
<pdfrwt beam="1">  1        1 0.81310145E-03 0.81050838E+02</pdfrwt>
<pdfrwt beam="2">  1       -2 0.47806128E-01 0.81050838E+02</pdfrwt>
<totfact> 0.66635451E+04</totfact>
</mgrwt>
</event>
<event>
 8    1  0.1319619E-020  0.8999456E+02  0.7818608E-02  0.1302865E+00
          1   -1    0    0  501    0  0.00000000000E+00  0.00000000000E+00  0.10193075619E+02  0.10193076865E+02  0.50400000000E-02 0. -1.
         -2   -1    0    0    0  501 -0.00000000000E+00 -0.00000000000E+00 -0.19864026857E+03  0.19864026859E+03  0.25500000000E-02 0.  1.
        -24    2    1    2    0    0 -0.35527136788E-14 -0.22204460493E-15 -0.18844719295E+03  0.20883334545E+03  0.89994564510E+02 0.  0.
         66    2    3    3    0    0 -0.31097889391E+02 -0.13490243208E+01 -0.16960093118E+03  0.17244527958E+03  0.20000000932E+01 0.  0.
         13    1    3    3    0    0  0.31097889391E+02  0.13490243208E+01 -0.18846261771E+02  0.36388065873E+02  0.10566000000E+00 0. -1.
         13    1    4    4    0    0 -0.78679137608E+01 -0.10716945715E+01 -0.41081401800E+02  0.41841908824E+02  0.10566000000E+00 0. -1.
        -13    1    4    4    0    0 -0.68508573653E+01 -0.28339347610E+00 -0.38367229630E+02  0.38975248966E+02  0.10566000000E+00 0.  1.
         14    1    4    4    0    0 -0.16379118265E+02  0.60637268238E-02 -0.90152299753E+02  0.91628121789E+02  0.00000000000E+00 0. -1.
<mgrwt>
<rscale>  0 0.89994565E+02</rscale>
<asrwt>0</asrwt>
<pdfrwt beam="1">  1        1 0.15681657E-02 0.89994565E+02</pdfrwt>
<pdfrwt beam="2">  1       -2 0.30560039E-01 0.89994565E+02</pdfrwt>
<totfact> 0.62902389E+04</totfact>
</mgrwt>
</event>
<event>
 8    1  0.1319619E-020  0.7935099E+02  0.7818608E-02  0.1330903E+00
          1   -1    0    0  501    0  0.00000000000E+00  0.00000000000E+00  0.30552475901E+02  0.30552476316E+02  0.50400000000E-02 0. -1.
         -2   -1    0    0    0  501 -0.00000000000E+00 -0.00000000000E+00 -0.51522655987E+02  0.51522656050E+02  0.25500000000E-02 0.  1.
        -24    2    1    2    0    0  0.00000000000E+00  0.00000000000E+00 -0.20970180087E+02  0.82075132367E+02  0.79350985502E+02 0.  0.
         66    2    3    3    0    0  0.14587111454E+02 -0.36502230432E+02 -0.51228576025E+01  0.39691816769E+02  0.20000003378E+01 0.  0.
         13    1    3    3    0    0 -0.14587111454E+02  0.36502230432E+02 -0.15847322484E+02  0.42383315597E+02  0.10566000000E+00 0. -1.
         13    1    4    4    0    0  0.38349144520E+01 -0.10579135431E+02 -0.16190320619E+01  0.11369129438E+02  0.10566000000E+00 0. -1.
        -13    1    4    4    0    0  0.10563243125E+02 -0.25312241450E+02 -0.31981370392E+01  0.27613962358E+02  0.10566000000E+00 0.  1.
         14    1    4    4    0    0  0.18895387707E+00 -0.61085355073E+00 -0.30568850137E+00  0.70872497343E+00  0.00000000000E+00 0. -1.
<mgrwt>
<rscale>  0 0.79350986E+02</rscale>
<asrwt>0</asrwt>
<pdfrwt beam="1">  1        1 0.47003810E-02 0.79350986E+02</pdfrwt>
<pdfrwt beam="2">  1       -2 0.79265625E-02 0.79350986E+02</pdfrwt>
<totfact> 0.12420594E+05</totfact>
</mgrwt>
</event>
<event>
 8    1  0.1319619E-020  0.8095858E+02  0.7818608E-02  0.1326353E+00
          1   -1    0    0  501    0  0.00000000000E+00  0.00000000000E+00  0.94788754880E+01  0.94788768279E+01  0.50400000000E-02 0. -1.
         -2   -1    0    0    0  501 -0.00000000000E+00 -0.00000000000E+00 -0.17286575385E+03  0.17286575387E+03  0.25500000000E-02 0.  1.
        -24    2    1    2    0    0  0.88817841970E-15 -0.71054273576E-14 -0.16338687836E+03  0.18234463070E+03  0.80958583999E+02 0.  0.
         66    2    3    3    0    0  0.55945180466E+01 -0.39309746532E+02 -0.99191486051E+02  0.10686208727E+03  0.19999963737E+01 0.  0.
         13    1    3    3    0    0 -0.55945180466E+01  0.39309746532E+02 -0.64195392312E+02  0.75482543431E+02  0.10566000000E+00 0. -1.
         13    1    4    4    0    0  0.28581163228E+01 -0.22582841616E+02 -0.55150772662E+02  0.59663828687E+02  0.10566000000E+00 0. -1.
        -13    1    4    4    0    0  0.20180114599E+01 -0.11844770786E+02 -0.30087772679E+02  0.32398398017E+02  0.10566000000E+00 0.  1.
         14    1    4    4    0    0  0.71839026396E+00 -0.48821341296E+01 -0.13952940710E+02  0.14799860563E+02  0.00000000000E+00 0. -1.
<mgrwt>
<rscale>  0 0.80958584E+02</rscale>
<asrwt>0</asrwt>
<pdfrwt beam="1">  1        1 0.14582888E-02 0.80958584E+02</pdfrwt>
<pdfrwt beam="2">  1       -2 0.26594729E-01 0.80958584E+02</pdfrwt>
<totfact> 0.87263750E+04</totfact>
</mgrwt>
</event>
<event>
 8    1  0.1319619E-020  0.8099477E+02  0.7818608E-02  0.1326252E+00
          1   -1    0    0  501    0  0.00000000000E+00  0.00000000000E+00  0.17055827292E+03  0.17055827300E+03  0.50400000000E-02 0. -1.
         -2   -1    0    0    0  501 -0.00000000000E+00 -0.00000000000E+00 -0.96157050740E+01  0.96157054122E+01  0.25500000000E-02 0.  1.
        -24    2    1    2    0    0  0.00000000000E+00  0.00000000000E+00  0.16094256785E+03  0.18017397841E+03  0.80994767425E+02 0.  0.
         66    2    3    3    0    0  0.23603828153E+02 -0.13757902789E+02  0.14096495304E+02  0.30807982351E+02  0.20000010216E+01 0.  0.
         13    1    3    3    0    0 -0.23603828153E+02  0.13757902789E+02  0.14684607255E+03  0.14936599606E+03  0.10566000000E+00 0. -1.
         13    1    4    4    0    0  0.38714109653E+01 -0.26448828632E+01  0.28892927605E+01  0.55083940412E+01  0.10566000000E+00 0. -1.
        -13    1    4    4    0    0  0.11756154839E+02 -0.63659324945E+01  0.72558691600E+01  0.15211544117E+02  0.10566000000E+00 0.  1.
         14    1    4    4    0    0  0.79762623481E+01 -0.47470874311E+01  0.39513333833E+01  0.10088044193E+02  0.00000000000E+00 0. -1.
<mgrwt>
<rscale>  0 0.80994767E+02</rscale>
<asrwt>0</asrwt>
<pdfrwt beam="1">  1        1 0.26239732E-01 0.80994767E+02</pdfrwt>
<pdfrwt beam="2">  1       -2 0.14793394E-02 0.80994767E+02</pdfrwt>
<totfact> 0.15647719E+05</totfact>
</mgrwt>
</event>
<event>
 8    1  0.1319619E-020  0.7947502E+02  0.7818608E-02  0.1330548E+00
          1   -1    0    0  501    0  0.00000000000E+00  0.00000000000E+00  0.72589246527E+01  0.72589264024E+01  0.50400000000E-02 0. -1.
         -2   -1    0    0    0  501 -0.00000000000E+00 -0.00000000000E+00 -0.21753490081E+03  0.21753490083E+03  0.25500000000E-02 0.  1.
        -24    2    1    2    0    0 -0.44408920985E-15  0.00000000000E+00 -0.21027597616E+03  0.22479382723E+03  0.79475018784E+02 0.  0.
         66    2    3    3    0    0  0.38790273352E+01 -0.22365986313E+02 -0.19737046428E+03  0.19868161557E+03  0.19999996970E+01 0.  0.
         13    1    3    3    0    0 -0.38790273352E+01  0.22365986313E+02 -0.12905511879E+02  0.26112211659E+02  0.10566000000E+00 0. -1.
         13    1    4    4    0    0  0.24509989777E-01 -0.20680094963E+01 -0.15118328021E+02  0.15259497705E+02  0.10566000000E+00 0. -1.
        -13    1    4    4    0    0  0.37270660622E+01 -0.18763992467E+02 -0.16680208256E+03  0.16789557572E+03  0.10566000000E+00 0.  1.
        -14    1    4    4    0    0  0.12745128321E+00 -0.15339843492E+01 -0.15450053693E+02  0.15526542143E+02  0.00000000000E+00 0.  1.
<mgrwt>
<rscale>  0 0.79475019E+02</rscale>
<asrwt>0</asrwt>
<pdfrwt beam="1">  1        1 0.11167579E-02 0.79475019E+02</pdfrwt>
<pdfrwt beam="2">  1       -2 0.33466903E-01 0.79475019E+02</pdfrwt>
<totfact> 0.83544746E+04</totfact>
</mgrwt>
</event>
<event>
 8    1  0.1319619E-020  0.7991728E+02  0.7818608E-02  0.1329286E+00
         -2   -1    0    0    0  501 -0.00000000000E+00  0.00000000000E+00  0.34234188495E+02  0.34234188590E+02  0.25500000000E-02 0.  1.
          1   -1    0    0  501    0  0.00000000000E+00 -0.00000000000E+00 -0.46640297698E+02  0.46640297970E+02  0.50400000000E-02 0. -1.
        -24    2    1    2    0    0  0.00000000000E+00  0.71054273576E-14 -0.12406109203E+02  0.80874486560E+02  0.79917276173E+02 0.  0.
         66    2    3    3    0    0 -0.16865570773E+02 -0.36003114905E+02 -0.24182872901E+01  0.39881322363E+02  0.19999999106E+01 0.  0.
         13    1    3    3    0    0  0.16865570773E+02  0.36003114905E+02 -0.99878219124E+01  0.40993164198E+02  0.10566000000E+00 0. -1.
         13    1    4    4    0    0 -0.34886658560E+01 -0.89171901947E+01 -0.75073955442E+00  0.96053029279E+01  0.10566000000E+00 0. -1.
        -13    1    4    4    0    0 -0.66120981460E+01 -0.14644399936E+02 -0.85320357043E+00  0.16090910843E+02  0.10566000000E+00 0.  1.
         14    1    4    4    0    0 -0.67648067712E+01 -0.12441524774E+02 -0.81434416523E+00  0.14185108592E+02  0.00000000000E+00 0. -1.
<mgrwt>
<rscale>  0 0.79917276E+02</rscale>
<asrwt>0</asrwt>
<pdfrwt beam="1">  1        1 0.71754305E-02 0.79917276E+02</pdfrwt>
<pdfrwt beam="2">  1       -2 0.52667982E-02 0.79917276E+02</pdfrwt>
<totfact> 0.13051200E+05</totfact>
</mgrwt>
</event>
<event>
 8    1  0.1319619E-020  0.8057787E+02  0.7818608E-02  0.1327419E+00
         -2   -1    0    0    0  501 -0.00000000000E+00  0.00000000000E+00  0.25575967162E+02  0.25575967289E+02  0.25500000000E-02 0.  1.
          1   -1    0    0  501    0  0.00000000000E+00 -0.00000000000E+00 -0.63465769764E+02  0.63465769964E+02  0.50400000000E-02 0. -1.
        -24    2    1    2    0    0  0.00000000000E+00 -0.35527136788E-14 -0.37889802602E+02  0.89041737252E+02  0.80577874331E+02 0.  0.
         66    2    3    3    0    0 -0.13805282253E+02  0.31419496119E+02  0.43129524763E+01  0.34646385845E+02  0.19999846519E+01 0.  0.
         13    1    3    3    0    0  0.13805282253E+02 -0.31419496119E+02 -0.42202755078E+02  0.54395351407E+02  0.10566000000E+00 0. -1.
         13    1    4    4    0    0 -0.57014529842E+01  0.11802749750E+02  0.19297287588E+01  0.13249395643E+02  0.10566000000E+00 0.  1.
        -13    1    4    4    0    0 -0.66637347024E+01  0.16248395940E+02  0.14821932111E+01  0.17624522449E+02  0.10566000000E+00 0. -1.
         14    1    4    4    0    0 -0.14400945660E+01  0.33683504297E+01  0.90103050636E+00  0.37724677533E+01  0.00000000000E+00 0. -1.
<mgrwt>
<rscale>  0 0.80577874E+02</rscale>
<asrwt>0</asrwt>
<pdfrwt beam="1">  1        1 0.97639646E-02 0.80577874E+02</pdfrwt>
<pdfrwt beam="2">  1       -2 0.39347642E-02 0.80577874E+02</pdfrwt>
<totfact> 0.13390364E+05</totfact>
</mgrwt>
</event>
<event>
 8    1  0.1319619E-020  0.7956926E+02  0.7818608E-02  0.1330278E+00
          1   -1    0    0  501    0  0.00000000000E+00  0.00000000000E+00  0.22328613243E+03  0.22328613249E+03  0.50400000000E-02 0. -1.
         -2   -1    0    0    0  501 -0.00000000000E+00 -0.00000000000E+00 -0.70887378540E+01  0.70887383127E+01  0.25500000000E-02 0.  1.
        -24    2    1    2    0    0  0.00000000000E+00  0.00000000000E+00  0.21619739457E+03  0.23037487080E+03  0.79569263377E+02 0.  0.
         66    2    3    3    0    0 -0.10430439431E+02  0.31562276242E+02  0.45009942230E+02  0.55989876167E+02  0.19999963331E+01 0.  0.
         13    1    3    3    0    0  0.10430439431E+02 -0.31562276242E+02  0.17118745234E+03  0.17438499463E+03  0.10566000000E+00 0. -1.
         13    1    4    4    0    0 -0.36832016342E+00  0.95253265892E+00  0.11039749036E+01  0.15076149484E+01  0.10566000000E+00 0. -1.
        -13    1    4    4    0    0 -0.89505993334E+01  0.27353741030E+02  0.39980169516E+02  0.49262211636E+02  0.10566000000E+00 0.  1.
        -14    1    4    4    0    0 -0.11115199344E+01  0.32560025530E+01  0.39257978104E+01  0.52200495820E+01  0.00000000000E+00 0.  1.
<mgrwt>
<rscale>  0 0.79569263E+02</rscale>
<asrwt>0</asrwt>
<pdfrwt beam="1">  1        1 0.34351715E-01 0.79569263E+02</pdfrwt>
<pdfrwt beam="2">  1       -2 0.10905750E-02 0.79569263E+02</pdfrwt>
<totfact> 0.17280825E+05</totfact>
</mgrwt>
</event>
<event>
 8    1  0.1319619E-020  0.7951535E+02  0.7818608E-02  0.1330432E+00
          1   -1    0    0  501    0  0.00000000000E+00  0.00000000000E+00  0.58085562650E+02  0.58085562868E+02  0.50400000000E-02 0. -1.
         -2   -1    0    0    0  501 -0.00000000000E+00 -0.00000000000E+00 -0.27212832816E+02  0.27212832935E+02  0.25500000000E-02 0.  1.
        -24    2    1    2    0    0  0.00000000000E+00  0.00000000000E+00  0.30872729834E+02  0.85298395804E+02  0.79515349960E+02 0.  0.
         66    2    3    3    0    0 -0.16552917652E+02 -0.23300732761E+02 -0.14160907428E+02  0.31960202367E+02  0.20000015326E+01 0.  0.
         13    1    3    3    0    0  0.16552917652E+02  0.23300732761E+02  0.45033637262E+02  0.53338193437E+02  0.10566000000E+00 0. -1.
         13    1    4    4    0    0 -0.74904222605E+01 -0.94445816155E+01 -0.59550266400E+01  0.13445447328E+02  0.10566000000E+00 0. -1.
        -13    1    4    4    0    0 -0.48909892422E+01 -0.69364689286E+01 -0.36561165112E+01  0.92420089236E+01  0.10566000000E+00 0.  1.
         14    1    4    4    0    0 -0.41715061494E+01 -0.69196822169E+01 -0.45497642769E+01  0.92727461150E+01  0.00000000000E+00 0. -1.
<mgrwt>
<rscale>  0 0.79515350E+02</rscale>
<asrwt>0</asrwt>
<pdfrwt beam="1">  1        1 0.89362403E-02 0.79515350E+02</pdfrwt>
<pdfrwt beam="2">  1       -2 0.41865897E-02 0.79515350E+02</pdfrwt>
<totfact> 0.13697691E+05</totfact>
</mgrwt>
</event>
<event>
 8    1  0.1319619E-020  0.7811262E+02  0.7818608E-02  0.1334494E+00
         -2   -1    0    0    0  501 -0.00000000000E+00  0.00000000000E+00  0.79872800778E+01  0.79872804848E+01  0.25500000000E-02 0.  1.
          1   -1    0    0  501    0  0.00000000000E+00 -0.00000000000E+00 -0.19097807243E+03  0.19097807250E+03  0.50400000000E-02 0. -1.
        -24    2    1    2    0    0  0.71054273576E-14  0.44408920985E-15 -0.18299079235E+03  0.19896535298E+03  0.78112621267E+02 0.  0.
         66    2    3    3    0    0 -0.38807176288E+02 -0.39405885599E+01 -0.95034017648E+02  0.10274721254E+03  0.20000011679E+01 0.  0.
         13    1    3    3    0    0  0.38807176288E+02  0.39405885599E+01 -0.87956774703E+02  0.96218140441E+02  0.10566000000E+00 0. -1.
         13    1    4    4    0    0 -0.95752886076E+00 -0.36875824110E-01 -0.31040709696E+01  0.32503295164E+01  0.10566000000E+00 0. -1.
        -13    1    4    4    0    0 -0.96628148869E+00 -0.17259613092E+00 -0.24673955373E+01  0.26575729741E+01  0.10566000000E+00 0.  1.
        -14    1    4    4    0    0 -0.36883365939E+02 -0.37311166049E+01 -0.89462551141E+02  0.96839310049E+02  0.00000000000E+00 0.  1.
<mgrwt>
<rscale>  0 0.78112621E+02</rscale>
<asrwt>0</asrwt>
<pdfrwt beam="1">  1        1 0.29381239E-01 0.78112621E+02</pdfrwt>
<pdfrwt beam="2">  1       -2 0.12288125E-02 0.78112621E+02</pdfrwt>
<totfact> 0.17606552E+05</totfact>
</mgrwt>
</event>
<event>
 8    1  0.1319619E-020  0.8276898E+02  0.7818608E-02  0.1321372E+00
          1   -1    0    0  501    0  0.00000000000E+00  0.00000000000E+00  0.89112265400E+01  0.89112279652E+01  0.50400000000E-02 0. -1.
         -2   -1    0    0    0  501 -0.00000000000E+00 -0.00000000000E+00 -0.19219307798E+03  0.19219307800E+03  0.25500000000E-02 0.  1.
        -24    2    1    2    0    0  0.00000000000E+00  0.00000000000E+00 -0.18328185144E+03  0.20110430596E+03  0.82768984585E+02 0.  0.
         66    2    3    3    0    0 -0.10313470281E+01 -0.38595977906E+02 -0.12772921000E+03  0.13345210480E+03  0.20000001739E+01 0.  0.
         13    1    3    3    0    0  0.10313470281E+01  0.38595977906E+02 -0.55552641437E+02  0.67652201161E+02  0.10566000000E+00 0. -1.
         13    1    4    4    0    0 -0.10288797621E+01 -0.14122506795E+02 -0.45023495298E+02  0.47197776268E+02  0.10566000000E+00 0. -1.
        -13    1    4    4    0    0 -0.20479950231E+00 -0.32900566879E+01 -0.10638623654E+02  0.11138127901E+02  0.10566000000E+00 0.  1.
        -14    1    4    4    0    0  0.20233223637E+00 -0.21183414423E+02 -0.72067091049E+02  0.75116200631E+02  0.00000000000E+00 0.  1.
<mgrwt>
<rscale>  0 0.82768985E+02</rscale>
<asrwt>0</asrwt>
<pdfrwt beam="1">  1        1 0.13709582E-02 0.82768985E+02</pdfrwt>
<pdfrwt beam="2">  1       -2 0.29568163E-01 0.82768985E+02</pdfrwt>
<totfact> 0.79172433E+04</totfact>
</mgrwt>
</event>
<event>
 8    1  0.1319619E-020  0.8176897E+02  0.7818608E-02  0.1324105E+00
         -2   -1    0    0    0  501 -0.00000000000E+00  0.00000000000E+00  0.79100059927E+02  0.79100059968E+02  0.25500000000E-02 0.  1.
          1   -1    0    0  501    0  0.00000000000E+00 -0.00000000000E+00 -0.21131980919E+02  0.21131981520E+02  0.50400000000E-02 0. -1.
        -24    2    1    2    0    0  0.71054273576E-14 -0.35527136788E-14  0.57968079008E+02  0.10023204149E+03  0.81768966955E+02 0.  0.
         66    2    3    3    0    0 -0.35552152632E+02  0.17404089302E+02  0.41422344022E+02  0.57329472900E+02  0.19999993774E+01 0.  0.
         13    1    3    3    0    0  0.35552152632E+02 -0.17404089302E+02  0.16545734986E+02  0.42902568588E+02  0.10566000000E+00 0. -1.
         13    1    4    4    0    0 -0.53773460380E+01  0.24536235321E+01  0.58377246036E+01  0.83082074741E+01  0.10566000000E+00 0. -1.
        -13    1    4    4    0    0 -0.19604753212E+01  0.58255571263E+00  0.24030286033E+01  0.31573002941E+01  0.10566000000E+00 0.  1.
        -14    1    4    4    0    0 -0.28214331272E+02  0.14367910057E+02  0.33181590815E+02  0.45863965132E+02  0.00000000000E+00 0.  1.
<mgrwt>
<rscale>  0 0.81768967E+02</rscale>
<asrwt>0</asrwt>
<pdfrwt beam="1">  1        1 0.32510741E-02 0.81768967E+02</pdfrwt>
<pdfrwt beam="2">  1       -2 0.12169240E-01 0.81768967E+02</pdfrwt>
<totfact> 0.10595906E+05</totfact>
</mgrwt>
</event>
<event>
 8    1  0.1319619E-020  0.8018192E+02  0.7818608E-02  0.1328536E+00
         -2   -1    0    0    0  501 -0.00000000000E+00  0.00000000000E+00  0.82485483793E+02  0.82485483832E+02  0.25500000000E-02 0.  1.
          1   -1    0    0  501    0  0.00000000000E+00 -0.00000000000E+00 -0.19485670363E+02  0.19485671014E+02  0.50400000000E-02 0. -1.
        -24    2    1    2    0    0 -0.44408920985E-15  0.71054273576E-14  0.62999813430E+02  0.10197115485E+03  0.80181917715E+02 0.  0.
         66    2    3    3    0    0  0.24020377871E+01 -0.36678615050E+02  0.51795327081E+02  0.63544051574E+02  0.19999988681E+01 0.  0.
         13    1    3    3    0    0 -0.24020377871E+01  0.36678615050E+02  0.11204486349E+02  0.38427103272E+02  0.10566000000E+00 0. -1.
         13    1    4    4    0    0  0.15164918876E+01 -0.11070661377E+02  0.15620057880E+02  0.19205641441E+02  0.10566000000E+00 0. -1.
        -13    1    4    4    0    0  0.35759049174E+00 -0.89863457579E+01  0.12036550897E+02  0.15025711383E+02  0.10566000000E+00 0.  1.
         14    1    4    4    0    0  0.52795540774E+00 -0.16621607916E+02  0.24138718304E+02  0.29312698750E+02  0.00000000000E+00 0. -1.
<mgrwt>
<rscale>  0 0.80181918E+02</rscale>
<asrwt>0</asrwt>
<pdfrwt beam="1">  1        1 0.29977956E-02 0.80181918E+02</pdfrwt>
<pdfrwt beam="2">  1       -2 0.12690074E-01 0.80181918E+02</pdfrwt>
<totfact> 0.11037619E+05</totfact>
</mgrwt>
</event>
<event>
 8    1  0.1319619E-020  0.7984305E+02  0.7818608E-02  0.1329497E+00
          1   -1    0    0  501    0  0.00000000000E+00  0.00000000000E+00  0.45725141372E+02  0.45725141649E+02  0.50400000000E-02 0. -1.
         -2   -1    0    0    0  501 -0.00000000000E+00 -0.00000000000E+00 -0.34854525614E+02  0.34854525708E+02  0.25500000000E-02 0.  1.
        -24    2    1    2    0    0  0.00000000000E+00  0.00000000000E+00  0.10870615757E+02  0.80579667357E+02  0.79843049193E+02 0.  0.
         66    2    3    3    0    0  0.32430798456E+02 -0.31611102023E+01 -0.17794841625E+02  0.37180716711E+02  0.20000001130E+01 0.  0.
         13    1    3    3    0    0 -0.32430798456E+02  0.31611102023E+01  0.28665457382E+02  0.43398950646E+02  0.10566000000E+00 0. -1.
         13    1    4    4    0    0  0.20603495832E+02 -0.10853190510E+01 -0.11132366769E+02  0.23444033609E+02  0.10566000000E+00 0. -1.
        -13    1    4    4    0    0  0.62077169605E+01 -0.12390324870E+01 -0.34682486864E+01  0.72187855178E+01  0.10566000000E+00 0.  1.
         14    1    4    4    0    0  0.56195856636E+01 -0.83675866435E+00 -0.31942261694E+01  0.65178975839E+01  0.00000000000E+00 0. -1.
<mgrwt>
<rscale>  0 0.79843049E+02</rscale>
<asrwt>0</asrwt>
<pdfrwt beam="1">  1        1 0.70346372E-02 0.79843049E+02</pdfrwt>
<pdfrwt beam="2">  1       -2 0.53622347E-02 0.79843049E+02</pdfrwt>
<totfact> 0.13044153E+05</totfact>
</mgrwt>
</event>
<event>
 8    1  0.1319619E-020  0.8207092E+02  0.7818608E-02  0.1323275E+00
         -2   -1    0    0    0  501 -0.00000000000E+00  0.00000000000E+00  0.17331974479E+02  0.17331974666E+02  0.25500000000E-02 0.  1.
          1   -1    0    0  501    0  0.00000000000E+00 -0.00000000000E+00 -0.97156210464E+02  0.97156210595E+02  0.50400000000E-02 0. -1.
        -24    2    1    2    0    0  0.00000000000E+00 -0.71054273576E-14 -0.79824235986E+02  0.11448818526E+03  0.82070920025E+02 0.  0.
         66    2    3    3    0    0 -0.15694471341E+01  0.33663020917E+02 -0.73322818658E+01  0.34545976649E+02  0.20000009238E+01 0.  0.
         13    1    3    3    0    0  0.15694471341E+01 -0.33663020917E+02 -0.72491954120E+02  0.79942208612E+02  0.10566000000E+00 0. -1.
         13    1    4    4    0    0  0.40161025940E-01  0.34381137756E+01 -0.72929736840E+00  0.35164297134E+01  0.10566000000E+00 0.  1.
        -13    1    4    4    0    0  0.29283264337E+00  0.92989278362E+01 -0.18449290156E+01  0.94852905579E+01  0.10566000000E+00 0.  1.
        -14    1    4    4    0    0 -0.19024408035E+01  0.20925979306E+02 -0.47580554818E+01  0.21544256378E+02  0.00000000000E+00 0.  1.
<mgrwt>
<rscale>  0 0.82070920E+02</rscale>
<asrwt>0</asrwt>
<pdfrwt beam="1">  1        1 0.14947109E-01 0.82070920E+02</pdfrwt>
<pdfrwt beam="2">  1       -2 0.26664577E-02 0.82070920E+02</pdfrwt>
<totfact> 0.13649418E+05</totfact>
</mgrwt>
</event>
<event>
 8    1  0.1319619E-020  0.8328203E+02  0.7818608E-02  0.1319987E+00
         -2   -1    0    0    0  501 -0.00000000000E+00  0.00000000000E+00  0.12242553852E+03  0.12242553854E+03  0.25500000000E-02 0.  1.
          1   -1    0    0  501    0  0.00000000000E+00 -0.00000000000E+00 -0.14163499754E+02  0.14163500651E+02  0.50400000000E-02 0. -1.
        -24    2    1    2    0    0  0.35527136788E-14  0.00000000000E+00  0.10826203876E+03  0.13658903919E+03  0.83282030419E+02 0.  0.
         66    2    3    3    0    0  0.26015411359E+02 -0.32328873127E+02  0.48972793443E+02  0.64220652169E+02  0.20000003879E+01 0.  0.
         13    1    3    3    0    0 -0.26015411359E+02  0.32328873127E+02  0.59289245318E+02  0.72368387023E+02  0.10566000000E+00 0. -1.
         13    1    4    4    0    0  0.50282007803E+01 -0.73131146082E+01  0.10152876228E+02  0.13485418351E+02  0.10566000000E+00 0. -1.
        -13    1    4    4    0    0  0.35434733484E+01 -0.38922755403E+01  0.66339597150E+01  0.84691556715E+01  0.10566000000E+00 0.  1.
         14    1    4    4    0    0  0.17443737231E+02 -0.21123482979E+02  0.32185957501E+02  0.42266078147E+02  0.00000000000E+00 0. -1.
<mgrwt>
<rscale>  0 0.83282030E+02</rscale>
<asrwt>0</asrwt>
<pdfrwt beam="1">  1        1 0.21790001E-02 0.83282030E+02</pdfrwt>
<pdfrwt beam="2">  1       -2 0.18834698E-01 0.83282030E+02</pdfrwt>
<totfact> 0.90702130E+04</totfact>
</mgrwt>
</event>
<event>
 8    1  0.1319619E-020  0.8464493E+02  0.7818608E-02  0.1316364E+00
         -2   -1    0    0    0  501 -0.00000000000E+00  0.00000000000E+00  0.19494513751E+02  0.19494513918E+02  0.25500000000E-02 0.  1.
          1   -1    0    0  501    0  0.00000000000E+00 -0.00000000000E+00 -0.91881794018E+02  0.91881794156E+02  0.50400000000E-02 0. -1.
        -24    2    1    2    0    0 -0.17763568394E-14  0.71054273576E-14 -0.72387280266E+02  0.11137630807E+03  0.84644926935E+02 0.  0.
         66    2    3    3    0    0  0.80571424544E+01 -0.41521293917E+02 -0.35555235559E+02  0.55291140031E+02  0.19999993090E+01 0.  0.
         13    1    3    3    0    0 -0.80571424544E+01  0.41521293917E+02 -0.36832044707E+02  0.56085168043E+02  0.10566000000E+00 0. -1.
         13    1    4    4    0    0  0.28630264344E+01 -0.12868635305E+02 -0.11743302522E+02  0.17655452788E+02  0.10566000000E+00 0. -1.
        -13    1    4    4    0    0  0.32596387547E+01 -0.14595181025E+02 -0.12197268417E+02  0.19298421564E+02  0.10566000000E+00 0.  1.
        -14    1    4    4    0    0  0.19344772653E+01 -0.14057477586E+02 -0.11614664620E+02  0.18337265680E+02  0.00000000000E+00 0.  1.
<mgrwt>
<rscale>  0 0.84644927E+02</rscale>
<asrwt>0</asrwt>
<pdfrwt beam="1">  1        1 0.14135660E-01 0.84644927E+02</pdfrwt>
<pdfrwt beam="2">  1       -2 0.29991560E-02 0.84644927E+02</pdfrwt>
<totfact> 0.12430090E+05</totfact>
</mgrwt>
</event>
<event>
 8    1  0.1319619E-020  0.7798083E+02  0.7818608E-02  0.1334881E+00
         -2   -1    0    0    0  501 -0.00000000000E+00  0.00000000000E+00  0.10189526306E+03  0.10189526309E+03  0.25500000000E-02 0.  1.
          1   -1    0    0  501    0  0.00000000000E+00 -0.00000000000E+00 -0.14919754230E+02  0.14919755082E+02  0.50400000000E-02 0. -1.
        -24    2    1    2    0    0  0.35527136788E-14  0.00000000000E+00  0.86975508829E+02  0.11681501817E+03  0.77980826712E+02 0.  0.
         66    2    3    3    0    0 -0.22866047325E+02 -0.31219378416E+02  0.36693945866E+02  0.53366200635E+02  0.19999994956E+01 0.  0.
         13    1    3    3    0    0  0.22866047325E+02  0.31219378416E+02  0.50281562963E+02  0.63448817538E+02  0.10566000000E+00 0. -1.
         13    1    4    4    0    0 -0.51363647915E+01 -0.71543496836E+01  0.91973390077E+01  0.12734566012E+02  0.10566000000E+00 0. -1.
        -13    1    4    4    0    0 -0.92381188459E+01 -0.13236758693E+02  0.14280282364E+02  0.21552082241E+02  0.10566000000E+00 0.  1.
        -14    1    4    4    0    0 -0.84915636874E+01 -0.10828270040E+02  0.13216324494E+02  0.19079552381E+02  0.00000000000E+00 0.  1.
<mgrwt>
<rscale>  0 0.77980827E+02</rscale>
<asrwt>0</asrwt>
<pdfrwt beam="1">  1        1 0.22953469E-02 0.77980827E+02</pdfrwt>
<pdfrwt beam="2">  1       -2 0.15676194E-01 0.77980827E+02</pdfrwt>
<totfact> 0.11277236E+05</totfact>
</mgrwt>
</event>
<event>
 8    1  0.1319619E-020  0.7983699E+02  0.7818608E-02  0.1329515E+00
          1   -1    0    0  501    0  0.00000000000E+00  0.00000000000E+00  0.53807125925E+01  0.53807149529E+01  0.50400000000E-02 0. -1.
         -2   -1    0    0    0  501 -0.00000000000E+00 -0.00000000000E+00 -0.29614773197E+03  0.29614773198E+03  0.25500000000E-02 0.  1.
        -24    2    1    2    0    0  0.00000000000E+00 -0.17763568394E-14 -0.29076701938E+03  0.30152844693E+03  0.79836988625E+02 0.  0.
         66    2    3    3    0    0 -0.25615398174E+02  0.15080842728E+02 -0.24596159795E+03  0.24775933504E+03  0.19999975255E+01 0.  0.
         13    1    3    3    0    0  0.25615398174E+02 -0.15080842728E+02 -0.44805421426E+02  0.53769111896E+02  0.10566000000E+00 0. -1.
         13    1    4    4    0    0 -0.34392574258E+01  0.19647958501E+01 -0.34048452518E+02  0.34278232120E+02  0.10566000000E+00 0.  1.
        -13    1    4    4    0    0 -0.43566871655E+01  0.22066146298E+01 -0.45493810495E+02  0.45755303830E+02  0.10566000000E+00 0.  1.
        -14    1    4    4    0    0 -0.17819453582E+02  0.10909432248E+02 -0.16641933494E+03  0.16772579909E+03  0.00000000000E+00 0.  1.
<mgrwt>
<rscale>  0 0.79836989E+02</rscale>
<asrwt>0</asrwt>
<pdfrwt beam="1">  1        1 0.82780235E-03 0.79836989E+02</pdfrwt>
<pdfrwt beam="2">  1       -2 0.45561177E-01 0.79836989E+02</pdfrwt>
<totfact> 0.71136979E+04</totfact>
</mgrwt>
</event>
<event>
 8    1  0.1319619E-020  0.8053357E+02  0.7818608E-02  0.1327544E+00
          1   -1    0    0  501    0  0.00000000000E+00  0.00000000000E+00  0.97033658243E+02  0.97033658374E+02  0.50400000000E-02 0. -1.
         -2   -1    0    0    0  501 -0.00000000000E+00 -0.00000000000E+00 -0.16709808804E+02  0.16709808998E+02  0.25500000000E-02 0.  1.
        -24    2    1    2    0    0 -0.35527136788E-14  0.35527136788E-14  0.80323849439E+02  0.11374346737E+03  0.80533568039E+02 0.  0.
         66    2    3    3    0    0  0.31401332187E+02  0.18848792894E+02  0.16633916421E+02  0.40274158212E+02  0.19999968764E+01 0.  0.
         13    1    3    3    0    0 -0.31401332187E+02 -0.18848792894E+02  0.63689933018E+02  0.73469309160E+02  0.10566000000E+00 0. -1.
         13    1    4    4    0    0  0.27553656404E+01  0.14462306632E+01  0.18011984923E+01  0.35970964663E+01  0.10566000000E+00 0. -1.
        -13    1    4    4    0    0  0.39302787095E+01  0.21376206366E+01  0.24068733837E+01  0.50814088835E+01  0.10566000000E+00 0.  1.
        -14    1    4    4    0    0  0.24715687837E+02  0.15264941594E+02  0.12425844545E+02  0.31595652862E+02  0.00000000000E+00 0.  1.
<mgrwt>
<rscale>  0 0.80533568E+02</rscale>
<asrwt>0</asrwt>
<pdfrwt beam="1">  1        1 0.14928256E-01 0.80533568E+02</pdfrwt>
<pdfrwt beam="2">  1       -2 0.25707398E-02 0.80533568E+02</pdfrwt>
<totfact> 0.14364334E+05</totfact>
</mgrwt>
</event>
<event>
 8    1  0.1319619E-020  0.8041477E+02  0.7818608E-02  0.1327878E+00
          1   -1    0    0  501    0  0.00000000000E+00  0.00000000000E+00  0.33506988000E+02  0.33506988379E+02  0.50400000000E-02 0. -1.
         -2   -1    0    0    0  501 -0.00000000000E+00 -0.00000000000E+00 -0.48247661284E+02  0.48247661351E+02  0.25500000000E-02 0.  1.
        -24    2    1    2    0    0 -0.44408920985E-15  0.71054273576E-14 -0.14740673284E+02  0.81754649730E+02  0.80414770432E+02 0.  0.
         66    2    3    3    0    0  0.33512866527E+01 -0.31231694917E+02 -0.32851935641E+02  0.45496148964E+02  0.20000013874E+01 0.  0.
         13    1    3    3    0    0 -0.33512866527E+01  0.31231694917E+02  0.18111262357E+02  0.36258500767E+02  0.10566000000E+00 0. -1.
         13    1    4    4    0    0  0.25947953873E+00 -0.26176560826E+01 -0.32057060481E+01  0.41481523960E+01  0.10566000000E+00 0. -1.
        -13    1    4    4    0    0  0.10017829392E+01 -0.61111998683E+01 -0.71634784194E+01  0.94697898598E+01  0.10566000000E+00 0.  1.
         14    1    4    4    0    0  0.20900241748E+01 -0.22502838966E+02 -0.22482751174E+02  0.31878206708E+02  0.00000000000E+00 0. -1.
<mgrwt>
<rscale>  0 0.80414770E+02</rscale>
<asrwt>0</asrwt>
<pdfrwt beam="1">  1        1 0.51549213E-02 0.80414770E+02</pdfrwt>
<pdfrwt beam="2">  1       -2 0.74227171E-02 0.80414770E+02</pdfrwt>
<totfact> 0.12148670E+05</totfact>
</mgrwt>
</event>
<event>
 8    1  0.1319619E-020  0.7933225E+02  0.7818608E-02  0.1330957E+00
         -2   -1    0    0    0  501 -0.00000000000E+00  0.00000000000E+00  0.69199249761E+02  0.69199249808E+02  0.25500000000E-02 0.  1.
          1   -1    0    0  501    0  0.00000000000E+00 -0.00000000000E+00 -0.22737263386E+02  0.22737263945E+02  0.50400000000E-02 0. -1.
        -24    2    1    2    0    0  0.00000000000E+00  0.00000000000E+00  0.46461986375E+02  0.91936513753E+02  0.79332253107E+02 0.  0.
         66    2    3    3    0    0 -0.33282281557E+02 -0.13323740316E+02  0.42849775087E+02  0.55904700642E+02  0.20000018235E+01 0.  0.
         13    1    3    3    0    0  0.33282281557E+02  0.13323740316E+02  0.36122112883E+01  0.36031813111E+02  0.10566000000E+00 0. -1.
         13    1    4    4    0    0 -0.13186997830E+02 -0.47095393632E+01  0.17563209233E+02  0.22462282951E+02  0.10566000000E+00 0. -1.
        -13    1    4    4    0    0 -0.11291802044E+02 -0.43904383111E+01  0.14379336629E+02  0.18803117505E+02  0.10566000000E+00 0.  1.
        -14    1    4    4    0    0 -0.88034816825E+01 -0.42237626413E+01  0.10907229224E+02  0.14639300186E+02  0.00000000000E+00 0.  1.
<mgrwt>
<rscale>  0 0.79332253E+02</rscale>
<asrwt>0</asrwt>
<pdfrwt beam="1">  1        1 0.34980407E-02 0.79332253E+02</pdfrwt>
<pdfrwt beam="2">  1       -2 0.10646038E-01 0.79332253E+02</pdfrwt>
<totfact> 0.11765390E+05</totfact>
</mgrwt>
</event>
<event>
 8    1  0.1319619E-020  0.7292629E+02  0.7818608E-02  0.1350416E+00
         -2   -1    0    0    0  501 -0.00000000000E+00  0.00000000000E+00  0.38908919079E+03  0.38908919079E+03  0.25500000000E-02 0.  1.
          1   -1    0    0  501    0  0.00000000000E+00 -0.00000000000E+00 -0.34171093388E+01  0.34171130556E+01  0.50400000000E-02 0. -1.
        -24    2    1    2    0    0  0.00000000000E+00 -0.22204460493E-15  0.38567208145E+03  0.39250630385E+03  0.72926292612E+02 0.  0.
         66    2    3    3    0    0 -0.36372671881E+02 -0.19707573610E+01  0.18847416936E+03  0.19197230963E+03  0.20000005980E+01 0.  0.
         13    1    3    3    0    0  0.36372671881E+02  0.19707573610E+01  0.19719791208E+03  0.20053399422E+03  0.10566000000E+00 0. -1.
         13    1    4    4    0    0 -0.11421573883E+02 -0.15048345706E+00  0.61263721730E+02  0.62319577658E+02  0.10566000000E+00 0. -1.
        -13    1    4    4    0    0 -0.23724378287E+02 -0.19741511983E+01  0.12139483346E+03  0.12370715481E+03  0.10566000000E+00 0.  1.
        -14    1    4    4    0    0 -0.12267197106E+01  0.15387729434E+00  0.58156141779E+01  0.59455771576E+01  0.00000000000E+00 0.  1.
<mgrwt>
<rscale>  0 0.72926293E+02</rscale>
<asrwt>0</asrwt>
<pdfrwt beam="1">  1        1 0.52570985E-03 0.72926293E+02</pdfrwt>
<pdfrwt beam="2">  1       -2 0.59859826E-01 0.72926293E+02</pdfrwt>
<totfact> 0.76365109E+04</totfact>
</mgrwt>
</event>
<event>
 8    1  0.1319619E-020  0.7810345E+02  0.7818608E-02  0.1334521E+00
         -2   -1    0    0    0  501 -0.00000000000E+00  0.00000000000E+00  0.10467553169E+03  0.10467553172E+03  0.25500000000E-02 0.  1.
          1   -1    0    0  501    0  0.00000000000E+00 -0.00000000000E+00 -0.14569184366E+02  0.14569185238E+02  0.50400000000E-02 0. -1.
        -24    2    1    2    0    0  0.11102230246E-15 -0.35527136788E-14  0.90106347320E+02  0.11924471695E+03  0.78103448670E+02 0.  0.
         66    2    3    3    0    0  0.85919932361E+00 -0.21091892074E+02  0.95197050723E+02  0.97529916474E+02  0.20000015668E+01 0.  0.
         13    1    3    3    0    0 -0.85919932361E+00  0.21091892074E+02 -0.50907034036E+01  0.21714800480E+02  0.10566000000E+00 0. -1.
         13    1    4    4    0    0 -0.39374819161E-01 -0.45754528349E+01  0.20904009521E+02  0.21399184497E+02  0.10566000000E+00 0. -1.
        -13    1    4    4    0    0  0.37073441218E+00 -0.15213421075E+02  0.67667279682E+02  0.69357461952E+02  0.10566000000E+00 0.  1.
        -14    1    4    4    0    0  0.52783973058E+00 -0.13030181639E+01  0.66257615203E+01  0.67732700256E+01  0.00000000000E+00 0.  1.
<mgrwt>
<rscale>  0 0.78103449E+02</rscale>
<asrwt>0</asrwt>
<pdfrwt beam="1">  1        1 0.22414131E-02 0.78103449E+02</pdfrwt>
<pdfrwt beam="2">  1       -2 0.16103927E-01 0.78103449E+02</pdfrwt>
<totfact> 0.11155916E+05</totfact>
</mgrwt>
</event>
<event>
 8    1  0.1319619E-020  0.8039450E+02  0.7818608E-02  0.1327936E+00
         -2   -1    0    0    0  501 -0.00000000000E+00  0.00000000000E+00  0.23670294323E+02  0.23670294460E+02  0.25500000000E-02 0.  1.
          1   -1    0    0  501    0  0.00000000000E+00 -0.00000000000E+00 -0.68263567785E+02  0.68263567971E+02  0.50400000000E-02 0. -1.
        -24    2    1    2    0    0  0.00000000000E+00  0.00000000000E+00 -0.44593273462E+02  0.91933862432E+02  0.80394496226E+02 0.  0.
         66    2    3    3    0    0  0.29872097048E+02  0.44903856199E+01  0.79729306520E+01  0.31306123532E+02  0.20000005764E+01 0.  0.
         13    1    3    3    0    0 -0.29872097048E+02 -0.44903856199E+01 -0.52566204114E+02  0.60627738900E+02  0.10566000000E+00 0. -1.
         13    1    4    4    0    0  0.97653669988E+01  0.10721760879E+01  0.32993530546E+01  0.10363824043E+02  0.10566000000E+00 0. -1.
        -13    1    4    4    0    0  0.19669850084E+01  0.52314684381E+00  0.30667058066E+00  0.20610491319E+01  0.10566000000E+00 0.  1.
         14    1    4    4    0    0  0.18139745041E+02  0.28950626881E+01  0.43669070168E+01  0.18881250356E+02  0.00000000000E+00 0. -1.
<mgrwt>
<rscale>  0 0.80394496E+02</rscale>
<asrwt>0</asrwt>
<pdfrwt beam="1">  1        1 0.10502087E-01 0.80394496E+02</pdfrwt>
<pdfrwt beam="2">  1       -2 0.36415838E-02 0.80394496E+02</pdfrwt>
<totfact> 0.13630581E+05</totfact>
</mgrwt>
</event>
<event>
 8    1  0.1319619E-020  0.7703497E+02  0.7818608E-02  0.1337683E+00
          1   -1    0    0  501    0  0.00000000000E+00  0.00000000000E+00  0.59274877944E+02  0.59274878158E+02  0.50400000000E-02 0. -1.
         -2   -1    0    0    0  501 -0.00000000000E+00 -0.00000000000E+00 -0.25029098144E+02  0.25029098274E+02  0.25500000000E-02 0.  1.
        -24    2    1    2    0    0  0.00000000000E+00  0.00000000000E+00  0.34245779800E+02  0.84303976432E+02  0.77034972630E+02 0.  0.
         66    2    3    3    0    0  0.20576551044E+01  0.15525839842E+02 -0.21344545262E+02  0.26549486980E+02  0.19999997876E+01 0.  0.
         13    1    3    3    0    0 -0.20576551044E+01 -0.15525839842E+02  0.55590325062E+02  0.57754489452E+02  0.10566000000E+00 0. -1.
         13    1    4    4    0    0  0.11702035515E+01  0.57455276395E+01 -0.69279396846E+01  0.90767822778E+01  0.10566000000E+00 0. -1.
        -13    1    4    4    0    0  0.55050371151E+00  0.79210074578E+01 -0.10974962254E+02  0.13546452450E+02  0.10566000000E+00 0.  1.
        -14    1    4    4    0    0  0.33694784145E+00  0.18593047448E+01 -0.34416433234E+01  0.39262522521E+01  0.00000000000E+00 0.  1.
<mgrwt>
<rscale>  0 0.77034973E+02</rscale>
<asrwt>0</asrwt>
<pdfrwt beam="1">  1        1 0.91192119E-02 0.77034973E+02</pdfrwt>
<pdfrwt beam="2">  1       -2 0.38506305E-02 0.77034973E+02</pdfrwt>
<totfact> 0.14991449E+05</totfact>
</mgrwt>
</event>
<event>
 8    1  0.1319619E-020  0.8265140E+02  0.7818608E-02  0.1321691E+00
          1   -1    0    0  501    0  0.00000000000E+00  0.00000000000E+00  0.12830703277E+02  0.12830704267E+02  0.50400000000E-02 0. -1.
         -2   -1    0    0    0  501 -0.00000000000E+00 -0.00000000000E+00 -0.13310364844E+03  0.13310364846E+03  0.25500000000E-02 0.  1.
        -24    2    1    2    0    0  0.00000000000E+00  0.88817841970E-15 -0.12027294516E+03  0.14593435273E+03  0.82651400283E+02 0.  0.
         66    2    3    3    0    0 -0.85772457464E+01  0.64448336247E+01 -0.13059254572E+03  0.13104777002E+03  0.20000010532E+01 0.  0.
         13    1    3    3    0    0  0.85772457464E+01 -0.64448336247E+01  0.10319600559E+02  0.14886582710E+02  0.10566000000E+00 0. -1.
         13    1    4    4    0    0 -0.53342619523E+00  0.54462996077E+00 -0.11811253562E+02  0.11836301789E+02  0.10566000000E+00 0. -1.
        -13    1    4    4    0    0 -0.15388088787E+01  0.19376769381E+01 -0.32880785054E+02  0.32973924766E+02  0.10566000000E+00 0.  1.
        -14    1    4    4    0    0 -0.65050106725E+01  0.39625267258E+01 -0.85900507103E+02  0.86237543463E+02  0.00000000000E+00 0.  1.
<mgrwt>
<rscale>  0 0.82651400E+02</rscale>
<asrwt>0</asrwt>
<pdfrwt beam="1">  1        1 0.19739545E-02 0.82651400E+02</pdfrwt>
<pdfrwt beam="2">  1       -2 0.20477483E-01 0.82651400E+02</pdfrwt>
<totfact> 0.90242713E+04</totfact>
</mgrwt>
</event>
<event>
 8    1  0.1319619E-020  0.8105980E+02  0.7818608E-02  0.1326070E+00
         -2   -1    0    0    0  501 -0.00000000000E+00  0.00000000000E+00  0.25452647579E+02  0.25452647707E+02  0.25500000000E-02 0.  1.
          1   -1    0    0  501    0  0.00000000000E+00 -0.00000000000E+00 -0.64538385412E+02  0.64538385608E+02  0.50400000000E-02 0. -1.
        -24    2    1    2    0    0  0.35527136788E-14 -0.35527136788E-14 -0.39085737833E+02  0.89991033315E+02  0.81059799995E+02 0.  0.
         66    2    3    3    0    0 -0.17594442454E+02  0.12928048878E+02  0.18321293740E+02  0.28572165765E+02  0.19999997925E+01 0.  0.
         13    1    3    3    0    0  0.17594442454E+02 -0.12928048878E+02 -0.57407031573E+02  0.61418867550E+02  0.10566000000E+00 0. -1.
         13    1    4    4    0    0 -0.27533370278E+01  0.16921114473E+01  0.25796040081E+01  0.41363784659E+01  0.10566000000E+00 0. -1.
        -13    1    4    4    0    0 -0.34802390776E+01  0.34974556206E+01  0.38351463129E+01  0.62501016897E+01  0.10566000000E+00 0.  1.
        -14    1    4    4    0    0 -0.11360866349E+02  0.77384818099E+01  0.11906543419E+02  0.18185685610E+02  0.00000000000E+00 0.  1.
<mgrwt>
<rscale>  0 0.81059800E+02</rscale>
<asrwt>0</asrwt>
<pdfrwt beam="1">  1        1 0.99289823E-02 0.81059800E+02</pdfrwt>
<pdfrwt beam="2">  1       -2 0.39157920E-02 0.81059800E+02</pdfrwt>
<totfact> 0.13207338E+05</totfact>
</mgrwt>
</event>
<event>
 8    1  0.1319619E-020  0.8501190E+02  0.7818608E-02  0.1315401E+00
          1   -1    0    0  501    0  0.00000000000E+00  0.00000000000E+00  0.68536148242E+01  0.68536166773E+01  0.50400000000E-02 0. -1.
         -2   -1    0    0    0  501 -0.00000000000E+00 -0.00000000000E+00 -0.26362083908E+03  0.26362083910E+03  0.25500000000E-02 0.  1.
        -24    2    1    2    0    0  0.00000000000E+00 -0.35527136788E-14 -0.25676722426E+03  0.27047445577E+03  0.85011903708E+02 0.  0.
         66    2    3    3    0    0 -0.23694313131E+01  0.26670235006E+02 -0.23339133552E+03  0.23493069432E+03  0.19999992702E+01 0.  0.
         13    1    3    3    0    0  0.23694313131E+01 -0.26670235006E+02 -0.23375888742E+02  0.35543761457E+02  0.10566000000E+00 0. -1.
         13    1    4    4    0    0 -0.75307544112E+00  0.10478256097E+02 -0.94500204524E+02  0.95082389498E+02  0.10566000000E+00 0. -1.
        -13    1    4    4    0    0 -0.14344627981E+01  0.12244959833E+02 -0.10981218963E+03  0.11050214876E+03  0.10566000000E+00 0.  1.
         14    1    4    4    0    0 -0.18189307386E+00  0.39470190765E+01 -0.29078941366E+02  0.29346156062E+02  0.00000000000E+00 0. -1.
<mgrwt>
<rscale>  0 0.85011904E+02</rscale>
<asrwt>0</asrwt>
<pdfrwt beam="1">  1        1 0.10544026E-02 0.85011904E+02</pdfrwt>
<pdfrwt beam="2">  1       -2 0.40557044E-01 0.85011904E+02</pdfrwt>
<totfact> 0.64214618E+04</totfact>
</mgrwt>
</event>
<event>
 8    1  0.1319619E-020  0.7990061E+02  0.7818608E-02  0.1329334E+00
          1   -1    0    0  501    0  0.00000000000E+00  0.00000000000E+00  0.17749531849E+02  0.17749532565E+02  0.50400000000E-02 0. -1.
         -2   -1    0    0    0  501 -0.00000000000E+00 -0.00000000000E+00 -0.89919380509E+02  0.89919380545E+02  0.25500000000E-02 0.  1.
        -24    2    1    2    0    0 -0.88817841970E-15  0.00000000000E+00 -0.72169848660E+02  0.10766891311E+03  0.79900611979E+02 0.  0.
         66    2    3    3    0    0 -0.61604553532E+01  0.23150992996E+02 -0.79146462037E+02  0.82716879423E+02  0.20000003754E+01 0.  0.
         13    1    3    3    0    0  0.61604553532E+01 -0.23150992996E+02  0.69766133778E+01  0.24952033687E+02  0.10566000000E+00 0. -1.
         13    1    4    4    0    0 -0.11513615410E+00  0.62076729905E+00 -0.31510682622E+01  0.32154321019E+01  0.10566000000E+00 0. -1.
        -13    1    4    4    0    0 -0.17780663477E+01  0.63322118117E+01 -0.19959941179E+02  0.21015918782E+02  0.10566000000E+00 0.  1.
         14    1    4    4    0    0 -0.42672528514E+01  0.16198013885E+02 -0.56035452596E+02  0.58485528538E+02  0.00000000000E+00 0. -1.
<mgrwt>
<rscale>  0 0.79900612E+02</rscale>
<asrwt>0</asrwt>
<pdfrwt beam="1">  1        1 0.27306973E-02 0.79900612E+02</pdfrwt>
<pdfrwt beam="2">  1       -2 0.13833751E-01 0.79900612E+02</pdfrwt>
<totfact> 0.10921740E+05</totfact>
</mgrwt>
</event>
<event>
 8    1  0.1319619E-020  0.8151415E+02  0.7818608E-02  0.1324809E+00
         -2   -1    0    0    0  501 -0.00000000000E+00  0.00000000000E+00  0.31317553068E+02  0.31317553172E+02  0.25500000000E-02 0.  1.
          1   -1    0    0  501    0  0.00000000000E+00 -0.00000000000E+00 -0.53041797620E+02  0.53041797859E+02  0.50400000000E-02 0. -1.
        -24    2    1    2    0    0 -0.71054273576E-14 -0.17763568394E-14 -0.21724244552E+02  0.84359351031E+02  0.81514154017E+02 0.  0.
         66    2    3    3    0    0  0.38705660294E+02  0.11782951564E+02 -0.15741301499E+02  0.43459805092E+02  0.19999998522E+01 0.  0.
         13    1    3    3    0    0 -0.38705660294E+02 -0.11782951564E+02 -0.59829430534E+01  0.40899545939E+02  0.10566000000E+00 0. -1.
         13    1    4    4    0    0  0.59240407863E+01  0.12217666810E+01 -0.19788496214E+01  0.63650595378E+01  0.10566000000E+00 0. -1.
        -13    1    4    4    0    0  0.20228450817E+02  0.63807646685E+01 -0.81640682888E+01  0.22728122564E+02  0.10566000000E+00 0.  1.
         14    1    4    4    0    0  0.12553168691E+02  0.41804202142E+01 -0.55983835885E+01  0.14366622991E+02  0.00000000000E+00 0. -1.
<mgrwt>
<rscale>  0 0.81514154E+02</rscale>
<asrwt>0</asrwt>
<pdfrwt beam="1">  1        1 0.81602766E-02 0.81514154E+02</pdfrwt>
<pdfrwt beam="2">  1       -2 0.48180851E-02 0.81514154E+02</pdfrwt>
<totfact> 0.12605755E+05</totfact>
</mgrwt>
</event>
<event>
 8    1  0.1319619E-020  0.7967861E+02  0.7818608E-02  0.1329966E+00
         -2   -1    0    0    0  501 -0.00000000000E+00  0.00000000000E+00  0.46475039969E+01  0.46475046964E+01  0.25500000000E-02 0.  1.
          1   -1    0    0  501    0  0.00000000000E+00 -0.00000000000E+00 -0.34151021305E+03  0.34151021309E+03  0.50400000000E-02 0. -1.
        -24    2    1    2    0    0  0.00000000000E+00  0.00000000000E+00 -0.33686270906E+03  0.34615771779E+03  0.79678609618E+02 0.  0.
         66    2    3    3    0    0 -0.37844030519E+02 -0.36967088893E+01 -0.11725659693E+03  0.12328400478E+03  0.20000020732E+01 0.  0.
         13    1    3    3    0    0  0.37844030519E+02  0.36967088893E+01 -0.21960611213E+03  0.22287371301E+03  0.10566000000E+00 0. -1.
         13    1    4    4    0    0 -0.14270795319E+01 -0.27334494348E+00 -0.56388339016E+01  0.58239922092E+01  0.10566000000E+00 0. -1.
        -13    1    4    4    0    0 -0.19442099432E+02 -0.16044342399E+01 -0.60235413023E+02  0.63315760958E+02  0.10566000000E+00 0.  1.
         14    1    4    4    0    0 -0.16974851555E+02 -0.18189297059E+01 -0.51382350003E+02  0.54144251610E+02  0.00000000000E+00 0. -1.
<mgrwt>
<rscale>  0 0.79678610E+02</rscale>
<asrwt>0</asrwt>
<pdfrwt beam="1">  1        1 0.52540013E-01 0.79678610E+02</pdfrwt>
<pdfrwt beam="2">  1       -2 0.71500094E-03 0.79678610E+02</pdfrwt>
<totfact> 0.18678452E+05</totfact>
</mgrwt>
</event>
<event>
 8    1  0.1319619E-020  0.8005288E+02  0.7818608E-02  0.1328901E+00
          1   -1    0    0  501    0  0.00000000000E+00  0.00000000000E+00  0.38437872492E+01  0.38437905534E+01  0.50400000000E-02 0. -1.
         -2   -1    0    0    0  501 -0.00000000000E+00 -0.00000000000E+00 -0.41680638323E+03  0.41680638324E+03  0.25500000000E-02 0.  1.
        -24    2    1    2    0    0  0.00000000000E+00  0.00000000000E+00 -0.41296259598E+03  0.42065017379E+03  0.80052876472E+02 0.  0.
         66    2    3    3    0    0  0.33904235753E+02 -0.94093332927E+01 -0.30659720714E+03  0.30861607245E+03  0.19999990703E+01 0.  0.
         13    1    3    3    0    0 -0.33904235753E+02  0.94093332927E+01 -0.10636538885E+03  0.11203410134E+03  0.10566000000E+00 0. -1.
         13    1    4    4    0    0  0.50835638652E+01 -0.75337089231E+00 -0.45623568063E+02  0.45912213147E+02  0.10566000000E+00 0. -1.
        -13    1    4    4    0    0  0.71163500435E+01 -0.24386364370E+01 -0.64558405125E+02  0.64995293844E+02  0.10566000000E+00 0.  1.
        -14    1    4    4    0    0  0.21704321845E+02 -0.62173259634E+01 -0.19641523395E+03  0.19770856546E+03  0.00000000000E+00 0.  1.
<mgrwt>
<rscale>  0 0.80052876E+02</rscale>
<asrwt>0</asrwt>
<pdfrwt beam="1">  1        1 0.59135247E-03 0.80052876E+02</pdfrwt>
<pdfrwt beam="2">  1       -2 0.64124023E-01 0.80052876E+02</pdfrwt>
<totfact> 0.57383416E+04</totfact>
</mgrwt>
</event>
<event>
 8    1  0.1319619E-020  0.8009956E+02  0.7818608E-02  0.1328769E+00
          1   -1    0    0  501    0  0.00000000000E+00  0.00000000000E+00  0.23543561509E+03  0.23543561514E+03  0.50400000000E-02 0. -1.
         -2   -1    0    0    0  501 -0.00000000000E+00 -0.00000000000E+00 -0.68128384509E+01  0.68128389282E+01  0.25500000000E-02 0.  1.
        -24    2    1    2    0    0  0.00000000000E+00  0.00000000000E+00  0.22862277664E+03  0.24224845407E+03  0.80099559937E+02 0.  0.
         66    2    3    3    0    0 -0.17429283528E+02 -0.30540305575E+02  0.56563736567E+02  0.66632923371E+02  0.19999983929E+01 0.  0.
         13    1    3    3    0    0  0.17429283528E+02  0.30540305575E+02  0.17205904007E+03  0.17561553070E+03  0.10566000000E+00 0. -1.
         13    1    4    4    0    0 -0.87822336914E-01 -0.45058902910E+00  0.73547799966E+00  0.87340435057E+00  0.10566000000E+00 0.  1.
        -13    1    4    4    0    0 -0.14442984243E+02 -0.24256001368E+02  0.45780218256E+02  0.53784690608E+02  0.10566000000E+00 0.  1.
        -14    1    4    4    0    0 -0.28984769485E+01 -0.58337151782E+01  0.10048040311E+02  0.11974828412E+02  0.00000000000E+00 0.  1.
<mgrwt>
<rscale>  0 0.80099560E+02</rscale>
<asrwt>0</asrwt>
<pdfrwt beam="1">  1        1 0.36220864E-01 0.80099560E+02</pdfrwt>
<pdfrwt beam="2">  1       -2 0.10481290E-02 0.80099560E+02</pdfrwt>
<totfact> 0.17156050E+05</totfact>
</mgrwt>
</event>
<event>
 8    1  0.1319619E-020  0.8082269E+02  0.7818608E-02  0.1326733E+00
          1   -1    0    0  501    0  0.00000000000E+00  0.00000000000E+00  0.30976882408E+02  0.30976882818E+02  0.50400000000E-02 0. -1.
         -2   -1    0    0    0  501 -0.00000000000E+00 -0.00000000000E+00 -0.52719210657E+02  0.52719210719E+02  0.25500000000E-02 0.  1.
        -24    2    1    2    0    0  0.00000000000E+00  0.00000000000E+00 -0.21742328249E+02  0.83696093537E+02  0.80822690104E+02 0.  0.
         66    2    3    3    0    0  0.33138666898E+02  0.16823846549E+02 -0.27246691147E+02  0.46125862882E+02  0.19999979117E+01 0.  0.
         13    1    3    3    0    0 -0.33138666898E+02 -0.16823846549E+02  0.55043628981E+01  0.37570230655E+02  0.10566000000E+00 0. -1.
         13    1    4    4    0    0  0.98953243202E+01  0.59712329181E+01 -0.80554881680E+01  0.14088119804E+02  0.10566000000E+00 0. -1.
        -13    1    4    4    0    0  0.12981954238E+02  0.60915725969E+01 -0.10577024526E+02  0.17819175188E+02  0.10566000000E+00 0.  1.
         14    1    4    4    0    0  0.10261388340E+02  0.47610410340E+01 -0.86141784533E+01  0.14218567889E+02  0.00000000000E+00 0. -1.
<mgrwt>
<rscale>  0 0.80822690E+02</rscale>
<asrwt>0</asrwt>
<pdfrwt beam="1">  1        1 0.47656743E-02 0.80822690E+02</pdfrwt>
<pdfrwt beam="2">  1       -2 0.81106478E-02 0.80822690E+02</pdfrwt>
<totfact> 0.11811221E+05</totfact>
</mgrwt>
</event>
<event>
 8    1  0.1319619E-020  0.8114541E+02  0.7818608E-02  0.1325832E+00
         -2   -1    0    0    0  501 -0.00000000000E+00  0.00000000000E+00  0.14951762014E+03  0.14951762016E+03  0.25500000000E-02 0.  1.
          1   -1    0    0  501    0  0.00000000000E+00 -0.00000000000E+00 -0.11009701097E+02  0.11009702251E+02  0.50400000000E-02 0. -1.
        -24    2    1    2    0    0  0.71054273576E-14  0.00000000000E+00  0.13850791904E+03  0.16052732241E+03  0.81145410243E+02 0.  0.
         66    2    3    3    0    0  0.38050168945E+02 -0.12677697988E+02  0.81099397430E+02  0.90496694108E+02  0.19999994567E+01 0.  0.
         13    1    3    3    0    0 -0.38050168945E+02  0.12677697988E+02  0.57408521613E+02  0.70030628306E+02  0.10566000000E+00 0. -1.
         13    1    4    4    0    0  0.27851115033E+01 -0.14658466908E+01  0.65496387765E+01  0.72673574802E+01  0.10566000000E+00 0. -1.
        -13    1    4    4    0    0  0.26297861583E+02 -0.84596685598E+01  0.55900239669E+02  0.62353760713E+02  0.10566000000E+00 0.  1.
         14    1    4    4    0    0  0.89671958591E+01 -0.27521827374E+01  0.18649518985E+02  0.20875575915E+02  0.00000000000E+00 0. -1.
<mgrwt>
<rscale>  0 0.81145410E+02</rscale>
<asrwt>0</asrwt>
<pdfrwt beam="1">  1        1 0.16938003E-02 0.81145410E+02</pdfrwt>
<pdfrwt beam="2">  1       -2 0.23002710E-01 0.81145410E+02</pdfrwt>
<totfact> 0.91210171E+04</totfact>
</mgrwt>
</event>
<event>
 8    1  0.1319619E-020  0.8576521E+02  0.7818608E-02  0.1313443E+00
          1   -1    0    0  501    0  0.00000000000E+00  0.00000000000E+00  0.42291620242E+01  0.42291650273E+01  0.50400000000E-02 0. -1.
         -2   -1    0    0    0  501 -0.00000000000E+00 -0.00000000000E+00 -0.43481834901E+03  0.43481834902E+03  0.25500000000E-02 0.  1.
        -24    2    1    2    0    0  0.17763568394E-14  0.35527136788E-14 -0.43058918698E+03  0.43904751404E+03  0.85765212294E+02 0.  0.
         66    2    3    3    0    0  0.14628904373E+02  0.30416963494E+02 -0.35063099365E+03  0.35225742039E+03  0.19999997884E+01 0.  0.
         13    1    3    3    0    0 -0.14628904373E+02 -0.30416963494E+02 -0.79958193331E+02  0.86790093652E+02  0.10566000000E+00 0. -1.
         13    1    4    4    0    0  0.13528232439E+01  0.17528805907E+01 -0.23958950407E+02  0.24061279886E+02  0.10566000000E+00 0.  1.
        -13    1    4    4    0    0  0.43521650463E+01  0.94963055254E+01 -0.10997494368E+03  0.11046999846E+03  0.10566000000E+00 0.  1.
         14    1    4    4    0    0  0.89239160825E+01  0.19167777378E+02 -0.21669709957E+03  0.21772614204E+03  0.00000000000E+00 0. -1.
<mgrwt>
<rscale>  0 0.85765212E+02</rscale>
<asrwt>0</asrwt>
<pdfrwt beam="1">  1        1 0.65064089E-03 0.85765212E+02</pdfrwt>
<pdfrwt beam="2">  1       -2 0.66895095E-01 0.85765212E+02</pdfrwt>
<totfact> 0.46615805E+04</totfact>
</mgrwt>
</event>
<event>
 8    1  0.1319619E-020  0.7995355E+02  0.7818608E-02  0.1329183E+00
         -2   -1    0    0    0  501 -0.00000000000E+00  0.00000000000E+00  0.45503768377E+02  0.45503768448E+02  0.25500000000E-02 0.  1.
          1   -1    0    0  501    0  0.00000000000E+00 -0.00000000000E+00 -0.35121101138E+02  0.35121101500E+02  0.50400000000E-02 0. -1.
        -24    2    1    2    0    0  0.35527136788E-14  0.00000000000E+00  0.10382667239E+02  0.80624869948E+02  0.79953548234E+02 0.  0.
         66    2    3    3    0    0 -0.20842849634E+02 -0.33537455959E+02  0.11324443334E+02  0.41126978367E+02  0.19999999138E+01 0.  0.
         13    1    3    3    0    0  0.20842849634E+02  0.33537455959E+02 -0.94177609569E+00  0.39497891581E+02  0.10566000000E+00 0. -1.
         13    1    4    4    0    0 -0.29998998846E+01 -0.44761368373E+01  0.11663536090E+01  0.55142311414E+01  0.10566000000E+00 0. -1.
        -13    1    4    4    0    0 -0.21532135455E+01 -0.37103563047E+01  0.79979565525E+00  0.43650784192E+01  0.10566000000E+00 0.  1.
        -14    1    4    4    0    0 -0.15689736204E+02 -0.25350962818E+02  0.93582940700E+01  0.31247668806E+02  0.00000000000E+00 0.  1.
<mgrwt>
<rscale>  0 0.79953548E+02</rscale>
<asrwt>0</asrwt>
<pdfrwt beam="1">  1        1 0.54032464E-02 0.79953548E+02</pdfrwt>
<pdfrwt beam="2">  1       -2 0.70005797E-02 0.79953548E+02</pdfrwt>
<totfact> 0.12448249E+05</totfact>
</mgrwt>
</event>
<event>
 8    1  0.1319619E-020  0.8073176E+02  0.7818608E-02  0.1326988E+00
         -2   -1    0    0    0  501 -0.00000000000E+00  0.00000000000E+00  0.17705903020E+03  0.17705903022E+03  0.25500000000E-02 0.  1.
          1   -1    0    0  501    0  0.00000000000E+00 -0.00000000000E+00 -0.92026048056E+01  0.92026061857E+01  0.50400000000E-02 0. -1.
        -24    2    1    2    0    0  0.35527136788E-14  0.00000000000E+00  0.16785642539E+03  0.18626163640E+03  0.80731763574E+02 0.  0.
         66    2    3    3    0    0  0.28676016356E+02 -0.26716960300E+02  0.10602353300E+03  0.11305352464E+03  0.20000006451E+01 0.  0.
         13    1    3    3    0    0 -0.28676016356E+02  0.26716960300E+02  0.61832892393E+02  0.73208111760E+02  0.10566000000E+00 0. -1.
         13    1    4    4    0    0  0.10008836334E+01 -0.70741833705E+00  0.26800580452E+01  0.29489123270E+01  0.10566000000E+00 0. -1.
        -13    1    4    4    0    0  0.21161265220E+02 -0.20205665205E+02  0.80392685866E+02  0.85551523405E+02  0.10566000000E+00 0.  1.
        -14    1    4    4    0    0  0.65138675024E+01 -0.58038767579E+01  0.22950789090E+02  0.24553088912E+02  0.00000000000E+00 0.  1.
<mgrwt>
<rscale>  0 0.80731764E+02</rscale>
<asrwt>0</asrwt>
<pdfrwt beam="1">  1        1 0.14157855E-02 0.80731764E+02</pdfrwt>
<pdfrwt beam="2">  1       -2 0.27239849E-01 0.80731764E+02</pdfrwt>
<totfact> 0.87127076E+04</totfact>
</mgrwt>
</event>
<event>
 8    1  0.1319619E-020  0.8010797E+02  0.7818608E-02  0.1328745E+00
         -2   -1    0    0    0  501 -0.00000000000E+00  0.00000000000E+00  0.17905679730E+02  0.17905679912E+02  0.25500000000E-02 0.  1.
          1   -1    0    0  501    0  0.00000000000E+00 -0.00000000000E+00 -0.89598476248E+02  0.89598476390E+02  0.50400000000E-02 0. -1.
        -24    2    1    2    0    0  0.00000000000E+00  0.35527136788E-14 -0.71692796518E+02  0.10750415630E+03  0.80107968078E+02 0.  0.
         66    2    3    3    0    0 -0.27313122446E+01 -0.31865097212E+02 -0.35639702157E+01  0.32241996990E+02  0.19999998173E+01 0.  0.
         13    1    3    3    0    0  0.27313122446E+01  0.31865097212E+02 -0.68128826302E+02  0.75262159312E+02  0.10566000000E+00 0. -1.
         13    1    4    4    0    0 -0.13278463093E+01 -0.64389047488E+01 -0.61235645245E+00  0.66036970438E+01  0.10566000000E+00 0. -1.
        -13    1    4    4    0    0 -0.11394832055E+01 -0.17855272537E+02 -0.20077014770E+01  0.18004199749E+02  0.10566000000E+00 0.  1.
         14    1    4    4    0    0 -0.26398272984E+00 -0.75709199270E+01 -0.94391228625E+00  0.76341001976E+01  0.00000000000E+00 0. -1.
<mgrwt>
<rscale>  0 0.80107968E+02</rscale>
<asrwt>0</asrwt>
<pdfrwt beam="1">  1        1 0.13784381E-01 0.80107968E+02</pdfrwt>
<pdfrwt beam="2">  1       -2 0.27547200E-02 0.80107968E+02</pdfrwt>
<totfact> 0.14380401E+05</totfact>
</mgrwt>
</event>
<event>
 8    1  0.1319619E-020  0.7848984E+02  0.7818608E-02  0.1333393E+00
          1   -1    0    0  501    0  0.00000000000E+00  0.00000000000E+00  0.43386923480E+02  0.43386923772E+02  0.50400000000E-02 0. -1.
         -2   -1    0    0    0  501 -0.00000000000E+00 -0.00000000000E+00 -0.35498337582E+02  0.35498337674E+02  0.25500000000E-02 0.  1.
        -24    2    1    2    0    0  0.00000000000E+00  0.00000000000E+00  0.78885858973E+01  0.78885261446E+02  0.78489838106E+02 0.  0.
         66    2    3    3    0    0 -0.12617508893E+02 -0.36854627644E+02  0.85187891454E+01  0.39925366302E+02  0.19999991036E+01 0.  0.
         13    1    3    3    0    0  0.12617508893E+02  0.36854627644E+02 -0.63020324805E+00  0.38959895144E+02  0.10566000000E+00 0. -1.
         13    1    4    4    0    0 -0.40415860518E+01 -0.12043661721E+02  0.22965390285E+01  0.12910052712E+02  0.10566000000E+00 0. -1.
        -13    1    4    4    0    0 -0.86301396598E+01 -0.24679775458E+02  0.62104201153E+01  0.26872869390E+02  0.10566000000E+00 0.  1.
        -14    1    4    4    0    0  0.54216818094E-01 -0.13119046463E+00  0.11830001531E-01  0.14244420069E+00  0.00000000000E+00 0.  1.
<mgrwt>
<rscale>  0 0.78489838E+02</rscale>
<asrwt>0</asrwt>
<pdfrwt beam="1">  1        1 0.66749114E-02 0.78489838E+02</pdfrwt>
<pdfrwt beam="2">  1       -2 0.54612827E-02 0.78489838E+02</pdfrwt>
<totfact> 0.13569567E+05</totfact>
</mgrwt>
</event>
<event>
 8    1  0.1319619E-020  0.7975705E+02  0.7818608E-02  0.1329742E+00
         -2   -1    0    0    0  501 -0.00000000000E+00  0.00000000000E+00  0.29013899504E+03  0.29013899505E+03  0.25500000000E-02 0.  1.
          1   -1    0    0  501    0  0.00000000000E+00 -0.00000000000E+00 -0.54811540420E+01  0.54811563591E+01  0.50400000000E-02 0. -1.
        -24    2    1    2    0    0  0.00000000000E+00 -0.44408920985E-15  0.28465784100E+03  0.29562015141E+03  0.79757052844E+02 0.  0.
         66    2    3    3    0    0  0.22874674268E+02 -0.20788511294E+01  0.26313427784E+03  0.26414242468E+03  0.19999995491E+01 0.  0.
         13    1    3    3    0    0 -0.22874674268E+02  0.20788511294E+01  0.21523563160E+02  0.31477726729E+02  0.10566000000E+00 0. -1.
         13    1    4    4    0    0  0.17446514486E+02 -0.13284214772E+01  0.20578709416E+03  0.20652962222E+03  0.10566000000E+00 0. -1.
        -13    1    4    4    0    0  0.27356857100E+01 -0.26505425465E+00  0.32187047867E+02  0.32304356432E+02  0.10566000000E+00 0.  1.
         14    1    4    4    0    0  0.26924740727E+01 -0.48537539754E+00  0.25160135820E+02  0.25308446028E+02  0.00000000000E+00 0. -1.
<mgrwt>
<rscale>  0 0.79757053E+02</rscale>
<asrwt>0</asrwt>
<pdfrwt beam="1">  1        1 0.84325479E-03 0.79757053E+02</pdfrwt>
<pdfrwt beam="2">  1       -2 0.44636761E-01 0.79757053E+02</pdfrwt>
<totfact> 0.72107693E+04</totfact>
</mgrwt>
</event>
<event>
 8    1  0.1319619E-020  0.8104629E+02  0.7818608E-02  0.1326108E+00
          1   -1    0    0  501    0  0.00000000000E+00  0.00000000000E+00  0.14097471662E+03  0.14097471671E+03  0.50400000000E-02 0. -1.
         -2   -1    0    0    0  501 -0.00000000000E+00 -0.00000000000E+00 -0.11648368150E+02  0.11648368430E+02  0.25500000000E-02 0.  1.
        -24    2    1    2    0    0  0.35527136788E-14  0.11102230246E-15  0.12932634846E+03  0.15262308513E+03  0.81046293616E+02 0.  0.
         66    2    3    3    0    0 -0.26440913676E+02 -0.78514199073E+00  0.69541368791E+01  0.27424412233E+02  0.20000006596E+01 0.  0.
         13    1    3    3    0    0  0.26440913676E+02  0.78514199073E+00  0.12237221159E+03  0.12519867290E+03  0.10566000000E+00 0. -1.
         13    1    4    4    0    0 -0.10417825312E+02  0.10316425971E+00  0.30591806058E+01  0.10858705131E+02  0.10566000000E+00 0. -1.
        -13    1    4    4    0    0 -0.15981073218E+02 -0.91952906233E+00  0.39518089567E+01  0.16488426031E+02  0.10566000000E+00 0.  1.
         14    1    4    4    0    0 -0.42015145176E-01  0.31222811894E-01 -0.56852683413E-01  0.77281071537E-01  0.00000000000E+00 0. -1.
<mgrwt>
<rscale>  0 0.81046294E+02</rscale>
<asrwt>0</asrwt>
<pdfrwt beam="1">  1        1 0.21688418E-01 0.81046294E+02</pdfrwt>
<pdfrwt beam="2">  1       -2 0.17920566E-02 0.81046294E+02</pdfrwt>
<totfact> 0.15075943E+05</totfact>
</mgrwt>
</event>
<event>
 8    1  0.1319619E-020  0.8429541E+02  0.7818608E-02  0.1317285E+00
         -2   -1    0    0    0  501 -0.00000000000E+00  0.00000000000E+00  0.75896282783E+02  0.75896282826E+02  0.25500000000E-02 0.  1.
          1   -1    0    0  501    0  0.00000000000E+00 -0.00000000000E+00 -0.23406007151E+02  0.23406007694E+02  0.50400000000E-02 0. -1.
        -24    2    1    2    0    0  0.00000000000E+00  0.35527136788E-14  0.52490275631E+02  0.99302290520E+02  0.84295408336E+02 0.  0.
         66    2    3    3    0    0  0.36859154600E+02 -0.18055223058E+02  0.37425405921E+02  0.55581016283E+02  0.20000012809E+01 0.  0.
         13    1    3    3    0    0 -0.36859154600E+02  0.18055223058E+02  0.15064869710E+02  0.43721274237E+02  0.10566000000E+00 0. -1.
         13    1    4    4    0    0  0.54939810788E+01 -0.22181625244E+01  0.53322931684E+01  0.79717367962E+01  0.10566000000E+00 0. -1.
        -13    1    4    4    0    0  0.12648751333E+02 -0.56557805943E+01  0.12995998318E+02  0.18996997151E+02  0.10566000000E+00 0.  1.
        -14    1    4    4    0    0  0.18716422188E+02 -0.10181279940E+02  0.19097114435E+02  0.28612282336E+02  0.00000000000E+00 0.  1.
<mgrwt>
<rscale>  0 0.84295408E+02</rscale>
<asrwt>0</asrwt>
<pdfrwt beam="1">  1        1 0.36009243E-02 0.84295408E+02</pdfrwt>
<pdfrwt beam="2">  1       -2 0.11676351E-01 0.84295408E+02</pdfrwt>
<totfact> 0.98924790E+04</totfact>
</mgrwt>
</event>
<event>
 8    1  0.1319619E-020  0.8559512E+02  0.7818608E-02  0.1313884E+00
          1   -1    0    0  501    0  0.00000000000E+00  0.00000000000E+00  0.14623157197E+03  0.14623157205E+03  0.50400000000E-02 0. -1.
         -2   -1    0    0    0  501 -0.00000000000E+00 -0.00000000000E+00 -0.12525551322E+02  0.12525551582E+02  0.25500000000E-02 0.  1.
        -24    2    1    2    0    0  0.00000000000E+00  0.00000000000E+00  0.13370602064E+03  0.15875712364E+03  0.85595118718E+02 0.  0.
         66    2    3    3    0    0 -0.13020219971E+01 -0.31832992999E+02  0.13953042643E+02  0.34838514827E+02  0.20000029561E+01 0.  0.
         13    1    3    3    0    0  0.13020219971E+01  0.31832992999E+02  0.11975297800E+03  0.12391860881E+03  0.10566000000E+00 0. -1.
         13    1    4    4    0    0  0.72291123764E-01 -0.13305352460E+01  0.32029292768E+00  0.13745186948E+01  0.10566000000E+00 0. -1.
        -13    1    4    4    0    0 -0.11542214349E+01 -0.29357892350E+02  0.12905661523E+02  0.32090268520E+02  0.10566000000E+00 0.  1.
        -14    1    4    4    0    0 -0.22009168595E+00 -0.11445654036E+01  0.72708819211E+00  0.13737276122E+01  0.00000000000E+00 0.  1.
<mgrwt>
<rscale>  0 0.85595119E+02</rscale>
<asrwt>0</asrwt>
<pdfrwt beam="1">  1        1 0.22497163E-01 0.85595119E+02</pdfrwt>
<pdfrwt beam="2">  1       -2 0.19270080E-02 0.85595119E+02</pdfrwt>
<totfact> 0.13106599E+05</totfact>
</mgrwt>
</event>
<event>
 8    1  0.1319619E-020  0.7894037E+02  0.7818608E-02  0.1332086E+00
         -2   -1    0    0    0  501 -0.00000000000E+00  0.00000000000E+00  0.27948251449E+03  0.27948251450E+03  0.25500000000E-02 0.  1.
          1   -1    0    0  501    0  0.00000000000E+00 -0.00000000000E+00 -0.55742130647E+01  0.55742153432E+01  0.50400000000E-02 0. -1.
        -24    2    1    2    0    0 -0.88817841970E-15  0.00000000000E+00  0.27390830142E+03  0.28505672984E+03  0.78940367621E+02 0.  0.
         66    2    3    3    0    0 -0.64093432759E+01  0.22627525764E+02  0.25139297811E+03  0.25249854268E+03  0.20000023682E+01 0.  0.
         13    1    3    3    0    0  0.64093432759E+01 -0.22627525764E+02  0.22515323317E+02  0.32558187166E+02  0.10566000000E+00 0. -1.
         13    1    4    4    0    0 -0.20069055648E+01  0.52105221603E+01  0.61981957172E+02  0.62233040983E+02  0.10566000000E+00 0.  1.
        -13    1    4    4    0    0 -0.16858833003E+01  0.68293835221E+01  0.67636471589E+02  0.68001368624E+02  0.10566000000E+00 0. -1.
         14    1    4    4    0    0 -0.27165544108E+01  0.10587620081E+02  0.12177454935E+03  0.12226413307E+03  0.00000000000E+00 0. -1.
<mgrwt>
<rscale>  0 0.78940368E+02</rscale>
<asrwt>0</asrwt>
<pdfrwt beam="1">  1        1 0.85757153E-03 0.78940368E+02</pdfrwt>
<pdfrwt beam="2">  1       -2 0.42997304E-01 0.78940368E+02</pdfrwt>
<totfact> 0.75515879E+04</totfact>
</mgrwt>
</event>
<event>
 8    1  0.1319619E-020  0.7957408E+02  0.7818608E-02  0.1330265E+00
          1   -1    0    0  501    0  0.00000000000E+00  0.00000000000E+00  0.36107691376E+02  0.36107691728E+02  0.50400000000E-02 0. -1.
         -2   -1    0    0    0  501 -0.00000000000E+00 -0.00000000000E+00 -0.43841307532E+02  0.43841307606E+02  0.25500000000E-02 0.  1.
        -24    2    1    2    0    0  0.35527136788E-14  0.00000000000E+00 -0.77336161559E+01  0.79948999334E+02  0.79574076656E+02 0.  0.
         66    2    3    3    0    0 -0.19350395534E+02 -0.14674461800E+02 -0.35501322441E+02  0.43059511498E+02  0.19999997364E+01 0.  0.
         13    1    3    3    0    0  0.19350395534E+02  0.14674461800E+02  0.27767706285E+02  0.36889487836E+02  0.10566000000E+00 0. -1.
         13    1    4    4    0    0 -0.56466243098E+01 -0.43249997149E+01 -0.91142975542E+01  0.11561642296E+02  0.10566000000E+00 0. -1.
        -13    1    4    4    0    0 -0.10349365739E+02 -0.80112175593E+01 -0.19394770650E+02  0.23397804824E+02  0.10566000000E+00 0.  1.
        -14    1    4    4    0    0 -0.33544054857E+01 -0.23382445254E+01 -0.69922542363E+01  0.81000643780E+01  0.00000000000E+00 0.  1.
<mgrwt>
<rscale>  0 0.79574077E+02</rscale>
<asrwt>0</asrwt>
<pdfrwt beam="1">  1        1 0.55550295E-02 0.79574077E+02</pdfrwt>
<pdfrwt beam="2">  1       -2 0.67448166E-02 0.79574077E+02</pdfrwt>
<totfact> 0.12675850E+05</totfact>
</mgrwt>
</event>
<event>
 8    1  0.1319619E-020  0.8088876E+02  0.7818608E-02  0.1326548E+00
          1   -1    0    0  501    0  0.00000000000E+00  0.00000000000E+00  0.79409902433E+02  0.79409902593E+02  0.50400000000E-02 0. -1.
         -2   -1    0    0    0  501 -0.00000000000E+00 -0.00000000000E+00 -0.20598787360E+02  0.20598787517E+02  0.25500000000E-02 0.  1.
        -24    2    1    2    0    0  0.35527136788E-14  0.00000000000E+00  0.58811115074E+02  0.10000869011E+03  0.80888755964E+02 0.  0.
         66    2    3    3    0    0 -0.21842116093E+02  0.31834813964E+02  0.14627794257E+02  0.41334075344E+02  0.20000010501E+01 0.  0.
         13    1    3    3    0    0  0.21842116093E+02 -0.31834813964E+02  0.44183320817E+02  0.58674614766E+02  0.10566000000E+00 0. -1.
         13    1    4    4    0    0 -0.88650104959E+01  0.11344482624E+02  0.55360945360E+01  0.15425472565E+02  0.10566000000E+00 0. -1.
        -13    1    4    4    0    0 -0.59384593041E+01  0.96943547837E+01  0.44983733492E+01  0.12226706032E+02  0.10566000000E+00 0.  1.
         14    1    4    4    0    0 -0.70386462931E+01  0.10795976556E+02  0.45933263721E+01  0.13681896747E+02  0.00000000000E+00 0. -1.
<mgrwt>
<rscale>  0 0.80888756E+02</rscale>
<asrwt>0</asrwt>
<pdfrwt beam="1">  1        1 0.12216908E-01 0.80888756E+02</pdfrwt>
<pdfrwt beam="2">  1       -2 0.31690442E-02 0.80888756E+02</pdfrwt>
<totfact> 0.13732519E+05</totfact>
</mgrwt>
</event>
<event>
 8    1  0.1319619E-020  0.8041055E+02  0.7818608E-02  0.1327890E+00
          1   -1    0    0  501    0  0.00000000000E+00  0.00000000000E+00  0.46536423302E+01  0.46536450595E+01  0.50400000000E-02 0. -1.
         -2   -1    0    0    0  501 -0.00000000000E+00 -0.00000000000E+00 -0.34735452564E+03  0.34735452564E+03  0.25500000000E-02 0.  1.
        -24    2    1    2    0    0  0.17763568394E-14  0.00000000000E+00 -0.34270088331E+03  0.35200817070E+03  0.80410551698E+02 0.  0.
         66    2    3    3    0    0 -0.13836065910E+02  0.35842842882E+02 -0.22294004554E+03  0.22623529791E+03  0.20000018445E+01 0.  0.
         13    1    3    3    0    0  0.13836065910E+02 -0.35842842882E+02 -0.11976083777E+03  0.12577287280E+03  0.10566000000E+00 0. -1.
         13    1    4    4    0    0 -0.59456811326E+01  0.17466142595E+02 -0.10945601888E+03  0.11100021845E+03  0.10566000000E+00 0. -1.
        -13    1    4    4    0    0 -0.16143389905E+01  0.44823218299E+01 -0.26519247898E+02  0.26943996966E+02  0.10566000000E+00 0.  1.
         14    1    4    4    0    0 -0.62760457872E+01  0.13894378457E+02 -0.86964778756E+02  0.88291082492E+02  0.00000000000E+00 0. -1.
<mgrwt>
<rscale>  0 0.80410552E+02</rscale>
<asrwt>0</asrwt>
<pdfrwt beam="1">  1        1 0.71594546E-03 0.80410552E+02</pdfrwt>
<pdfrwt beam="2">  1       -2 0.53439137E-01 0.80410552E+02</pdfrwt>
<totfact> 0.63760911E+04</totfact>
</mgrwt>
</event>
<event>
 8    1  0.1319619E-020  0.7937323E+02  0.7818608E-02  0.1330840E+00
          1   -1    0    0  501    0  0.00000000000E+00  0.00000000000E+00  0.16213354964E+02  0.16213355747E+02  0.50400000000E-02 0. -1.
         -2   -1    0    0    0  501 -0.00000000000E+00 -0.00000000000E+00 -0.97143833983E+02  0.97143834016E+02  0.25500000000E-02 0.  1.
        -24    2    1    2    0    0  0.00000000000E+00  0.35527136788E-14 -0.80930479019E+02  0.11335718976E+03  0.79373232496E+02 0.  0.
         66    2    3    3    0    0  0.24606083206E+02 -0.18839225873E+02 -0.75840099982E+02  0.81951793969E+02  0.20000017951E+01 0.  0.
         13    1    3    3    0    0 -0.24606083206E+02  0.18839225873E+02 -0.50903790367E+01  0.31405395795E+02  0.10566000000E+00 0. -1.
         13    1    4    4    0    0  0.13353070248E+02 -0.11086633241E+02 -0.42360386319E+02  0.45778066962E+02  0.10566000000E+00 0. -1.
        -13    1    4    4    0    0  0.77743453261E+01 -0.50263032413E+01 -0.23568785062E+02  0.25321985760E+02  0.10566000000E+00 0.  1.
        -14    1    4    4    0    0  0.34786676319E+01 -0.27262893908E+01 -0.99109286014E+01  0.10851741246E+02  0.00000000000E+00 0.  1.
<mgrwt>
<rscale>  0 0.79373232E+02</rscale>
<asrwt>0</asrwt>
<pdfrwt beam="1">  1        1 0.24943624E-02 0.79373232E+02</pdfrwt>
<pdfrwt beam="2">  1       -2 0.14945205E-01 0.79373232E+02</pdfrwt>
<totfact> 0.10905928E+05</totfact>
</mgrwt>
</event>
<event>
 8    1  0.1319619E-020  0.7705698E+02  0.7818608E-02  0.1337617E+00
         -2   -1    0    0    0  501 -0.00000000000E+00  0.00000000000E+00  0.10099452320E+02  0.10099452642E+02  0.25500000000E-02 0.  1.
          1   -1    0    0  501    0  0.00000000000E+00 -0.00000000000E+00 -0.14698266270E+03  0.14698266279E+03  0.50400000000E-02 0. -1.
        -24    2    1    2    0    0  0.00000000000E+00  0.35527136788E-14 -0.13688321038E+03  0.15708211543E+03  0.77056976996E+02 0.  0.
         66    2    3    3    0    0 -0.18829016266E+02 -0.15497020455E+02 -0.77496343899E+01  0.25666054353E+02  0.20000040920E+01 0.  0.
         13    1    3    3    0    0  0.18829016266E+02  0.15497020455E+02 -0.12913357599E+03  0.13141606108E+03  0.10566000000E+00 0. -1.
         13    1    4    4    0    0 -0.38710234545E+01 -0.34478214282E+01 -0.24318373845E+01  0.57268920267E+01  0.10566000000E+00 0. -1.
        -13    1    4    4    0    0 -0.30728559474E+01 -0.23028912207E+01 -0.87951967978E+00  0.39408718008E+01  0.10566000000E+00 0.  1.
         14    1    4    4    0    0 -0.11885136864E+02 -0.97463078061E+01 -0.44382773257E+01  0.15998290526E+02  0.00000000000E+00 0. -1.
<mgrwt>
<rscale>  0 0.77056977E+02</rscale>
<asrwt>0</asrwt>
<pdfrwt beam="1">  1        1 0.22612716E-01 0.77056977E+02</pdfrwt>
<pdfrwt beam="2">  1       -2 0.15537620E-02 0.77056977E+02</pdfrwt>
<totfact> 0.17383426E+05</totfact>
</mgrwt>
</event>
<event>
 8    1  0.1319619E-020  0.7872792E+02  0.7818608E-02  0.1332701E+00
         -2   -1    0    0    0  501 -0.00000000000E+00  0.00000000000E+00  0.31403732337E+02  0.31403732441E+02  0.25500000000E-02 0.  1.
          1   -1    0    0  501    0  0.00000000000E+00 -0.00000000000E+00 -0.49341945420E+02  0.49341945678E+02  0.50400000000E-02 0. -1.
        -24    2    1    2    0    0 -0.35527136788E-14  0.00000000000E+00 -0.17938213083E+02  0.80745678119E+02  0.78727917832E+02 0.  0.
         66    2    3    3    0    0  0.28053395357E+02 -0.26746822185E+02 -0.20847514757E+01  0.38868131664E+02  0.19999955730E+01 0.  0.
         13    1    3    3    0    0 -0.28053395357E+02  0.26746822185E+02 -0.15853461608E+02  0.41877546454E+02  0.10566000000E+00 0. -1.
         13    1    4    4    0    0  0.10892733745E+02 -0.10509741797E+02 -0.16116468267E+01  0.15222184160E+02  0.10566000000E+00 0. -1.
        -13    1    4    4    0    0  0.11649208342E+02 -0.11064195253E+02 -0.72711367119E+00  0.16082920441E+02  0.10566000000E+00 0.  1.
         14    1    4    4    0    0  0.55114532703E+01 -0.51728851348E+01  0.25400902214E+00  0.75630270627E+01  0.00000000000E+00 0. -1.
<mgrwt>
<rscale>  0 0.78727918E+02</rscale>
<asrwt>0</asrwt>
<pdfrwt beam="1">  1        1 0.75910686E-02 0.78727918E+02</pdfrwt>
<pdfrwt beam="2">  1       -2 0.48313435E-02 0.78727918E+02</pdfrwt>
<totfact> 0.13727949E+05</totfact>
</mgrwt>
</event>
<event>
 8    1  0.1319619E-020  0.8010063E+02  0.7818608E-02  0.1328766E+00
         -2   -1    0    0    0  501 -0.00000000000E+00  0.00000000000E+00  0.27406751942E+02  0.27406752061E+02  0.25500000000E-02 0.  1.
          1   -1    0    0  501    0  0.00000000000E+00 -0.00000000000E+00 -0.58526735677E+02  0.58526735894E+02  0.50400000000E-02 0. -1.
        -24    2    1    2    0    0  0.00000000000E+00  0.71054273576E-14 -0.31119983735E+02  0.85933487955E+02  0.80100630238E+02 0.  0.
         66    2    3    3    0    0  0.43910583665E+01  0.38365473298E+02 -0.26863951507E+02  0.47083572777E+02  0.19999999832E+01 0.  0.
         13    1    3    3    0    0 -0.43910583665E+01 -0.38365473298E+02 -0.42560322277E+01  0.38849915178E+02  0.10566000000E+00 0. -1.
         13    1    4    4    0    0  0.29385820153E+01  0.25844737578E+02 -0.17703986588E+02  0.31464710866E+02  0.10566000000E+00 0. -1.
        -13    1    4    4    0    0  0.15972210754E+01  0.11633417070E+02 -0.86528570923E+01  0.14586658555E+02  0.10566000000E+00 0.  1.
         14    1    4    4    0    0 -0.14474472415E+00  0.88731864948E+00 -0.50710782672E+00  0.10322033563E+01  0.00000000000E+00 0. -1.
<mgrwt>
<rscale>  0 0.80100630E+02</rscale>
<asrwt>0</asrwt>
<pdfrwt beam="1">  1        1 0.90041132E-02 0.80100630E+02</pdfrwt>
<pdfrwt beam="2">  1       -2 0.42164234E-02 0.80100630E+02</pdfrwt>
<totfact> 0.13439191E+05</totfact>
</mgrwt>
</event>
<event>
 8    1  0.1319619E-020  0.7975836E+02  0.7818608E-02  0.1329739E+00
         -2   -1    0    0    0  501 -0.00000000000E+00  0.00000000000E+00  0.15660670453E+03  0.15660670455E+03  0.25500000000E-02 0.  1.
          1   -1    0    0  501    0  0.00000000000E+00 -0.00000000000E+00 -0.10155049812E+02  0.10155051063E+02  0.50400000000E-02 0. -1.
        -24    2    1    2    0    0  0.00000000000E+00  0.00000000000E+00  0.14645165472E+03  0.16676175561E+03  0.79758359849E+02 0.  0.
         66    2    3    3    0    0  0.10313118682E+02  0.24050043329E+02  0.13612145829E+03  0.13862833912E+03  0.20000000178E+01 0.  0.
         13    1    3    3    0    0 -0.10313118682E+02 -0.24050043329E+02  0.10330196425E+02  0.28133416488E+02  0.10566000000E+00 0. -1.
         13    1    4    4    0    0  0.14724803611E+01  0.26990053575E+01  0.18266128388E+02  0.18523375466E+02  0.10566000000E+00 0. -1.
        -13    1    4    4    0    0  0.22142512483E+01  0.42963855657E+01  0.25740213831E+02  0.26190296096E+02  0.10566000000E+00 0.  1.
        -14    1    4    4    0    0  0.66263870723E+01  0.17054652406E+02  0.92115116072E+02  0.93914667562E+02  0.00000000000E+00 0.  1.
<mgrwt>
<rscale>  0 0.79758360E+02</rscale>
<asrwt>0</asrwt>
<pdfrwt beam="1">  1        1 0.15623154E-02 0.79758360E+02</pdfrwt>
<pdfrwt beam="2">  1       -2 0.24093340E-01 0.79758360E+02</pdfrwt>
<totfact> 0.93889035E+04</totfact>
</mgrwt>
</event>
<event>
 8    1  0.1319619E-020  0.7901486E+02  0.7818608E-02  0.1331871E+00
          1   -1    0    0  501    0  0.00000000000E+00  0.00000000000E+00  0.69445483618E+01  0.69445501907E+01  0.50400000000E-02 0. -1.
         -2   -1    0    0    0  501 -0.00000000000E+00 -0.00000000000E+00 -0.22475715140E+03  0.22475715141E+03  0.25500000000E-02 0.  1.
        -24    2    1    2    0    0  0.00000000000E+00  0.17763568394E-14 -0.21781260304E+03  0.23170170160E+03  0.79014862427E+02 0.  0.
         66    2    3    3    0    0 -0.33560624656E+01  0.15125457268E+02 -0.21546572381E+03  0.21603129577E+03  0.20000002884E+01 0.  0.
         13    1    3    3    0    0  0.33560624656E+01 -0.15125457268E+02 -0.23468792230E+01  0.15670405833E+02  0.10566000000E+00 0. -1.
         13    1    4    4    0    0 -0.27214032374E+00  0.24941464051E+01 -0.41232750500E+02  0.41309147952E+02  0.10566000000E+00 0. -1.
        -13    1    4    4    0    0 -0.72555664269E+00  0.55575712383E+01 -0.72934388147E+02  0.73149498761E+02  0.10566000000E+00 0.  1.
        -14    1    4    4    0    0 -0.23583654992E+01  0.70737396244E+01 -0.10129858516E+03  0.10157264906E+03  0.00000000000E+00 0.  1.
<mgrwt>
<rscale>  0 0.79014862E+02</rscale>
<asrwt>0</asrwt>
<pdfrwt beam="1">  1        1 0.10683924E-02 0.79014862E+02</pdfrwt>
<pdfrwt beam="2">  1       -2 0.34578018E-01 0.79014862E+02</pdfrwt>
<totfact> 0.83606013E+04</totfact>
</mgrwt>
</event>
<event>
 8    1  0.1319619E-020  0.7910937E+02  0.7818608E-02  0.1331598E+00
          1   -1    0    0  501    0  0.00000000000E+00  0.00000000000E+00  0.16241697250E+03  0.16241697258E+03  0.50400000000E-02 0. -1.
         -2   -1    0    0    0  501 -0.00000000000E+00 -0.00000000000E+00 -0.96330630243E+01  0.96330633618E+01  0.25500000000E-02 0.  1.
        -24    2    1    2    0    0  0.35527136788E-14 -0.35527136788E-14  0.15278390948E+03  0.17205003594E+03  0.79109366527E+02 0.  0.
         66    2    3    3    0    0  0.29366333225E+02 -0.22706608645E+02  0.46891936503E+02  0.59839997587E+02  0.19999997265E+01 0.  0.
         13    1    3    3    0    0 -0.29366333225E+02  0.22706608645E+02  0.10589197297E+03  0.11221003835E+03  0.10566000000E+00 0. -1.
         13    1    4    4    0    0  0.12404071710E+02 -0.10454988470E+02  0.19820140363E+02  0.25612827000E+02  0.10566000000E+00 0. -1.
        -13    1    4    4    0    0  0.73266053692E+01 -0.57980778308E+01  0.12323642119E+02  0.15465450911E+02  0.10566000000E+00 0.  1.
         14    1    4    4    0    0  0.96356561456E+01 -0.64535423447E+01  0.14748154021E+02  0.18761719676E+02  0.00000000000E+00 0. -1.
<mgrwt>
<rscale>  0 0.79109367E+02</rscale>
<asrwt>0</asrwt>
<pdfrwt beam="1">  1        1 0.24987226E-01 0.79109367E+02</pdfrwt>
<pdfrwt beam="2">  1       -2 0.14820097E-02 0.79109367E+02</pdfrwt>
<totfact> 0.16509035E+05</totfact>
</mgrwt>
</event>
<event>
 8    1  0.1319619E-020  0.7764205E+02  0.7818608E-02  0.1335879E+00
         -2   -1    0    0    0  501 -0.00000000000E+00  0.00000000000E+00  0.82815527133E+02  0.82815527173E+02  0.25500000000E-02 0.  1.
          1   -1    0    0  501    0  0.00000000000E+00 -0.00000000000E+00 -0.18197937234E+02  0.18197937932E+02  0.50400000000E-02 0. -1.
        -24    2    1    2    0    0  0.00000000000E+00  0.00000000000E+00  0.64617589899E+02  0.10101346510E+03  0.77642045362E+02 0.  0.
         66    2    3    3    0    0 -0.37005764454E+02 -0.11633350370E+02  0.33049196231E+02  0.51000106024E+02  0.19999998197E+01 0.  0.
         13    1    3    3    0    0  0.37005764454E+02  0.11633350370E+02  0.31568393669E+02  0.50013359081E+02  0.10566000000E+00 0. -1.
         13    1    4    4    0    0 -0.15454853878E+02 -0.45076481528E+01  0.13197241715E+02  0.20817054382E+02  0.10566000000E+00 0. -1.
        -13    1    4    4    0    0 -0.19177408843E+02 -0.60814543058E+01  0.17128796814E+02  0.26422792069E+02  0.10566000000E+00 0.  1.
         14    1    4    4    0    0 -0.23735017336E+01 -0.10442479117E+01  0.27231577027E+01  0.37602595727E+01  0.00000000000E+00 0. -1.
<mgrwt>
<rscale>  0 0.77642045E+02</rscale>
<asrwt>0</asrwt>
<pdfrwt beam="1">  1        1 0.27996828E-02 0.77642045E+02</pdfrwt>
<pdfrwt beam="2">  1       -2 0.12740850E-01 0.77642045E+02</pdfrwt>
<totfact> 0.11970907E+05</totfact>
</mgrwt>
</event>
<event>
 8    1  0.1319619E-020  0.7987753E+02  0.7818608E-02  0.1329399E+00
          1   -1    0    0  501    0  0.00000000000E+00  0.00000000000E+00  0.43008492965E+01  0.43008522496E+01  0.50400000000E-02 0. -1.
         -2   -1    0    0    0  501 -0.00000000000E+00 -0.00000000000E+00 -0.37088122506E+03  0.37088122507E+03  0.25500000000E-02 0.  1.
        -24    2    1    2    0    0  0.00000000000E+00  0.00000000000E+00 -0.36658037577E+03  0.37518207732E+03  0.79877526539E+02 0.  0.
         66    2    3    3    0    0 -0.69846925806E+01 -0.19421495998E+02 -0.34386785454E+03  0.34449249893E+03  0.19999993467E+01 0.  0.
         13    1    3    3    0    0  0.69846925806E+01  0.19421495998E+02 -0.22712521229E+02  0.30689578392E+02  0.10566000000E+00 0. -1.
         13    1    4    4    0    0 -0.82874307946E+00 -0.24719498223E+01 -0.39981084217E+02  0.40066140446E+02  0.10566000000E+00 0. -1.
        -13    1    4    4    0    0 -0.25042485253E+01 -0.67797006163E+01 -0.10776337461E+03  0.10800551686E+03  0.10566000000E+00 0.  1.
         14    1    4    4    0    0 -0.36517009759E+01 -0.10169845559E+02 -0.19612339571E+03  0.19642084162E+03  0.00000000000E+00 0. -1.
<mgrwt>
<rscale>  0 0.79877527E+02</rscale>
<asrwt>0</asrwt>
<pdfrwt beam="1">  1        1 0.66166964E-03 0.79877527E+02</pdfrwt>
<pdfrwt beam="2">  1       -2 0.57058625E-01 0.79877527E+02</pdfrwt>
<totfact> 0.62297286E+04</totfact>
</mgrwt>
</event>
<event>
 8    1  0.1385153E-020  0.8039300E+02  0.7818608E-02  0.1327940E+00
          1   -1    0    0  501    0  0.00000000000E+00  0.00000000000E+00  0.84249090354E+02  0.84249090505E+02  0.50400000000E-02 0. -1.
         -2   -1    0    0    0  501 -0.00000000000E+00 -0.00000000000E+00 -0.19178352770E+02  0.19178352940E+02  0.25500000000E-02 0.  1.
        -24    2    1    2    0    0  0.00000000000E+00  0.00000000000E+00  0.65070737584E+02  0.10342744344E+03  0.80393004470E+02 0.  0.
         66    2    3    3    0    0  0.10083281927E+02  0.11962718352E+02 -0.15045458222E+02  0.21797821375E+02  0.19999997024E+01 0.  0.
         13    1    3    3    0    0 -0.10083281927E+02 -0.11962718352E+02  0.80116195805E+02  0.81629622069E+02  0.10566000000E+00 0. -1.
         13    1    4    4    0    0  0.50105985594E+00  0.31637501799E+00 -0.29108836459E+00  0.66861842844E+00  0.10566000000E+00 0. -1.
        -13    1    4    4    0    0  0.78581389766E+01  0.91694131658E+01 -0.11251982419E+02  0.16505961298E+02  0.10566000000E+00 0.  1.
        -14    1    4    4    0    0  0.17240830948E+01  0.24769301685E+01 -0.35023874378E+01  0.46232416487E+01  0.00000000000E+00 0.  1.
<mgrwt>
<rscale>  0 0.80393004E+02</rscale>
<asrwt>0</asrwt>
<pdfrwt beam="1">  1        1 0.12961399E-01 0.80393004E+02</pdfrwt>
<pdfrwt beam="2">  1       -2 0.29505158E-02 0.80393004E+02</pdfrwt>
<totfact> 0.14099394E+05</totfact>
</mgrwt>
</event>
<event>
 8    1  0.1319619E-020  0.8139334E+02  0.7818608E-02  0.1325143E+00
          1   -1    0    0  501    0  0.00000000000E+00  0.00000000000E+00  0.24580843081E+03  0.24580843086E+03  0.50400000000E-02 0. -1.
         -2   -1    0    0    0  501 -0.00000000000E+00 -0.00000000000E+00 -0.67378445865E+01  0.67378450691E+01  0.25500000000E-02 0.  1.
        -24    2    1    2    0    0  0.00000000000E+00  0.00000000000E+00  0.23907058622E+03  0.25254627593E+03  0.81393343028E+02 0.  0.
         66    2    3    3    0    0 -0.25551952025E+02  0.10640414213E+02  0.21207312448E+03  0.21388111368E+03  0.19999992747E+01 0.  0.
         13    1    3    3    0    0  0.25551952025E+02 -0.10640414213E+02  0.26997461743E+02  0.38665162246E+02  0.10566000000E+00 0. -1.
         13    1    4    4    0    0 -0.33173373037E+01  0.11127760495E+01  0.24381944046E+02  0.24631958039E+02  0.10566000000E+00 0. -1.
        -13    1    4    4    0    0 -0.13525397739E+02  0.50553510068E+01  0.11341651237E+03  0.11433201389E+03  0.10566000000E+00 0.  1.
        -14    1    4    4    0    0 -0.87092169828E+01  0.44722871565E+01  0.74274668062E+02  0.74917141754E+02  0.00000000000E+00 0.  1.
<mgrwt>
<rscale>  0 0.81393343E+02</rscale>
<asrwt>0</asrwt>
<pdfrwt beam="1">  1        1 0.37816682E-01 0.81393343E+02</pdfrwt>
<pdfrwt beam="2">  1       -2 0.10365915E-02 0.81393343E+02</pdfrwt>
<totfact> 0.16582397E+05</totfact>
</mgrwt>
</event>
<event>
 8    1  0.1319619E-020  0.7984903E+02  0.7818608E-02  0.1329480E+00
         -2   -1    0    0    0  501 -0.00000000000E+00  0.00000000000E+00  0.37607373205E+02  0.37607373292E+02  0.25500000000E-02 0.  1.
          1   -1    0    0  501    0  0.00000000000E+00 -0.00000000000E+00 -0.42384424627E+02  0.42384424926E+02  0.50400000000E-02 0. -1.
        -24    2    1    2    0    0  0.17763568394E-14  0.00000000000E+00 -0.47770514212E+01  0.79991798218E+02  0.79849029812E+02 0.  0.
         66    2    3    3    0    0 -0.14611047358E+02 -0.91217053800E+01  0.33664240617E+02  0.37867787113E+02  0.19999976493E+01 0.  0.
         13    1    3    3    0    0  0.14611047358E+02  0.91217053800E+01 -0.38441292038E+02  0.42124011105E+02  0.10566000000E+00 0. -1.
         13    1    4    4    0    0 -0.24307940369E+01 -0.13113451581E+01  0.64517470218E+01  0.70188738016E+01  0.10566000000E+00 0. -1.
        -13    1    4    4    0    0 -0.50021419010E+01 -0.29410131417E+01  0.96379167317E+01  0.11250403764E+02  0.10566000000E+00 0.  1.
         14    1    4    4    0    0 -0.71781114204E+01 -0.48693470802E+01  0.17574576863E+02  0.19598509547E+02  0.00000000000E+00 0. -1.
<mgrwt>
<rscale>  0 0.79849030E+02</rscale>
<asrwt>0</asrwt>
<pdfrwt beam="1">  1        1 0.65206807E-02 0.79849030E+02</pdfrwt>
<pdfrwt beam="2">  1       -2 0.57857498E-02 0.79849030E+02</pdfrwt>
<totfact> 0.12884871E+05</totfact>
</mgrwt>
</event>
<event>
 8    1  0.1319619E-020  0.7992140E+02  0.7818608E-02  0.1329275E+00
          1   -1    0    0  501    0  0.00000000000E+00  0.00000000000E+00  0.13208488677E+03  0.13208488687E+03  0.50400000000E-02 0. -1.
         -2   -1    0    0    0  501 -0.00000000000E+00 -0.00000000000E+00 -0.12089630332E+02  0.12089630601E+02  0.25500000000E-02 0.  1.
        -24    2    1    2    0    0  0.00000000000E+00  0.00000000000E+00  0.11999525644E+03  0.14417451747E+03  0.79921398383E+02 0.  0.
         66    2    3    3    0    0 -0.17753131861E+02  0.29111020572E+02  0.22530754244E+02  0.40917723204E+02  0.19999939372E+01 0.  0.
         13    1    3    3    0    0  0.17753131861E+02 -0.29111020572E+02  0.97464502196E+02  0.10325679427E+03  0.10566000000E+00 0. -1.
         13    1    4    4    0    0 -0.63073395554E+00  0.95473742185E+00  0.84608021663E+00  0.14270124862E+01  0.10566000000E+00 0. -1.
        -13    1    4    4    0    0 -0.14366960532E+02  0.24765070645E+02  0.19019089723E+02  0.34372303049E+02  0.10566000000E+00 0.  1.
        -14    1    4    4    0    0 -0.27554373737E+01  0.33912125058E+01  0.26655843051E+01  0.51184076691E+01  0.00000000000E+00 0.  1.
<mgrwt>
<rscale>  0 0.79921398E+02</rscale>
<asrwt>0</asrwt>
<pdfrwt beam="1">  1        1 0.20320750E-01 0.79921398E+02</pdfrwt>
<pdfrwt beam="2">  1       -2 0.18599433E-02 0.79921398E+02</pdfrwt>
<totfact> 0.15467714E+05</totfact>
</mgrwt>
</event>
<event>
 8    1  0.1319619E-020  0.7647593E+02  0.7818608E-02  0.1339361E+00
         -2   -1    0    0    0  501 -0.00000000000E+00  0.00000000000E+00  0.18783098017E+02  0.18783098190E+02  0.25500000000E-02 0.  1.
          1   -1    0    0  501    0  0.00000000000E+00 -0.00000000000E+00 -0.77843491805E+02  0.77843491968E+02  0.50400000000E-02 0. -1.
        -24    2    1    2    0    0  0.00000000000E+00  0.00000000000E+00 -0.59060393788E+02  0.96626590159E+02  0.76475929620E+02 0.  0.
         66    2    3    3    0    0  0.18443580361E+02 -0.22053509281E+02  0.22538505339E+01  0.28906795054E+02  0.20000074898E+01 0.  0.
         13    1    3    3    0    0 -0.18443580361E+02  0.22053509281E+02 -0.61314244322E+02  0.67719795104E+02  0.10566000000E+00 0. -1.
         13    1    4    4    0    0  0.80779153958E+01 -0.87783690720E+01  0.12919284226E+01  0.11999696821E+02  0.10566000000E+00 0. -1.
        -13    1    4    4    0    0  0.70219616548E+01 -0.89278023530E+01  0.11675134835E+01  0.11418750024E+02  0.10566000000E+00 0.  1.
         14    1    4    4    0    0  0.33437033103E+01 -0.43473378559E+01 -0.20559137225E+00  0.54883482099E+01  0.00000000000E+00 0. -1.
<mgrwt>
<rscale>  0 0.76475930E+02</rscale>
<asrwt>0</asrwt>
<pdfrwt beam="1">  1        1 0.11975922E-01 0.76475930E+02</pdfrwt>
<pdfrwt beam="2">  1       -2 0.28897075E-02 0.76475930E+02</pdfrwt>
<totfact> 0.15944784E+05</totfact>
</mgrwt>
</event>
<event>
 8    1  0.1319619E-020  0.8376930E+02  0.7818608E-02  0.1318683E+00
         -2   -1    0    0    0  501 -0.00000000000E+00  0.00000000000E+00  0.49872718529E+01  0.49872725049E+01  0.25500000000E-02 0.  1.
          1   -1    0    0  501    0  0.00000000000E+00 -0.00000000000E+00 -0.35176020034E+03  0.35176020037E+03  0.50400000000E-02 0. -1.
        -24    2    1    2    0    0  0.00000000000E+00  0.17763568394E-14 -0.34677292848E+03  0.35674747288E+03  0.83769299122E+02 0.  0.
         66    2    3    3    0    0  0.28247981011E+02 -0.14439778459E+02 -0.28979195948E+03  0.29153016210E+03  0.19999995791E+01 0.  0.
         13    1    3    3    0    0 -0.28247981011E+02  0.14439778459E+02 -0.56980969000E+02  0.65217310780E+02  0.10566000000E+00 0. -1.
         13    1    4    4    0    0  0.10438141045E+02 -0.46744392228E+01 -0.10150234236E+03  0.10214471028E+03  0.10566000000E+00 0. -1.
        -13    1    4    4    0    0  0.12972070716E+02 -0.73060854057E+01 -0.13343963689E+03  0.13426764822E+03  0.10566000000E+00 0.  1.
        -14    1    4    4    0    0  0.48377692497E+01 -0.24592538301E+01 -0.54849980238E+02  0.55117803592E+02  0.00000000000E+00 0.  1.
<mgrwt>
<rscale>  0 0.83769299E+02</rscale>
<asrwt>0</asrwt>
<pdfrwt beam="1">  1        1 0.54116934E-01 0.83769299E+02</pdfrwt>
<pdfrwt beam="2">  1       -2 0.76727292E-03 0.83769299E+02</pdfrwt>
<totfact> 0.16455882E+05</totfact>
</mgrwt>
</event>
<event>
 8    1  0.1319619E-020  0.7577549E+02  0.7818608E-02  0.1341486E+00
         -2   -1    0    0    0  501 -0.00000000000E+00  0.00000000000E+00  0.16445140640E+02  0.16445140837E+02  0.25500000000E-02 0.  1.
          1   -1    0    0  501    0  0.00000000000E+00 -0.00000000000E+00 -0.87289074850E+02  0.87289074995E+02  0.50400000000E-02 0. -1.
        -24    2    1    2    0    0  0.00000000000E+00  0.00000000000E+00 -0.70843934210E+02  0.10373421583E+03  0.75775487594E+02 0.  0.
         66    2    3    3    0    0 -0.36565401462E+02 -0.82350055301E+01 -0.42771809544E+02  0.56905813687E+02  0.20000098975E+01 0.  0.
         13    1    3    3    0    0  0.36565401462E+02  0.82350055301E+01 -0.28072124666E+02  0.46828402145E+02  0.10566000000E+00 0. -1.
         13    1    4    4    0    0 -0.28315840587E+01 -0.73068954008E+00 -0.30512930324E+01  0.42276859735E+01  0.10566000000E+00 0. -1.
        -13    1    4    4    0    0 -0.18714516860E+02 -0.32928033884E+01 -0.21973872289E+02  0.29050609682E+02  0.10566000000E+00 0.  1.
        -14    1    4    4    0    0 -0.15019300544E+02 -0.42115126017E+01 -0.17746644222E+02  0.23627518032E+02  0.00000000000E+00 0.  1.
<mgrwt>
<rscale>  0 0.75775488E+02</rscale>
<asrwt>0</asrwt>
<pdfrwt beam="1">  1        1 0.13429088E-01 0.75775488E+02</pdfrwt>
<pdfrwt beam="2">  1       -2 0.25300217E-02 0.75775488E+02</pdfrwt>
<totfact> 0.16642876E+05</totfact>
</mgrwt>
</event>
<event>
 8    1  0.1319619E-020  0.8060866E+02  0.7818608E-02  0.1327333E+00
         -2   -1    0    0    0  501 -0.00000000000E+00  0.00000000000E+00  0.41315689198E+02  0.41315689276E+02  0.25500000000E-02 0.  1.
          1   -1    0    0  501    0  0.00000000000E+00 -0.00000000000E+00 -0.39317724511E+02  0.39317724834E+02  0.50400000000E-02 0. -1.
        -24    2    1    2    0    0  0.00000000000E+00  0.00000000000E+00  0.19979646866E+01  0.80633414111E+02  0.80608657154E+02 0.  0.
         66    2    3    3    0    0 -0.10267026301E+02 -0.27113021400E+02  0.28970768839E+02  0.41034536773E+02  0.20000006237E+01 0.  0.
         13    1    3    3    0    0  0.10267026301E+02  0.27113021400E+02 -0.26972804153E+02  0.39598877338E+02  0.10566000000E+00 0. -1.
         13    1    4    4    0    0 -0.40054413216E+01 -0.96161391303E+01  0.11318840879E+02  0.15383140604E+02  0.10566000000E+00 0. -1.
        -13    1    4    4    0    0 -0.18666565309E+01 -0.55616157416E+01  0.62083454368E+01  0.85422885318E+01  0.10566000000E+00 0.  1.
        -14    1    4    4    0    0 -0.43949284483E+01 -0.11935266528E+02  0.11443582524E+02  0.17109107637E+02  0.00000000000E+00 0.  1.
<mgrwt>
<rscale>  0 0.80608657E+02</rscale>
<asrwt>0</asrwt>
<pdfrwt beam="1">  1        1 0.60488808E-02 0.80608657E+02</pdfrwt>
<pdfrwt beam="2">  1       -2 0.63562599E-02 0.80608657E+02</pdfrwt>
<totfact> 0.12394006E+05</totfact>
</mgrwt>
</event>
<event>
 8    1  0.1319619E-020  0.7667578E+02  0.7818608E-02  0.1338759E+00
         -2   -1    0    0    0  501 -0.00000000000E+00  0.00000000000E+00  0.13030984057E+02  0.13030984307E+02  0.25500000000E-02 0.  1.
          1   -1    0    0  501    0  0.00000000000E+00 -0.00000000000E+00 -0.11279222509E+03  0.11279222521E+03  0.50400000000E-02 0. -1.
        -24    2    1    2    0    0 -0.35527136788E-14  0.17763568394E-14 -0.99761241036E+02  0.12582320951E+03  0.76675777394E+02 0.  0.
         66    2    3    3    0    0 -0.25363602622E+02  0.11972707715E+02 -0.70874465886E+01  0.28998102183E+02  0.19999907636E+01 0.  0.
         13    1    3    3    0    0  0.25363602622E+02 -0.11972707715E+02 -0.92673794448E+02  0.96825107329E+02  0.10566000000E+00 0. -1.
         13    1    4    4    0    0 -0.86769908628E+01  0.37778654586E+01 -0.32701392604E+01  0.10013361707E+02  0.10566000000E+00 0. -1.
        -13    1    4    4    0    0 -0.97182738457E+01  0.48317887682E+01 -0.24640677369E+01  0.11129861773E+02  0.10566000000E+00 0.  1.
         14    1    4    4    0    0 -0.69683379140E+01  0.33630534882E+01 -0.13532395913E+01  0.78548787031E+01  0.00000000000E+00 0. -1.
<mgrwt>
<rscale>  0 0.76675777E+02</rscale>
<asrwt>0</asrwt>
<pdfrwt beam="1">  1        1 0.17352649E-01 0.76675777E+02</pdfrwt>
<pdfrwt beam="2">  1       -2 0.20047669E-02 0.76675777E+02</pdfrwt>
<totfact> 0.16815119E+05</totfact>
</mgrwt>
</event>
<event>
 8    1  0.1319619E-020  0.8145905E+02  0.7818608E-02  0.1324961E+00
          1   -1    0    0  501    0  0.00000000000E+00  0.00000000000E+00  0.39828692813E+02  0.39828693132E+02  0.50400000000E-02 0. -1.
         -2   -1    0    0    0  501 -0.00000000000E+00 -0.00000000000E+00 -0.41650729516E+02  0.41650729594E+02  0.25500000000E-02 0.  1.
        -24    2    1    2    0    0  0.35527136788E-14 -0.17763568394E-14 -0.18220367032E+01  0.81479422726E+02  0.81459048055E+02 0.  0.
         66    2    3    3    0    0  0.24684932071E+02 -0.15100668918E+02 -0.29545864938E+02  0.41404519243E+02  0.20000014154E+01 0.  0.
         13    1    3    3    0    0 -0.24684932071E+02  0.15100668918E+02  0.27723828235E+02  0.40074903483E+02  0.10566000000E+00 0. -1.
         13    1    4    4    0    0  0.29878642592E+01 -0.23369309940E+01 -0.41892316483E+01  0.56523804845E+01  0.10566000000E+00 0. -1.
        -13    1    4    4    0    0  0.10529352272E+02 -0.60410384626E+01 -0.13093073864E+02  0.17855003563E+02  0.10566000000E+00 0.  1.
        -14    1    4    4    0    0  0.11167715540E+02 -0.67226994614E+01 -0.12263559426E+02  0.17897135196E+02  0.00000000000E+00 0.  1.
<mgrwt>
<rscale>  0 0.81459048E+02</rscale>
<asrwt>0</asrwt>
<pdfrwt beam="1">  1        1 0.61274912E-02 0.81459048E+02</pdfrwt>
<pdfrwt beam="2">  1       -2 0.64078046E-02 0.81459048E+02</pdfrwt>
<totfact> 0.12057458E+05</totfact>
</mgrwt>
</event>
<event>
 8    1  0.1319619E-020  0.7995310E+02  0.7818608E-02  0.1329185E+00
         -2   -1    0    0    0  501 -0.00000000000E+00  0.00000000000E+00  0.10417858668E+02  0.10417858980E+02  0.25500000000E-02 0.  1.
          1   -1    0    0  501    0  0.00000000000E+00 -0.00000000000E+00 -0.15340238102E+03  0.15340238110E+03  0.50400000000E-02 0. -1.
        -24    2    1    2    0    0  0.35527136788E-14  0.00000000000E+00 -0.14298452235E+03  0.16382024009E+03  0.79953095180E+02 0.  0.
         66    2    3    3    0    0 -0.28217488791E+02  0.21419441985E+02 -0.33694940811E+02  0.48932281768E+02  0.19999985223E+01 0.  0.
         13    1    3    3    0    0  0.28217488791E+02 -0.21419441985E+02 -0.10928958154E+03  0.11488795832E+03  0.10566000000E+00 0. -1.
         13    1    4    4    0    0 -0.47148854846E+01  0.31257181373E+01 -0.58598572488E+01  0.81455110349E+01  0.10566000000E+00 0. -1.
        -13    1    4    4    0    0 -0.16676763176E+02  0.12329103912E+02 -0.18934684576E+02  0.28082996232E+02  0.10566000000E+00 0.  1.
        -14    1    4    4    0    0 -0.68258401297E+01  0.59646199361E+01 -0.89003989867E+01  0.12703774501E+02  0.00000000000E+00 0.  1.
<mgrwt>
<rscale>  0 0.79953095E+02</rscale>
<asrwt>0</asrwt>
<pdfrwt beam="1">  1        1 0.23600365E-01 0.79953095E+02</pdfrwt>
<pdfrwt beam="2">  1       -2 0.16027476E-02 0.79953095E+02</pdfrwt>
<totfact> 0.15878920E+05</totfact>
</mgrwt>
</event>
<event>
 8    1  0.1319619E-020  0.7965244E+02  0.7818608E-02  0.1330041E+00
          1   -1    0    0  501    0  0.00000000000E+00  0.00000000000E+00  0.23638121069E+03  0.23638121074E+03  0.50400000000E-02 0. -1.
         -2   -1    0    0    0  501 -0.00000000000E+00 -0.00000000000E+00 -0.67100410927E+01  0.67100415773E+01  0.25500000000E-02 0.  1.
        -24    2    1    2    0    0  0.00000000000E+00  0.00000000000E+00  0.22967116960E+03  0.24309125232E+03  0.79652437570E+02 0.  0.
         66    2    3    3    0    0 -0.32847442871E+02  0.17090332732E+02  0.70357493292E+02  0.79531194245E+02  0.20000048855E+01 0.  0.
         13    1    3    3    0    0  0.32847442871E+02 -0.17090332732E+02  0.15931367630E+03  0.16356005808E+03  0.10566000000E+00 0. -1.
         13    1    4    4    0    0 -0.19100758773E+02  0.98679366582E+01  0.39618680502E+02  0.45076226200E+02  0.10566000000E+00 0. -1.
        -13    1    4    4    0    0 -0.13617686534E+02  0.72444820711E+01  0.30571569093E+02  0.34242603696E+02  0.10566000000E+00 0.  1.
         14    1    4    4    0    0 -0.12899756378E+00 -0.22085997338E-01  0.16724369704E+00  0.21236434950E+00  0.00000000000E+00 0. -1.
<mgrwt>
<rscale>  0 0.79652438E+02</rscale>
<asrwt>0</asrwt>
<pdfrwt beam="1">  1        1 0.36366342E-01 0.79652438E+02</pdfrwt>
<pdfrwt beam="2">  1       -2 0.10323140E-02 0.79652438E+02</pdfrwt>
<totfact> 0.17425712E+05</totfact>
</mgrwt>
</event>
<event>
 8    1  0.1319619E-020  0.8291213E+02  0.7818608E-02  0.1320985E+00
         -2   -1    0    0    0  501 -0.00000000000E+00  0.00000000000E+00  0.82154827827E+02  0.82154827867E+02  0.25500000000E-02 0.  1.
          1   -1    0    0  501    0  0.00000000000E+00 -0.00000000000E+00 -0.20919101785E+02  0.20919102392E+02  0.50400000000E-02 0. -1.
        -24    2    1    2    0    0  0.00000000000E+00  0.00000000000E+00  0.61235726043E+02  0.10307393026E+03  0.82912127912E+02 0.  0.
         66    2    3    3    0    0 -0.19742693729E+02 -0.25739437120E+02  0.62677318050E+02  0.70602682508E+02  0.20000000997E+01 0.  0.
         13    1    3    3    0    0  0.19742693729E+02  0.25739437120E+02 -0.14415920070E+01  0.32471247751E+02  0.10566000000E+00 0. -1.
         13    1    4    4    0    0 -0.52601852942E+01 -0.79137113749E+01  0.18875458458E+02  0.21132687314E+02  0.10566000000E+00 0. -1.
        -13    1    4    4    0    0 -0.13623609431E+02 -0.16371166363E+02  0.40299897692E+02  0.45581912422E+02  0.10566000000E+00 0.  1.
        -14    1    4    4    0    0 -0.85889900375E+00 -0.14545593820E+01  0.35019619002E+01  0.38880827723E+01  0.00000000000E+00 0.  1.
<mgrwt>
<rscale>  0 0.82912128E+02</rscale>
<asrwt>0</asrwt>
<pdfrwt beam="1">  1        1 0.32183234E-02 0.82912128E+02</pdfrwt>
<pdfrwt beam="2">  1       -2 0.12639204E-01 0.82912128E+02</pdfrwt>
<totfact> 0.10142830E+05</totfact>
</mgrwt>
</event>
<event>
 8    1  0.1319619E-020  0.7785325E+02  0.7818608E-02  0.1335256E+00
          1   -1    0    0  501    0  0.00000000000E+00  0.00000000000E+00  0.16828528151E+01  0.16828603623E+01  0.50400000000E-02 0. -1.
         -2   -1    0    0    0  501 -0.00000000000E+00 -0.00000000000E+00 -0.90042261516E+03  0.90042261516E+03  0.25500000000E-02 0.  1.
        -24    2    1    2    0    0  0.00000000000E+00  0.17763568394E-14 -0.89873976234E+03  0.90210547553E+03  0.77853250119E+02 0.  0.
         66    2    3    3    0    0 -0.19240313758E+02 -0.11232736424E+02 -0.81917247360E+03  0.81947782493E+03  0.20000008766E+01 0.  0.
         13    1    3    3    0    0  0.19240313758E+02  0.11232736424E+02 -0.79567288739E+02  0.82627650592E+02  0.10566000000E+00 0. -1.
         13    1    4    4    0    0 -0.40618865314E+01 -0.17597783274E+01 -0.17382074252E+03  0.17387713316E+03  0.10566000000E+00 0. -1.
        -13    1    4    4    0    0 -0.85148316776E+01 -0.57531645360E+01 -0.35546301460E+03  0.35561153970E+03  0.10566000000E+00 0.  1.
         14    1    4    4    0    0 -0.66635955490E+01 -0.37197935601E+01 -0.28988871649E+03  0.28998915207E+03  0.00000000000E+00 0. -1.
<mgrwt>
<rscale>  0 0.77853250E+02</rscale>
<asrwt>0</asrwt>
<pdfrwt beam="1">  1        1 0.25890173E-03 0.77853250E+02</pdfrwt>
<pdfrwt beam="2">  1       -2 0.13852617E+00 0.77853250E+02</pdfrwt>
<totfact> 0.31480875E+04</totfact>
</mgrwt>
</event>
<event>
 8    1  0.1319619E-020  0.7975744E+02  0.7818608E-02  0.1329741E+00
          1   -1    0    0  501    0  0.00000000000E+00  0.00000000000E+00  0.20740941716E+01  0.20741002952E+01  0.50400000000E-02 0. -1.
         -2   -1    0    0    0  501 -0.00000000000E+00 -0.00000000000E+00 -0.76674907862E+03  0.76674907862E+03  0.25500000000E-02 0.  1.
        -24    2    1    2    0    0 -0.22204460493E-15  0.35527136788E-14 -0.76467498445E+03  0.76882317892E+03  0.79757436034E+02 0.  0.
         66    2    3    3    0    0  0.10154930728E+01 -0.22287075538E+02 -0.70090939376E+03  0.70126722669E+03  0.20000003349E+01 0.  0.
         13    1    3    3    0    0 -0.10154930728E+01  0.22287075538E+02 -0.63765590684E+02  0.67555952229E+02  0.10566000000E+00 0. -1.
         13    1    4    4    0    0 -0.32609784301E+00 -0.50093380414E+01 -0.13924411565E+03  0.13933461420E+03  0.10566000000E+00 0. -1.
        -13    1    4    4    0    0  0.49919669481E+00 -0.75016946053E+01 -0.24446857849E+03  0.24458418111E+03  0.10566000000E+00 0.  1.
         14    1    4    4    0    0  0.84239422096E+00 -0.97760428908E+01 -0.31719669963E+03  0.31734843138E+03  0.00000000000E+00 0. -1.
<mgrwt>
<rscale>  0 0.79757436E+02</rscale>
<asrwt>0</asrwt>
<pdfrwt beam="1">  1        1 0.31909250E-03 0.79757436E+02</pdfrwt>
<pdfrwt beam="2">  1       -2 0.11796117E+00 0.79757436E+02</pdfrwt>
<totfact> 0.34948974E+04</totfact>
</mgrwt>
</event>
<event>
 8    1  0.1319619E-020  0.7749403E+02  0.7818608E-02  0.1336317E+00
          1   -1    0    0  501    0  0.00000000000E+00  0.00000000000E+00  0.27733473545E+01  0.27733519341E+01  0.50400000000E-02 0. -1.
         -2   -1    0    0    0  501 -0.00000000000E+00 -0.00000000000E+00 -0.54134214136E+03  0.54134214137E+03  0.25500000000E-02 0.  1.
        -24    2    1    2    0    0  0.00000000000E+00  0.00000000000E+00 -0.53856879401E+03  0.54411549330E+03  0.77494026691E+02 0.  0.
         66    2    3    3    0    0 -0.34459613906E+02  0.44298957784E+01 -0.38949347116E+03  0.39104507809E+03  0.20000136914E+01 0.  0.
         13    1    3    3    0    0  0.34459613906E+02 -0.44298957784E+01 -0.14907532284E+03  0.15307041521E+03  0.10566000000E+00 0. -1.
         13    1    4    4    0    0 -0.64320508277E+01  0.60442124501E+00 -0.70862853873E+02  0.71156811522E+02  0.10566000000E+00 0. -1.
        -13    1    4    4    0    0 -0.18537841776E+02  0.28886279717E+01 -0.20306460455E+03  0.20392949893E+03  0.10566000000E+00 0.  1.
        -14    1    4    4    0    0 -0.94897213026E+01  0.93684656171E+00 -0.11556601274E+03  0.11595876764E+03  0.00000000000E+00 0.  1.
<mgrwt>
<rscale>  0 0.77494027E+02</rscale>
<asrwt>0</asrwt>
<pdfrwt beam="1">  1        1 0.42666961E-03 0.77494027E+02</pdfrwt>
<pdfrwt beam="2">  1       -2 0.83283323E-01 0.77494027E+02</pdfrwt>
<totfact> 0.51386940E+04</totfact>
</mgrwt>
</event>
<event>
 8    1  0.1319619E-020  0.7915317E+02  0.7818608E-02  0.1331472E+00
         -2   -1    0    0    0  501 -0.00000000000E+00  0.00000000000E+00  0.30973100151E+01  0.30973110648E+01  0.25500000000E-02 0.  1.
          1   -1    0    0  501    0  0.00000000000E+00 -0.00000000000E+00 -0.50569879242E+03  0.50569879245E+03  0.50400000000E-02 0. -1.
        -24    2    1    2    0    0  0.00000000000E+00  0.17763568394E-14 -0.50260148241E+03  0.50879610351E+03  0.79153173223E+02 0.  0.
         66    2    3    3    0    0  0.37951452530E+02  0.10740690270E+02 -0.27033988233E+03  0.27320931014E+03  0.19999981801E+01 0.  0.
         13    1    3    3    0    0 -0.37951452530E+02 -0.10740690270E+02 -0.23226160008E+03  0.23558679337E+03  0.10566000000E+00 0. -1.
         13    1    4    4    0    0  0.12070661630E+02  0.25864839832E+01 -0.85767366782E+02  0.86651273160E+02  0.10566000000E+00 0. -1.
        -13    1    4    4    0    0  0.16586926091E+02  0.48514213358E+01 -0.11786825568E+03  0.11912849897E+03  0.10566000000E+00 0.  1.
         14    1    4    4    0    0  0.92938648096E+01  0.33027849513E+01 -0.66704259873E+02  0.67429538014E+02  0.00000000000E+00 0. -1.
<mgrwt>
<rscale>  0 0.79153173E+02</rscale>
<asrwt>0</asrwt>
<pdfrwt beam="1">  1        1 0.77799749E-01 0.79153173E+02</pdfrwt>
<pdfrwt beam="2">  1       -2 0.47650972E-03 0.79153173E+02</pdfrwt>
<totfact> 0.20189240E+05</totfact>
</mgrwt>
</event>
<event>
 8    1  0.1319619E-020  0.8377911E+02  0.7818608E-02  0.1318657E+00
         -2   -1    0    0    0  501 -0.00000000000E+00  0.00000000000E+00  0.59542334107E+01  0.59542339568E+01  0.25500000000E-02 0.  1.
          1   -1    0    0  501    0  0.00000000000E+00 -0.00000000000E+00 -0.29470370301E+03  0.29470370305E+03  0.50400000000E-02 0. -1.
        -24    2    1    2    0    0 -0.11102230246E-15  0.71054273576E-14 -0.28874946960E+03  0.30065793701E+03  0.83779107737E+02 0.  0.
         66    2    3    3    0    0  0.63359984295E+00  0.40588790615E+02 -0.10770487899E+03  0.11511816681E+03  0.19999998720E+01 0.  0.
         13    1    3    3    0    0 -0.63359984295E+00 -0.40588790615E+02 -0.18104459061E+03  0.18553977020E+03  0.10566000000E+00 0. -1.
         13    1    4    4    0    0  0.94569670058E+00  0.24465433860E+02 -0.62952969312E+02  0.67546571382E+02  0.10566000000E+00 0. -1.
        -13    1    4    4    0    0 -0.82472799760E-01  0.13323691175E+02 -0.36746839398E+02  0.39087963851E+02  0.10566000000E+00 0.  1.
         14    1    4    4    0    0 -0.22962405786E+00  0.27996655802E+01 -0.80050702779E+01  0.84836315763E+01  0.00000000000E+00 0. -1.
<mgrwt>
<rscale>  0 0.83779108E+02</rscale>
<asrwt>0</asrwt>
<pdfrwt beam="1">  1        1 0.45339020E-01 0.83779108E+02</pdfrwt>
<pdfrwt beam="2">  1       -2 0.91603618E-03 0.83779108E+02</pdfrwt>
<totfact> 0.15915092E+05</totfact>
</mgrwt>
</event>
<event>
 8    1  0.1319619E-020  0.8250791E+02  0.7818608E-02  0.1322081E+00
         -2   -1    0    0    0  501 -0.00000000000E+00  0.00000000000E+00  0.53130931981E+02  0.53130932042E+02  0.25500000000E-02 0.  1.
          1   -1    0    0  501    0  0.00000000000E+00 -0.00000000000E+00 -0.32031979078E+02  0.32031979475E+02  0.50400000000E-02 0. -1.
        -24    2    1    2    0    0  0.00000000000E+00  0.00000000000E+00  0.21098952902E+02  0.85162911517E+02  0.82507912859E+02 0.  0.
         66    2    3    3    0    0 -0.11292822637E+02  0.36942476113E+02  0.25427972064E+02  0.46290994206E+02  0.19999991914E+01 0.  0.
         13    1    3    3    0    0  0.11292822637E+02 -0.36942476113E+02 -0.43290191617E+01  0.38871917311E+02  0.10566000000E+00 0. -1.
         13    1    4    4    0    0 -0.70641544363E+00  0.22275563929E+01  0.16467415755E+01  0.28607607580E+01  0.10566000000E+00 0.  1.
        -13    1    4    4    0    0 -0.10265463351E+02  0.34335292602E+02  0.23546056342E+02  0.42880298380E+02  0.10566000000E+00 0.  1.
        -14    1    4    4    0    0 -0.32094384302E+00  0.37962711878E+00  0.23517414616E+00  0.54993506772E+00  0.00000000000E+00 0.  1.
<mgrwt>
<rscale>  0 0.82507913E+02</rscale>
<asrwt>0</asrwt>
<pdfrwt beam="1">  1        1 0.49279969E-02 0.82507913E+02</pdfrwt>
<pdfrwt beam="2">  1       -2 0.81739894E-02 0.82507913E+02</pdfrwt>
<totfact> 0.11197239E+05</totfact>
</mgrwt>
</event>
<event>
 8    1  0.1319619E-020  0.7967727E+02  0.7818608E-02  0.1329970E+00
         -2   -1    0    0    0  501 -0.00000000000E+00  0.00000000000E+00  0.15061413655E+02  0.15061413871E+02  0.25500000000E-02 0.  1.
          1   -1    0    0  501    0  0.00000000000E+00 -0.00000000000E+00 -0.10537636236E+03  0.10537636248E+03  0.50400000000E-02 0. -1.
        -24    2    1    2    0    0  0.00000000000E+00 -0.17763568394E-14 -0.90314948701E+02  0.12043777635E+03  0.79677274129E+02 0.  0.
         66    2    3    3    0    0 -0.37653220537E+02  0.12862506159E+02 -0.43100666648E+02  0.58693070702E+02  0.20000003525E+01 0.  0.
         13    1    3    3    0    0  0.37653220537E+02 -0.12862506159E+02 -0.47214282053E+02  0.61744705646E+02  0.10566000000E+00 0. -1.
         13    1    4    4    0    0 -0.43129390679E+01  0.16570546366E+01 -0.50386800556E+01  0.68371583432E+01  0.10566000000E+00 0.  1.
        -13    1    4    4    0    0 -0.31723322375E+02  0.11040002710E+02 -0.36448240917E+02  0.49565474600E+02  0.10566000000E+00 0.  1.
         14    1    4    4    0    0 -0.16169590942E+01  0.16544881303E+00 -0.16137456755E+01  0.22904377589E+01  0.00000000000E+00 0. -1.
<mgrwt>
<rscale>  0 0.79677274E+02</rscale>
<asrwt>0</asrwt>
<pdfrwt beam="1">  1        1 0.16211748E-01 0.79677274E+02</pdfrwt>
<pdfrwt beam="2">  1       -2 0.23171406E-02 0.79677274E+02</pdfrwt>
<totfact> 0.14992496E+05</totfact>
</mgrwt>
</event>
<event>
 8    1  0.1319619E-020  0.7836098E+02  0.7818608E-02  0.1333768E+00
         -2   -1    0    0    0  501 -0.00000000000E+00  0.00000000000E+00  0.12811070958E+02  0.12811071212E+02  0.25500000000E-02 0.  1.
          1   -1    0    0  501    0  0.00000000000E+00 -0.00000000000E+00 -0.11982689486E+03  0.11982689497E+03  0.50400000000E-02 0. -1.
        -24    2    1    2    0    0  0.00000000000E+00  0.00000000000E+00 -0.10701582390E+03  0.13263796618E+03  0.78360982042E+02 0.  0.
         66    2    3    3    0    0 -0.85317692041E+01 -0.28542252234E+02 -0.10532799605E+02  0.31660560835E+02  0.19999991400E+01 0.  0.
         13    1    3    3    0    0  0.85317692041E+01  0.28542252234E+02 -0.96483024299E+02  0.10097740535E+03  0.10566000000E+00 0. -1.
         13    1    4    4    0    0 -0.49471427785E+01 -0.14013485952E+02 -0.55737411948E+01  0.15872295522E+02  0.10566000000E+00 0. -1.
        -13    1    4    4    0    0 -0.26387411976E+01 -0.91510582748E+01 -0.29659338878E+01  0.99756077769E+01  0.10566000000E+00 0.  1.
         14    1    4    4    0    0 -0.94588522806E+00 -0.53777080072E+01 -0.19931245224E+01  0.58126575365E+01  0.00000000000E+00 0. -1.
<mgrwt>
<rscale>  0 0.78360982E+02</rscale>
<asrwt>0</asrwt>
<pdfrwt beam="1">  1        1 0.18434906E-01 0.78360982E+02</pdfrwt>
<pdfrwt beam="2">  1       -2 0.19709341E-02 0.78360982E+02</pdfrwt>
<totfact> 0.16028980E+05</totfact>
</mgrwt>
</event>
<event>
 8    1  0.1319619E-020  0.7923407E+02  0.7818608E-02  0.1331239E+00
          1   -1    0    0  501    0  0.00000000000E+00  0.00000000000E+00  0.17714457306E+02  0.17714458023E+02  0.50400000000E-02 0. -1.
         -2   -1    0    0    0  501 -0.00000000000E+00 -0.00000000000E+00 -0.88600475389E+02  0.88600475426E+02  0.25500000000E-02 0.  1.
        -24    2    1    2    0    0  0.17763568394E-14  0.00000000000E+00 -0.70886018083E+02  0.10631493345E+03  0.79234067892E+02 0.  0.
         66    2    3    3    0    0 -0.15037383911E+02 -0.90866004672E+01 -0.83071705413E+02  0.84932899807E+02  0.20000015807E+01 0.  0.
         13    1    3    3    0    0  0.15037383911E+02  0.90866004672E+01  0.12185687331E+02  0.21382033643E+02  0.10566000000E+00 0. -1.
         13    1    4    4    0    0 -0.11849261831E+01 -0.30712982523E+00 -0.45549621968E+01  0.47177561869E+01  0.10566000000E+00 0. -1.
        -13    1    4    4    0    0 -0.60593035907E+01 -0.35868618465E+01 -0.35253268994E+02  0.35949754891E+02  0.10566000000E+00 0.  1.
         14    1    4    4    0    0 -0.77931541373E+01 -0.51926087955E+01 -0.43263474222E+02  0.44265388728E+02  0.00000000000E+00 0. -1.
<mgrwt>
<rscale>  0 0.79234068E+02</rscale>
<asrwt>0</asrwt>
<pdfrwt beam="1">  1        1 0.27253012E-02 0.79234068E+02</pdfrwt>
<pdfrwt beam="2">  1       -2 0.13630842E-01 0.79234068E+02</pdfrwt>
<totfact> 0.11196041E+05</totfact>
</mgrwt>
</event>
<event>
 8    1  0.1319619E-020  0.7877334E+02  0.7818608E-02  0.1332569E+00
          1   -1    0    0  501    0  0.00000000000E+00  0.00000000000E+00  0.18208416273E+02  0.18208416970E+02  0.50400000000E-02 0. -1.
         -2   -1    0    0    0  501 -0.00000000000E+00 -0.00000000000E+00 -0.85197410956E+02  0.85197410995E+02  0.25500000000E-02 0.  1.
        -24    2    1    2    0    0 -0.35527136788E-14 -0.44408920985E-15 -0.66988994684E+02  0.10340582796E+03  0.78773344783E+02 0.  0.
         66    2    3    3    0    0 -0.27348386334E+02 -0.22251277402E+01 -0.70561633643E+02  0.75735259816E+02  0.20000021055E+01 0.  0.
         13    1    3    3    0    0  0.27348386334E+02  0.22251277402E+01  0.35726389592E+01  0.27670568149E+02  0.10566000000E+00 0. -1.
         13    1    4    4    0    0 -0.12334360029E+02 -0.45364801660E+00 -0.29999120338E+02  0.32439183389E+02  0.10566000000E+00 0. -1.
        -13    1    4    4    0    0 -0.12144567840E+02 -0.17278688535E+01 -0.33222376718E+02  0.35414877348E+02  0.10566000000E+00 0.  1.
        -14    1    4    4    0    0 -0.28694584658E+01 -0.43610870066E-01 -0.73401365868E+01  0.78811990781E+01  0.00000000000E+00 0.  1.
<mgrwt>
<rscale>  0 0.78773345E+02</rscale>
<asrwt>0</asrwt>
<pdfrwt beam="1">  1        1 0.28012949E-02 0.78773345E+02</pdfrwt>
<pdfrwt beam="2">  1       -2 0.13107294E-01 0.78773345E+02</pdfrwt>
<totfact> 0.11465322E+05</totfact>
</mgrwt>
</event>
<event>
 8    1  0.1494699E-020  0.7898525E+02  0.7818608E-02  0.1331956E+00
         -2   -1    0    0    0  501 -0.00000000000E+00  0.00000000000E+00  0.13685626759E+02  0.13685626997E+02  0.25500000000E-02 0.  1.
          1   -1    0    0  501    0  0.00000000000E+00 -0.00000000000E+00 -0.11396391486E+03  0.11396391497E+03  0.50400000000E-02 0. -1.
        -24    2    1    2    0    0 -0.35527136788E-14  0.00000000000E+00 -0.10027828810E+03  0.12764954197E+03  0.78985254955E+02 0.  0.
         66    2    3    3    0    0 -0.22912215271E+02  0.23325254337E+02 -0.14447098482E+02  0.35801616712E+02  0.20000015362E+01 0.  0.
         13    1    3    3    0    0  0.22912215271E+02 -0.23325254337E+02 -0.85831189619E+02  0.91847925257E+02  0.10566000000E+00 0. -1.
         13    1    4    4    0    0 -0.71027966570E+00  0.10339957451E+01 -0.43359889879E+00  0.13314715337E+01  0.10566000000E+00 0.  1.
        -13    1    4    4    0    0 -0.22524349380E+01  0.17525415514E+01 -0.14429583618E+01  0.31997121603E+01  0.10566000000E+00 0.  1.
        -14    1    4    4    0    0 -0.19949500667E+02  0.20538717040E+02 -0.12570541222E+02  0.31270433018E+02  0.00000000000E+00 0.  1.
<mgrwt>
<rscale>  0 0.78985255E+02</rscale>
<asrwt>0</asrwt>
<pdfrwt beam="1">  1        1 0.17532909E-01 0.78985255E+02</pdfrwt>
<pdfrwt beam="2">  1       -2 0.21054811E-02 0.78985255E+02</pdfrwt>
<totfact> 0.15555713E+05</totfact>
</mgrwt>
</event>
<event>
 8    1  0.1319619E-020  0.8006201E+02  0.7818608E-02  0.1328876E+00
         -2   -1    0    0    0  501 -0.00000000000E+00  0.00000000000E+00  0.88965507019E+01  0.88965510673E+01  0.25500000000E-02 0.  1.
          1   -1    0    0  501    0  0.00000000000E+00 -0.00000000000E+00 -0.18012391150E+03  0.18012391157E+03  0.50400000000E-02 0. -1.
        -24    2    1    2    0    0  0.00000000000E+00  0.35527136788E-14 -0.17122736080E+03  0.18902046264E+03  0.80062014775E+02 0.  0.
         66    2    3    3    0    0  0.28088907113E+02 -0.22615100121E+02 -0.44771313201E+02  0.57523038350E+02  0.19999997523E+01 0.  0.
         13    1    3    3    0    0 -0.28088907113E+02  0.22615100121E+02 -0.12645604760E+03  0.13149742429E+03  0.10566000000E+00 0. -1.
         13    1    4    4    0    0  0.50824316788E+01 -0.36242070933E+01 -0.75379761527E+01  0.97876573979E+01  0.10566000000E+00 0. -1.
        -13    1    4    4    0    0  0.12548567241E+02 -0.93936987335E+01 -0.19851764422E+02  0.25294501980E+02  0.10566000000E+00 0.  1.
         14    1    4    4    0    0  0.10457908193E+02 -0.95971942945E+01 -0.17381572626E+02  0.22440878972E+02  0.00000000000E+00 0. -1.
<mgrwt>
<rscale>  0 0.80062015E+02</rscale>
<asrwt>0</asrwt>
<pdfrwt beam="1">  1        1 0.27711368E-01 0.80062015E+02</pdfrwt>
<pdfrwt beam="2">  1       -2 0.13687003E-02 0.80062015E+02</pdfrwt>
<totfact> 0.16306899E+05</totfact>
</mgrwt>
</event>
<event>
 8    1  0.1319619E-020  0.7329955E+02  0.7818608E-02  0.1349219E+00
         -2   -1    0    0    0  501 -0.00000000000E+00  0.00000000000E+00  0.23720248571E+02  0.23720248708E+02  0.25500000000E-02 0.  1.
          1   -1    0    0  501    0  0.00000000000E+00 -0.00000000000E+00 -0.56626979183E+02  0.56626979407E+02  0.50400000000E-02 0. -1.
        -24    2    1    2    0    0 -0.55511151231E-16  0.00000000000E+00 -0.32906730611E+02  0.80347228115E+02  0.73299550792E+02 0.  0.
         66    2    3    3    0    0 -0.41365567892E+00  0.16903266746E+02  0.19143400247E+02  0.25619549340E+02  0.19999994109E+01 0.  0.
         13    1    3    3    0    0  0.41365567892E+00 -0.16903266746E+02 -0.52050130859E+02  0.54727678775E+02  0.10566000000E+00 0. -1.
         13    1    4    4    0    0  0.20234501636E+00  0.11514235868E+02  0.12659077680E+02  0.17113795105E+02  0.10566000000E+00 0. -1.
        -13    1    4    4    0    0 -0.78120584821E+00  0.34559430297E+01  0.45287853674E+01  0.57510769202E+01  0.10566000000E+00 0.  1.
        -14    1    4    4    0    0  0.16520515293E+00  0.19330878479E+01  0.19555371996E+01  0.27546773149E+01  0.00000000000E+00 0.  1.
<mgrwt>
<rscale>  0 0.73299551E+02</rscale>
<asrwt>0</asrwt>
<pdfrwt beam="1">  1        1 0.87118430E-02 0.73299551E+02</pdfrwt>
<pdfrwt beam="2">  1       -2 0.36492690E-02 0.73299551E+02</pdfrwt>
<totfact> 0.17054049E+05</totfact>
</mgrwt>
</event>
<event>
 8    1  0.1319619E-020  0.8207355E+02  0.7818608E-02  0.1323268E+00
         -2   -1    0    0    0  501 -0.00000000000E+00  0.00000000000E+00  0.22601246928E+03  0.22601246929E+03  0.25500000000E-02 0.  1.
          1   -1    0    0  501    0  0.00000000000E+00 -0.00000000000E+00 -0.74509900914E+01  0.74509917959E+01  0.50400000000E-02 0. -1.
        -24    2    1    2    0    0  0.00000000000E+00  0.00000000000E+00  0.21856147919E+03  0.23346346109E+03  0.82073549205E+02 0.  0.
         66    2    3    3    0    0 -0.22620954291E+02  0.20343624034E+01  0.20648494439E+03  0.20773992983E+03  0.19999962573E+01 0.  0.
         13    1    3    3    0    0  0.22620954291E+02 -0.20343624034E+01  0.12076534799E+02  0.25723531255E+02  0.10566000000E+00 0. -1.
         13    1    4    4    0    0 -0.11375422279E+02  0.15307761491E+01  0.10131323561E+03  0.10196139653E+03  0.10566000000E+00 0. -1.
        -13    1    4    4    0    0 -0.46447588843E+00 -0.18441904577E+00  0.49261505271E+01  0.49525620932E+01  0.10566000000E+00 0.  1.
        -14    1    4    4    0    0 -0.10781056123E+02  0.68800530006E+00  0.10024555825E+03  0.10082597121E+03  0.00000000000E+00 0.  1.
<mgrwt>
<rscale>  0 0.82073549E+02</rscale>
<asrwt>0</asrwt>
<pdfrwt beam="1">  1        1 0.11463065E-02 0.82073549E+02</pdfrwt>
<pdfrwt beam="2">  1       -2 0.34771143E-01 0.82073549E+02</pdfrwt>
<totfact> 0.75608763E+04</totfact>
</mgrwt>
</event>
<event>
 8    1  0.1319619E-020  0.8255190E+02  0.7818608E-02  0.1321962E+00
          1   -1    0    0  501    0  0.00000000000E+00  0.00000000000E+00  0.11886520312E+03  0.11886520323E+03  0.50400000000E-02 0. -1.
         -2   -1    0    0    0  501 -0.00000000000E+00 -0.00000000000E+00 -0.14333074821E+02  0.14333075048E+02  0.25500000000E-02 0.  1.
        -24    2    1    2    0    0  0.71054273576E-14  0.00000000000E+00  0.10453212830E+03  0.13319827828E+03  0.82551895731E+02 0.  0.
         66    2    3    3    0    0 -0.35718849525E+02 -0.20589336981E+02  0.50048215668E+02  0.64873576239E+02  0.19999984420E+01 0.  0.
         13    1    3    3    0    0  0.35718849525E+02  0.20589336981E+02  0.54483912632E+02  0.68324702037E+02  0.10566000000E+00 0. -1.
         13    1    4    4    0    0 -0.23110430406E+02 -0.14178538342E+02  0.31986521838E+02  0.41931750338E+02  0.10566000000E+00 0. -1.
        -13    1    4    4    0    0 -0.75188147140E+01 -0.38841145280E+01  0.10831527975E+02  0.13745984238E+02  0.10566000000E+00 0.  1.
         14    1    4    4    0    0 -0.50896044053E+01 -0.25266841110E+01  0.72301658550E+01  0.91958416629E+01  0.00000000000E+00 0. -1.
<mgrwt>
<rscale>  0 0.82551896E+02</rscale>
<asrwt>0</asrwt>
<pdfrwt beam="1">  1        1 0.18286954E-01 0.82551896E+02</pdfrwt>
<pdfrwt beam="2">  1       -2 0.22050885E-02 0.82551896E+02</pdfrwt>
<totfact> 0.13913041E+05</totfact>
</mgrwt>
</event>
<event>
 8    1  0.1319619E-020  0.8020312E+02  0.7818608E-02  0.1328476E+00
         -2   -1    0    0    0  501 -0.00000000000E+00  0.00000000000E+00  0.19878398431E+03  0.19878398433E+03  0.25500000000E-02 0.  1.
          1   -1    0    0  501    0  0.00000000000E+00 -0.00000000000E+00 -0.80898625588E+01  0.80898641288E+01  0.50400000000E-02 0. -1.
        -24    2    1    2    0    0  0.00000000000E+00  0.17763568394E-14  0.19069412175E+03  0.20687384846E+03  0.80203124030E+02 0.  0.
         66    2    3    3    0    0 -0.30130227645E+02  0.14918401333E+02  0.15166616887E+03  0.15536092205E+03  0.20000013540E+01 0.  0.
         13    1    3    3    0    0  0.30130227645E+02 -0.14918401333E+02  0.39027952880E+02  0.51512926401E+02  0.10566000000E+00 0. -1.
         13    1    4    4    0    0 -0.37952152881E+00  0.12607145308E+00  0.16708303202E+01  0.17212694724E+01  0.10566000000E+00 0.  1.
        -13    1    4    4    0    0 -0.26234558886E+02  0.13064794034E+02  0.13458371569E+03  0.13773789825E+03  0.10566000000E+00 0.  1.
        -14    1    4    4    0    0 -0.35161472302E+01  0.17275358466E+01  0.15411622865E+02  0.15901754330E+02  0.00000000000E+00 0.  1.
<mgrwt>
<rscale>  0 0.80203124E+02</rscale>
<asrwt>0</asrwt>
<pdfrwt beam="1">  1        1 0.12445945E-02 0.80203124E+02</pdfrwt>
<pdfrwt beam="2">  1       -2 0.30582149E-01 0.80203124E+02</pdfrwt>
<totfact> 0.84730303E+04</totfact>
</mgrwt>
</event>
<event>
 8    1  0.1319619E-020  0.8357575E+02  0.7818608E-02  0.1319200E+00
         -2   -1    0    0    0  501 -0.00000000000E+00  0.00000000000E+00  0.14807107001E+03  0.14807107004E+03  0.25500000000E-02 0.  1.
          1   -1    0    0  501    0  0.00000000000E+00 -0.00000000000E+00 -0.11793163785E+02  0.11793164862E+02  0.50400000000E-02 0. -1.
        -24    2    1    2    0    0  0.35527136788E-14  0.00000000000E+00  0.13627790623E+03  0.15986423490E+03  0.83575749313E+02 0.  0.
         66    2    3    3    0    0 -0.28096502210E+02 -0.11989888007E+02  0.12265258533E+03  0.12641529793E+03  0.20000025724E+01 0.  0.
         13    1    3    3    0    0  0.28096502210E+02  0.11989888007E+02  0.13625320894E+02  0.33448936969E+02  0.10566000000E+00 0. -1.
         13    1    4    4    0    0 -0.13664695968E+02 -0.48531400081E+01  0.59442731803E+02  0.61185998497E+02  0.10566000000E+00 0. -1.
        -13    1    4    4    0    0 -0.13326834530E+02 -0.64744757673E+01  0.58243947768E+02  0.60099018050E+02  0.10566000000E+00 0.  1.
         14    1    4    4    0    0 -0.11049717120E+01 -0.66227223123E+00  0.49659057639E+01  0.51302813810E+01  0.00000000000E+00 0. -1.
<mgrwt>
<rscale>  0 0.83575749E+02</rscale>
<asrwt>0</asrwt>
<pdfrwt beam="1">  1        1 0.18143329E-02 0.83575749E+02</pdfrwt>
<pdfrwt beam="2">  1       -2 0.22780166E-01 0.83575749E+02</pdfrwt>
<totfact> 0.84799897E+04</totfact>
</mgrwt>
</event>
<event>
 8    1  0.1319619E-020  0.7718569E+02  0.7818608E-02  0.1337233E+00
         -2   -1    0    0    0  501 -0.00000000000E+00  0.00000000000E+00  0.13898193825E+02  0.13898194059E+02  0.25500000000E-02 0.  1.
          1   -1    0    0  501    0  0.00000000000E+00 -0.00000000000E+00 -0.10716556655E+03  0.10716556667E+03  0.50400000000E-02 0. -1.
        -24    2    1    2    0    0 -0.44408920985E-15  0.00000000000E+00 -0.93267372729E+02  0.12106376073E+03  0.77185693926E+02 0.  0.
         66    2    3    3    0    0 -0.36348538123E+01 -0.36864843832E+02 -0.63497643391E+02  0.73540326282E+02  0.20000001155E+01 0.  0.
         13    1    3    3    0    0  0.36348538123E+01  0.36864843832E+02 -0.29769729338E+02  0.47523434450E+02  0.10566000000E+00 0. -1.
         13    1    4    4    0    0 -0.23721681852E+01 -0.27152725778E+02 -0.47764694254E+02  0.54994316800E+02  0.10566000000E+00 0.  1.
        -13    1    4    4    0    0 -0.97417743483E-01 -0.28203914767E+00 -0.56616450395E+00  0.64864672874E+00  0.10566000000E+00 0. -1.
        -14    1    4    4    0    0 -0.11652678836E+01 -0.94300789071E+01 -0.15166784633E+02  0.17897362754E+02  0.00000000000E+00 0.  1.
<mgrwt>
<rscale>  0 0.77185694E+02</rscale>
<asrwt>0</asrwt>
<pdfrwt beam="1">  1        1 0.16487010E-01 0.77185694E+02</pdfrwt>
<pdfrwt beam="2">  1       -2 0.21381837E-02 0.77185694E+02</pdfrwt>
<totfact> 0.16376928E+05</totfact>
</mgrwt>
</event>
<event>
 8    1  0.1319619E-020  0.7830302E+02  0.7818608E-02  0.1333937E+00
         -2   -1    0    0    0  501 -0.00000000000E+00  0.00000000000E+00  0.11607412028E+03  0.11607412031E+03  0.25500000000E-02 0.  1.
          1   -1    0    0  501    0  0.00000000000E+00 -0.00000000000E+00 -0.13205704748E+02  0.13205705709E+02  0.50400000000E-02 0. -1.
        -24    2    1    2    0    0  0.00000000000E+00 -0.35527136788E-14  0.10286841554E+03  0.12927982602E+03  0.78303017191E+02 0.  0.
         66    2    3    3    0    0 -0.12953100778E+02  0.25321028359E+02  0.95827542600E+02  0.99979273933E+02  0.19999996269E+01 0.  0.
         13    1    3    3    0    0  0.12953100778E+02 -0.25321028359E+02  0.70408729363E+01  0.29300552088E+02  0.10566000000E+00 0. -1.
         13    1    4    4    0    0 -0.44605959143E+01  0.10009218819E+02  0.39585368441E+02  0.41074249061E+02  0.10566000000E+00 0. -1.
        -13    1    4    4    0    0 -0.26545367478E+01  0.48172186394E+01  0.17818494107E+02  0.18648379475E+02  0.10566000000E+00 0.  1.
         14    1    4    4    0    0 -0.58379681155E+01  0.10494590901E+02  0.38423680052E+02  0.40256645397E+02  0.00000000000E+00 0. -1.
<mgrwt>
<rscale>  0 0.78303017E+02</rscale>
<asrwt>0</asrwt>
<pdfrwt beam="1">  1        1 0.20316469E-02 0.78303017E+02</pdfrwt>
<pdfrwt beam="2">  1       -2 0.17857557E-01 0.78303017E+02</pdfrwt>
<totfact> 0.10785148E+05</totfact>
</mgrwt>
</event>
<event>
 8    1  0.1319619E-020  0.8017119E+02  0.7818608E-02  0.1328566E+00
          1   -1    0    0  501    0  0.00000000000E+00  0.00000000000E+00  0.20105587097E+02  0.20105587729E+02  0.50400000000E-02 0. -1.
         -2   -1    0    0    0  501 -0.00000000000E+00 -0.00000000000E+00 -0.79920817218E+02  0.79920817259E+02  0.25500000000E-02 0.  1.
        -24    2    1    2    0    0  0.88817841970E-15 -0.71054273576E-14 -0.59815230121E+02  0.10002640499E+03  0.80171191461E+02 0.  0.
         66    2    3    3    0    0 -0.72577250332E+01  0.39211192960E+02 -0.25149446391E+02  0.47187783207E+02  0.20000010675E+01 0.  0.
         13    1    3    3    0    0  0.72577250332E+01 -0.39211192960E+02 -0.34665783730E+02  0.52838621780E+02  0.10566000000E+00 0. -1.
         13    1    4    4    0    0 -0.10493098054E+01  0.67207633025E+01 -0.47741647800E+01  0.83110482984E+01  0.10566000000E+00 0. -1.
        -13    1    4    4    0    0 -0.39429415648E+01  0.19649699655E+02 -0.13134373162E+02  0.23962061829E+02  0.10566000000E+00 0.  1.
         14    1    4    4    0    0 -0.22654736630E+01  0.12840730002E+02 -0.72409084487E+01  0.14914673080E+02  0.00000000000E+00 0. -1.
<mgrwt>
<rscale>  0 0.80171191E+02</rscale>
<asrwt>0</asrwt>
<pdfrwt beam="1">  1        1 0.30931674E-02 0.80171191E+02</pdfrwt>
<pdfrwt beam="2">  1       -2 0.12295510E-01 0.80171191E+02</pdfrwt>
<totfact> 0.11117676E+05</totfact>
</mgrwt>
</event>
<event>
 8    1  0.1319619E-020  0.8258213E+02  0.7818608E-02  0.1321879E+00
         -2   -1    0    0    0  501 -0.00000000000E+00  0.00000000000E+00  0.23449759762E+02  0.23449759900E+02  0.25500000000E-02 0.  1.
          1   -1    0    0  501    0  0.00000000000E+00 -0.00000000000E+00 -0.72706588259E+02  0.72706588433E+02  0.50400000000E-02 0. -1.
        -24    2    1    2    0    0 -0.35527136788E-14  0.71054273576E-14 -0.49256828497E+02  0.96156348334E+02  0.82582129854E+02 0.  0.
         66    2    3    3    0    0  0.31441007228E+02  0.18425452279E+02 -0.20974660265E+01  0.36557263946E+02  0.19999890659E+01 0.  0.
         13    1    3    3    0    0 -0.31441007228E+02 -0.18425452279E+02 -0.47159362471E+02  0.59599084388E+02  0.10566000000E+00 0. -1.
         13    1    4    4    0    0  0.15998865186E+01  0.84597705422E+00 -0.36333413302E+00  0.18489158382E+01  0.10566000000E+00 0. -1.
        -13    1    4    4    0    0  0.21384180022E+02  0.11910587228E+02 -0.15226862555E+01  0.24524986866E+02  0.10566000000E+00 0.  1.
         14    1    4    4    0    0  0.84569406878E+01  0.56688879965E+01 -0.21144563802E+00  0.10183361241E+02  0.00000000000E+00 0. -1.
<mgrwt>
<rscale>  0 0.82582130E+02</rscale>
<asrwt>0</asrwt>
<pdfrwt beam="1">  1        1 0.11185629E-01 0.82582130E+02</pdfrwt>
<pdfrwt beam="2">  1       -2 0.36076554E-02 0.82582130E+02</pdfrwt>
<totfact> 0.12790964E+05</totfact>
</mgrwt>
</event>
<event>
 8    1  0.1319619E-020  0.7972155E+02  0.7818608E-02  0.1329844E+00
         -2   -1    0    0    0  501 -0.00000000000E+00  0.00000000000E+00  0.63796738697E+01  0.63796743793E+01  0.25500000000E-02 0.  1.
          1   -1    0    0  501    0  0.00000000000E+00 -0.00000000000E+00 -0.24905367113E+03  0.24905367118E+03  0.50400000000E-02 0. -1.
        -24    2    1    2    0    0  0.00000000000E+00  0.00000000000E+00 -0.24267399726E+03  0.25543334556E+03  0.79721547137E+02 0.  0.
         66    2    3    3    0    0 -0.38807502684E+02  0.87427974363E+01 -0.12814741186E+03  0.13419470198E+03  0.20000248716E+01 0.  0.
         13    1    3    3    0    0  0.38807502684E+02 -0.87427974363E+01 -0.11452658540E+03  0.12123864359E+03  0.10566000000E+00 0. -1.
         13    1    4    4    0    0 -0.77695287830E+01  0.20493565740E+01 -0.23637085160E+02  0.24965744506E+02  0.10566000000E+00 0. -1.
        -13    1    4    4    0    0 -0.12223046421E+02  0.25995271030E+01 -0.40121530125E+02  0.42022717054E+02  0.10566000000E+00 0.  1.
        -14    1    4    4    0    0 -0.18814927480E+02  0.40939137592E+01 -0.64388796579E+02  0.67206240415E+02  0.00000000000E+00 0.  1.
<mgrwt>
<rscale>  0 0.79721547E+02</rscale>
<asrwt>0</asrwt>
<pdfrwt beam="1">  1        1 0.38315942E-01 0.79721547E+02</pdfrwt>
<pdfrwt beam="2">  1       -2 0.98148852E-03 0.79721547E+02</pdfrwt>
<totfact> 0.17563583E+05</totfact>
</mgrwt>
</event>
<event>
 8    1  0.1319619E-020  0.7798398E+02  0.7818608E-02  0.1334872E+00
         -2   -1    0    0    0  501 -0.00000000000E+00  0.00000000000E+00  0.24216561776E+02  0.24216561911E+02  0.25500000000E-02 0.  1.
          1   -1    0    0  501    0  0.00000000000E+00 -0.00000000000E+00 -0.62782453612E+02  0.62782453814E+02  0.50400000000E-02 0. -1.
        -24    2    1    2    0    0 -0.71054273576E-14  0.00000000000E+00 -0.38565891835E+02  0.86999015725E+02  0.77983977354E+02 0.  0.
         66    2    3    3    0    0  0.33431779236E+02  0.12833211621E+02 -0.21575823653E+01  0.35930910748E+02  0.20000005252E+01 0.  0.
         13    1    3    3    0    0 -0.33431779236E+02 -0.12833211621E+02 -0.36408309470E+02  0.51068104977E+02  0.10566000000E+00 0. -1.
         13    1    4    4    0    0  0.14654200816E+02  0.46391433567E+01 -0.76252723501E+00  0.15390252255E+02  0.10566000000E+00 0. -1.
        -13    1    4    4    0    0  0.12782336788E+01  0.62083677087E+00 -0.61195902912E-01  0.14262638633E+01  0.10566000000E+00 0.  1.
         14    1    4    4    0    0  0.17499344741E+02  0.75732314934E+01 -0.13338592273E+01  0.19114394630E+02  0.00000000000E+00 0. -1.
<mgrwt>
<rscale>  0 0.77983977E+02</rscale>
<asrwt>0</asrwt>
<pdfrwt beam="1">  1        1 0.96588390E-02 0.77983977E+02</pdfrwt>
<pdfrwt beam="2">  1       -2 0.37256249E-02 0.77983977E+02</pdfrwt>
<totfact> 0.14624627E+05</totfact>
</mgrwt>
</event>
<event>
 8    1  0.1319619E-020  0.8068025E+02  0.7818608E-02  0.1327132E+00
          1   -1    0    0  501    0  0.00000000000E+00  0.00000000000E+00  0.20129773934E+02  0.20129774565E+02  0.50400000000E-02 0. -1.
         -2   -1    0    0    0  501 -0.00000000000E+00 -0.00000000000E+00 -0.80841725920E+02  0.80841725960E+02  0.25500000000E-02 0.  1.
        -24    2    1    2    0    0  0.00000000000E+00  0.00000000000E+00 -0.60711951986E+02  0.10097150053E+03  0.80680250399E+02 0.  0.
         66    2    3    3    0    0 -0.68808072571E+01 -0.28872448634E+02 -0.64519190576E+02  0.71047095296E+02  0.19999997143E+01 0.  0.
         13    1    3    3    0    0  0.68808072571E+01  0.28872448634E+02  0.38072385896E+01  0.29924405229E+02  0.10566000000E+00 0. -1.
         13    1    4    4    0    0 -0.35338270893E+01 -0.11729382969E+02 -0.27413561532E+02  0.30026336417E+02  0.10566000000E+00 0. -1.
        -13    1    4    4    0    0 -0.12938853702E+01 -0.88942983857E+01 -0.18948843180E+02  0.20972660895E+02  0.10566000000E+00 0.  1.
         14    1    4    4    0    0 -0.20530947976E+01 -0.82487672791E+01 -0.18156785864E+02  0.20048097984E+02  0.00000000000E+00 0. -1.
<mgrwt>
<rscale>  0 0.80680250E+02</rscale>
<asrwt>0</asrwt>
<pdfrwt beam="1">  1        1 0.30968884E-02 0.80680250E+02</pdfrwt>
<pdfrwt beam="2">  1       -2 0.12437188E-01 0.80680250E+02</pdfrwt>
<totfact> 0.10912587E+05</totfact>
</mgrwt>
</event>
<event>
 8    1  0.1319619E-020  0.7879805E+02  0.7818608E-02  0.1332497E+00
         -2   -1    0    0    0  501 -0.00000000000E+00  0.00000000000E+00  0.82354777327E+01  0.82354781275E+01  0.25500000000E-02 0.  1.
          1   -1    0    0  501    0  0.00000000000E+00 -0.00000000000E+00 -0.18848729839E+03  0.18848729846E+03  0.50400000000E-02 0. -1.
        -24    2    1    2    0    0  0.00000000000E+00  0.00000000000E+00 -0.18025182066E+03  0.19672277659E+03  0.78798045515E+02 0.  0.
         66    2    3    3    0    0  0.38114178628E+02  0.93360640493E+01 -0.82122887436E+02  0.91038570557E+02  0.19999959669E+01 0.  0.
         13    1    3    3    0    0 -0.38114178628E+02 -0.93360640493E+01 -0.98128933222E+02  0.10568420603E+03  0.10566000000E+00 0. -1.
         13    1    4    4    0    0  0.47270340038E+01  0.80114893912E+00 -0.11040057019E+02  0.12036640441E+02  0.10566000000E+00 0. -1.
        -13    1    4    4    0    0  0.23431988990E+02  0.59456087034E+01 -0.50883830537E+02  0.56334569715E+02  0.10566000000E+00 0.  1.
        -14    1    4    4    0    0  0.99551556350E+01  0.25893064067E+01 -0.20198999881E+02  0.22667360401E+02  0.00000000000E+00 0.  1.
<mgrwt>
<rscale>  0 0.78798046E+02</rscale>
<asrwt>0</asrwt>
<pdfrwt beam="1">  1        1 0.28998043E-01 0.78798046E+02</pdfrwt>
<pdfrwt beam="2">  1       -2 0.12669967E-02 0.78798046E+02</pdfrwt>
<totfact> 0.17160013E+05</totfact>
</mgrwt>
</event>
<event>
 8    1  0.1319619E-020  0.8271751E+02  0.7818608E-02  0.1321512E+00
          1   -1    0    0  501    0  0.00000000000E+00  0.00000000000E+00  0.44236887789E+01  0.44236916500E+01  0.50400000000E-02 0. -1.
         -2   -1    0    0    0  501 -0.00000000000E+00 -0.00000000000E+00 -0.38667863367E+03  0.38667863368E+03  0.25500000000E-02 0.  1.
        -24    2    1    2    0    0  0.35527136788E-14  0.88817841970E-15 -0.38225494489E+03  0.39110232533E+03  0.82717507117E+02 0.  0.
         66    2    3    3    0    0  0.26699986050E+02  0.76803181777E+01 -0.33594441444E+03  0.33709720578E+03  0.20000027936E+01 0.  0.
         13    1    3    3    0    0 -0.26699986050E+02 -0.76803181777E+01 -0.46310530453E+02  0.54005119546E+02  0.10566000000E+00 0. -1.
         13    1    4    4    0    0  0.17922275983E+01  0.66482572897E+00 -0.19813397174E+02  0.19905676191E+02  0.10566000000E+00 0. -1.
        -13    1    4    4    0    0  0.13178413043E+02  0.36598910137E+01 -0.17570855281E+03  0.17624009779E+03  0.10566000000E+00 0.  1.
        -14    1    4    4    0    0  0.11729345408E+02  0.33556014351E+01 -0.14042246445E+03  0.14095143180E+03  0.00000000000E+00 0.  1.
<mgrwt>
<rscale>  0 0.82717507E+02</rscale>
<asrwt>0</asrwt>
<pdfrwt beam="1">  1        1 0.68056803E-03 0.82717507E+02</pdfrwt>
<pdfrwt beam="2">  1       -2 0.59488994E-01 0.82717507E+02</pdfrwt>
<totfact> 0.55416773E+04</totfact>
</mgrwt>
</event>
<event>
 8    1  0.1658338E-020  0.8088042E+02  0.7818608E-02  0.1326571E+00
          1   -1    0    0  501    0  0.00000000000E+00  0.00000000000E+00  0.13238417281E+03  0.13238417290E+03  0.50400000000E-02 0. -1.
         -2   -1    0    0    0  501 -0.00000000000E+00 -0.00000000000E+00 -0.12353520655E+02  0.12353520918E+02  0.25500000000E-02 0.  1.
        -24    2    1    2    0    0  0.44408920985E-15  0.35527136788E-14  0.12003065215E+03  0.14473769382E+03  0.80880421342E+02 0.  0.
         66    2    3    3    0    0 -0.23629300931E+01  0.22428568539E+02  0.35190527593E-01  0.22641231546E+02  0.20000005617E+01 0.  0.
         13    1    3    3    0    0  0.23629300931E+01 -0.22428568539E+02  0.11999546163E+03  0.12209646228E+03  0.10566000000E+00 0. -1.
         13    1    4    4    0    0  0.50774258500E-01  0.10673588009E+00 -0.40945600242E-01  0.16374111031E+00  0.10566000000E+00 0. -1.
        -13    1    4    4    0    0 -0.73366889336E+00  0.10978934893E+02 -0.23892520377E+00  0.11006522190E+02  0.10566000000E+00 0.  1.
        -14    1    4    4    0    0 -0.16800354582E+01  0.11342897766E+02  0.31506133161E+00  0.11470968246E+02  0.00000000000E+00 0.  1.
<mgrwt>
<rscale>  0 0.80880421E+02</rscale>
<asrwt>0</asrwt>
<pdfrwt beam="1">  1        1 0.20366798E-01 0.80880421E+02</pdfrwt>
<pdfrwt beam="2">  1       -2 0.19005415E-02 0.80880421E+02</pdfrwt>
<totfact> 0.14986788E+05</totfact>
</mgrwt>
</event>
<event>
 8    1  0.1319619E-020  0.7914296E+02  0.7818608E-02  0.1331501E+00
          1   -1    0    0  501    0  0.00000000000E+00  0.00000000000E+00  0.10700667282E+03  0.10700667294E+03  0.50400000000E-02 0. -1.
         -2   -1    0    0    0  501 -0.00000000000E+00 -0.00000000000E+00 -0.14633686807E+02  0.14633687029E+02  0.25500000000E-02 0.  1.
        -24    2    1    2    0    0 -0.35527136788E-14  0.35527136788E-14  0.92372986013E+02  0.12164035997E+03  0.79142963226E+02 0.  0.
         66    2    3    3    0    0 -0.15928488154E+02  0.21952236378E+02  0.19821384208E+01  0.27268044592E+02  0.19999915709E+01 0.  0.
         13    1    3    3    0    0  0.15928488154E+02 -0.21952236378E+02  0.90390847592E+02  0.94372315375E+02  0.10566000000E+00 0. -1.
         13    1    4    4    0    0 -0.60269397208E+01  0.70973408131E+01  0.20454982617E+00  0.93139279406E+01  0.10566000000E+00 0. -1.
        -13    1    4    4    0    0 -0.16227133892E+01  0.25280661237E+01  0.53683400201E+00  0.30534688226E+01  0.10566000000E+00 0.  1.
        -14    1    4    4    0    0 -0.82788350438E+01  0.12326829442E+02  0.12407545926E+01  0.14900647829E+02  0.00000000000E+00 0.  1.
<mgrwt>
<rscale>  0 0.79142963E+02</rscale>
<asrwt>0</asrwt>
<pdfrwt beam="1">  1        1 0.16462565E-01 0.79142963E+02</pdfrwt>
<pdfrwt beam="2">  1       -2 0.22513365E-02 0.79142963E+02</pdfrwt>
<totfact> 0.15306695E+05</totfact>
</mgrwt>
</event>
<event>
 8    1  0.1320245E-020  0.8014033E+02  0.7818608E-02  0.1328654E+00
          1   -1    0    0  501    0  0.00000000000E+00  0.00000000000E+00  0.95533546891E+01  0.95533560185E+01  0.50400000000E-02 0. -1.
         -2   -1    0    0    0  501 -0.00000000000E+00 -0.00000000000E+00 -0.16806851027E+03  0.16806851029E+03  0.25500000000E-02 0.  1.
        -24    2    1    2    0    0 -0.35527136788E-14 -0.88817841970E-15 -0.15851515558E+03  0.17762186630E+03  0.80140332179E+02 0.  0.
         66    2    3    3    0    0  0.23310809499E+02  0.54761861751E+01 -0.15044658861E+03  0.15235339996E+03  0.20000001195E+01 0.  0.
         13    1    3    3    0    0 -0.23310809499E+02 -0.54761861751E+01 -0.80685669702E+01  0.25268466347E+02  0.10566000000E+00 0. -1.
         13    1    4    4    0    0  0.74991620152E-01  0.30920321436E-01 -0.83175136865E+00  0.84235039278E+00  0.10566000000E+00 0.  1.
        -13    1    4    4    0    0  0.15197324501E+02  0.41419623267E+01 -0.98843879696E+02  0.10009114967E+03  0.10566000000E+00 0.  1.
        -14    1    4    4    0    0  0.80384933779E+01  0.13033035269E+01 -0.50770957543E+02  0.51419899900E+02  0.00000000000E+00 0.  1.
<mgrwt>
<rscale>  0 0.80140332E+02</rscale>
<asrwt>0</asrwt>
<pdfrwt beam="1">  1        1 0.14697471E-02 0.80140332E+02</pdfrwt>
<pdfrwt beam="2">  1       -2 0.25856692E-01 0.80140332E+02</pdfrwt>
<totfact> 0.90491871E+04</totfact>
</mgrwt>
</event>
<event>
 8    1  0.1319619E-020  0.7858936E+02  0.7818608E-02  0.1333103E+00
         -2   -1    0    0    0  501 -0.00000000000E+00  0.00000000000E+00  0.13214743661E+03  0.13214743664E+03  0.25500000000E-02 0.  1.
          1   -1    0    0  501    0  0.00000000000E+00 -0.00000000000E+00 -0.11684463493E+02  0.11684464580E+02  0.50400000000E-02 0. -1.
        -24    2    1    2    0    0  0.00000000000E+00  0.00000000000E+00  0.12046297312E+03  0.14383190122E+03  0.78589362607E+02 0.  0.
         66    2    3    3    0    0 -0.42255001102E+01 -0.35412454269E+02  0.90352630333E+02  0.97157061365E+02  0.19999990746E+01 0.  0.
         13    1    3    3    0    0  0.42255001102E+01  0.35412454269E+02  0.30110342787E+02  0.46674839853E+02  0.10566000000E+00 0. -1.
         13    1    4    4    0    0 -0.92545660043E+00 -0.50932604032E+01  0.14652627287E+02  0.15540541236E+02  0.10566000000E+00 0.  1.
        -13    1    4    4    0    0 -0.19684742636E+01 -0.14887697412E+02  0.37729580093E+02  0.40608506537E+02  0.10566000000E+00 0.  1.
        -14    1    4    4    0    0 -0.13315692462E+01 -0.15431496454E+02  0.37970422953E+02  0.41008013591E+02  0.00000000000E+00 0.  1.
<mgrwt>
<rscale>  0 0.78589363E+02</rscale>
<asrwt>0</asrwt>
<pdfrwt beam="1">  1        1 0.17976098E-02 0.78589363E+02</pdfrwt>
<pdfrwt beam="2">  1       -2 0.20330375E-01 0.78589363E+02</pdfrwt>
<totfact> 0.10294949E+05</totfact>
</mgrwt>
</event>
<event>
 8    1  0.1319619E-020  0.7568515E+02  0.7818608E-02  0.1341762E+00
         -2   -1    0    0    0  501 -0.00000000000E+00  0.00000000000E+00  0.29289376044E+02  0.29289376155E+02  0.25500000000E-02 0.  1.
          1   -1    0    0  501    0  0.00000000000E+00 -0.00000000000E+00 -0.48893511396E+02  0.48893511656E+02  0.50400000000E-02 0. -1.
        -24    2    1    2    0    0  0.00000000000E+00  0.88817841970E-15 -0.19604135351E+02  0.78182887811E+02  0.75685149294E+02 0.  0.
         66    2    3    3    0    0  0.37068049042E+02  0.44967026024E+01 -0.15989229072E+02  0.40668366549E+02  0.19999993366E+01 0.  0.
         13    1    3    3    0    0 -0.37068049042E+02 -0.44967026024E+01 -0.36149062792E+01  0.37514521262E+02  0.10566000000E+00 0. -1.
         13    1    4    4    0    0  0.35098145135E+01  0.39967471768E+00 -0.10924580343E+01  0.36990764241E+01  0.10566000000E+00 0. -1.
        -13    1    4    4    0    0  0.13986084531E+02  0.10682317295E+01 -0.59433246825E+01  0.15234367458E+02  0.10566000000E+00 0.  1.
        -14    1    4    4    0    0  0.19572149998E+02  0.30287961552E+01 -0.89534463555E+01  0.21734922667E+02  0.00000000000E+00 0.  1.
<mgrwt>
<rscale>  0 0.75685149E+02</rscale>
<asrwt>0</asrwt>
<pdfrwt beam="1">  1        1 0.75220787E-02 0.75685149E+02</pdfrwt>
<pdfrwt beam="2">  1       -2 0.45060579E-02 0.75685149E+02</pdfrwt>
<totfact> 0.15288775E+05</totfact>
</mgrwt>
</event>
<event>
 8    1  0.1319619E-020  0.7735098E+02  0.7818608E-02  0.1336742E+00
          1   -1    0    0  501    0  0.00000000000E+00  0.00000000000E+00  0.87377252167E+01  0.87377266703E+01  0.50400000000E-02 0. -1.
         -2   -1    0    0    0  501 -0.00000000000E+00 -0.00000000000E+00 -0.17118795973E+03  0.17118795975E+03  0.25500000000E-02 0.  1.
        -24    2    1    2    0    0 -0.35527136788E-14 -0.35527136788E-14 -0.16245023451E+03  0.17992568642E+03  0.77350978921E+02 0.  0.
         66    2    3    3    0    0 -0.18231311985E+02 -0.18744253986E+02 -0.14748356151E+03  0.14979695828E+03  0.20000004654E+01 0.  0.
         13    1    3    3    0    0  0.18231311985E+02  0.18744253986E+02 -0.14966673005E+02  0.30128728136E+02  0.10566000000E+00 0. -1.
         13    1    4    4    0    0 -0.27150401445E+01 -0.28592677258E+01 -0.25495621375E+02  0.25798928820E+02  0.10566000000E+00 0. -1.
        -13    1    4    4    0    0 -0.32456623257E+01 -0.26973392269E+01 -0.22614301427E+02  0.23004950683E+02  0.10566000000E+00 0.  1.
         14    1    4    4    0    0 -0.12270609515E+02 -0.13187647033E+02 -0.99373638706E+02  0.10099307878E+03  0.00000000000E+00 0. -1.
<mgrwt>
<rscale>  0 0.77350979E+02</rscale>
<asrwt>0</asrwt>
<pdfrwt beam="1">  1        1 0.13442657E-02 0.77350979E+02</pdfrwt>
<pdfrwt beam="2">  1       -2 0.26336607E-01 0.77350979E+02</pdfrwt>
<totfact> 0.98480312E+04</totfact>
</mgrwt>
</event>
<event>
 8    1  0.1319619E-020  0.8082430E+02  0.7818608E-02  0.1326728E+00
         -2   -1    0    0    0  501 -0.00000000000E+00  0.00000000000E+00  0.19893321545E+02  0.19893321708E+02  0.25500000000E-02 0.  1.
          1   -1    0    0  501    0  0.00000000000E+00 -0.00000000000E+00 -0.82094972055E+02  0.82094972210E+02  0.50400000000E-02 0. -1.
        -24    2    1    2    0    0  0.00000000000E+00  0.00000000000E+00 -0.62201650510E+02  0.10198829392E+03  0.80824295667E+02 0.  0.
         66    2    3    3    0    0  0.54560032220E+01  0.34598703482E+02 -0.57475385013E+01  0.35550983763E+02  0.19999984787E+01 0.  0.
         13    1    3    3    0    0 -0.54560032220E+01 -0.34598703482E+02 -0.56454112009E+02  0.66437310155E+02  0.10566000000E+00 0. -1.
         13    1    4    4    0    0  0.17999544830E+00  0.18087624535E+01 -0.70033932174E+00  0.19508098769E+01  0.10566000000E+00 0. -1.
        -13    1    4    4    0    0  0.13281016276E+01  0.10102130188E+02 -0.14558723309E+01  0.10293085861E+02  0.10566000000E+00 0.  1.
         14    1    4    4    0    0  0.39479061460E+01  0.22687810841E+02 -0.35913268486E+01  0.23307088025E+02  0.00000000000E+00 0. -1.
<mgrwt>
<rscale>  0 0.80824296E+02</rscale>
<asrwt>0</asrwt>
<pdfrwt beam="1">  1        1 0.12629996E-01 0.80824296E+02</pdfrwt>
<pdfrwt beam="2">  1       -2 0.30605111E-02 0.80824296E+02</pdfrwt>
<totfact> 0.13836952E+05</totfact>
</mgrwt>
</event>
<event>
 8    1  0.1319619E-020  0.8047928E+02  0.7818608E-02  0.1327697E+00
         -2   -1    0    0    0  501 -0.00000000000E+00  0.00000000000E+00  0.27179605659E+02  0.27179605779E+02  0.25500000000E-02 0.  1.
          1   -1    0    0  501    0  0.00000000000E+00 -0.00000000000E+00 -0.59575139272E+02  0.59575139485E+02  0.50400000000E-02 0. -1.
        -24    2    1    2    0    0  0.88817841970E-15  0.35527136788E-14 -0.32395533613E+02  0.86754745264E+02  0.80479284463E+02 0.  0.
         66    2    3    3    0    0 -0.76875184556E+01 -0.14832418635E+02  0.23225048855E+02  0.28679286241E+02  0.19999956079E+01 0.  0.
         13    1    3    3    0    0  0.76875184556E+01  0.14832418635E+02 -0.55620582468E+02  0.58075459023E+02  0.10566000000E+00 0. -1.
         13    1    4    4    0    0 -0.20878731994E+01 -0.33908085233E+01  0.42884435366E+01  0.58530939631E+01  0.10566000000E+00 0. -1.
        -13    1    4    4    0    0 -0.51816731197E+01 -0.10354139264E+02  0.17299428027E+02  0.20816803557E+02  0.10566000000E+00 0.  1.
         14    1    4    4    0    0 -0.41797213646E+00 -0.10874708482E+01  0.16371772907E+01  0.20093887214E+01  0.00000000000E+00 0. -1.
<mgrwt>
<rscale>  0 0.80479284E+02</rscale>
<asrwt>0</asrwt>
<pdfrwt beam="1">  1        1 0.91654060E-02 0.80479284E+02</pdfrwt>
<pdfrwt beam="2">  1       -2 0.41814778E-02 0.80479284E+02</pdfrwt>
<totfact> 0.13302405E+05</totfact>
</mgrwt>
</event>
<event>
 8    1  0.1319619E-020  0.7934398E+02  0.7818608E-02  0.1330923E+00
         -2   -1    0    0    0  501 -0.00000000000E+00  0.00000000000E+00  0.42314447222E+03  0.42314447223E+03  0.25500000000E-02 0.  1.
          1   -1    0    0  501    0  0.00000000000E+00 -0.00000000000E+00 -0.37194534776E+01  0.37194568923E+01  0.50400000000E-02 0. -1.
        -24    2    1    2    0    0  0.00000000000E+00  0.00000000000E+00  0.41942501875E+03  0.42686392912E+03  0.79343982990E+02 0.  0.
         66    2    3    3    0    0 -0.24289844860E+02 -0.31249178882E+02  0.22229406238E+03  0.22579893251E+03  0.20000014994E+01 0.  0.
         13    1    3    3    0    0  0.24289844860E+02  0.31249178882E+02  0.19713095636E+03  0.20106499662E+03  0.10566000000E+00 0. -1.
         13    1    4    4    0    0 -0.92323096895E+01 -0.12355379906E+02  0.82289144796E+02  0.83722192220E+02  0.10566000000E+00 0.  1.
        -13    1    4    4    0    0 -0.24073176976E+01 -0.27308310464E+01  0.22443142854E+02  0.22736720122E+02  0.10566000000E+00 0. -1.
        -14    1    4    4    0    0 -0.12650217473E+02 -0.16162967930E+02  0.11756177473E+03  0.11934002016E+03  0.00000000000E+00 0.  1.
<mgrwt>
<rscale>  0 0.79343983E+02</rscale>
<asrwt>0</asrwt>
<pdfrwt beam="1">  1        1 0.57222413E-03 0.79343983E+02</pdfrwt>
<pdfrwt beam="2">  1       -2 0.65099121E-01 0.79343983E+02</pdfrwt>
<totfact> 0.58113493E+04</totfact>
</mgrwt>
</event>
<event>
 8    1  0.1319619E-020  0.7974957E+02  0.7818608E-02  0.1329764E+00
          1   -1    0    0  501    0  0.00000000000E+00  0.00000000000E+00  0.57314267226E+01  0.57314289386E+01  0.50400000000E-02 0. -1.
         -2   -1    0    0    0  501 -0.00000000000E+00 -0.00000000000E+00 -0.27741754143E+03  0.27741754145E+03  0.25500000000E-02 0.  1.
        -24    2    1    2    0    0  0.00000000000E+00  0.00000000000E+00 -0.27168611471E+03  0.28314897038E+03  0.79749573683E+02 0.  0.
         66    2    3    3    0    0 -0.25602432974E+02 -0.20458077282E+02 -0.21642125379E+03  0.21889763953E+03  0.19999995655E+01 0.  0.
         13    1    3    3    0    0  0.25602432974E+02  0.20458077282E+02 -0.55264860924E+02  0.64251330859E+02  0.10566000000E+00 0. -1.
         13    1    4    4    0    0 -0.12116044788E+02 -0.87444665529E+01 -0.95223969449E+02  0.96389209761E+02  0.10566000000E+00 0. -1.
        -13    1    4    4    0    0 -0.67083622702E+01 -0.55434627953E+01 -0.57364446980E+02  0.58020884563E+02  0.10566000000E+00 0.  1.
         14    1    4    4    0    0 -0.67780259157E+01 -0.61701479340E+01 -0.63832837359E+02  0.64487545202E+02  0.00000000000E+00 0. -1.
<mgrwt>
<rscale>  0 0.79749574E+02</rscale>
<asrwt>0</asrwt>
<pdfrwt beam="1">  1        1 0.88175835E-03 0.79749574E+02</pdfrwt>
<pdfrwt beam="2">  1       -2 0.42679611E-01 0.79749574E+02</pdfrwt>
<totfact> 0.73835334E+04</totfact>
</mgrwt>
</event>
<event>
 8    1  0.1319619E-020  0.7772799E+02  0.7818608E-02  0.1335626E+00
          1   -1    0    0  501    0  0.00000000000E+00  0.00000000000E+00  0.49493768058E+02  0.49493768315E+02  0.50400000000E-02 0. -1.
         -2   -1    0    0    0  501 -0.00000000000E+00 -0.00000000000E+00 -0.30517173607E+02  0.30517173713E+02  0.25500000000E-02 0.  1.
        -24    2    1    2    0    0 -0.44408920985E-15  0.00000000000E+00  0.18976594451E+02  0.80010942028E+02  0.77727985354E+02 0.  0.
         66    2    3    3    0    0 -0.29676812188E+01 -0.27961587251E+02 -0.18083124217E+02  0.33491146185E+02  0.19999994693E+01 0.  0.
         13    1    3    3    0    0  0.29676812188E+01  0.27961587251E+02  0.37059718669E+02  0.46519795843E+02  0.10566000000E+00 0. -1.
         13    1    4    4    0    0 -0.17436908552E+00 -0.40644592574E+00 -0.40910179291E+00  0.61166263667E+00  0.10566000000E+00 0. -1.
        -13    1    4    4    0    0 -0.25531642097E+00 -0.81687603049E+01 -0.52215002554E+01  0.96989205763E+01  0.10566000000E+00 0.  1.
         14    1    4    4    0    0 -0.25379957123E+01 -0.19386381021E+02 -0.12452522169E+02  0.23180562972E+02  0.00000000000E+00 0. -1.
<mgrwt>
<rscale>  0 0.77727985E+02</rscale>
<asrwt>0</asrwt>
<pdfrwt beam="1">  1        1 0.76144259E-02 0.77727985E+02</pdfrwt>
<pdfrwt beam="2">  1       -2 0.46949498E-02 0.77727985E+02</pdfrwt>
<totfact> 0.14229954E+05</totfact>
</mgrwt>
</event>
<event>
 8    1  0.1319619E-020  0.8089305E+02  0.7818608E-02  0.1326536E+00
         -2   -1    0    0    0  501 -0.00000000000E+00  0.00000000000E+00  0.52407629982E+02  0.52407630044E+02  0.25500000000E-02 0.  1.
          1   -1    0    0  501    0  0.00000000000E+00 -0.00000000000E+00 -0.31215330499E+02  0.31215330906E+02  0.50400000000E-02 0. -1.
        -24    2    1    2    0    0  0.00000000000E+00  0.17763568394E-14  0.21192299483E+02  0.83622960951E+02  0.80893053106E+02 0.  0.
         66    2    3    3    0    0  0.36029582812E+02  0.93330590552E+01  0.26904369025E+02  0.45968270254E+02  0.19999921519E+01 0.  0.
         13    1    3    3    0    0 -0.36029582812E+02 -0.93330590552E+01 -0.57120695416E+01  0.37654690696E+02  0.10566000000E+00 0. -1.
         13    1    4    4    0    0  0.12195947681E+02  0.24583146093E+01  0.83893824538E+01  0.15005910587E+02  0.10566000000E+00 0. -1.
        -13    1    4    4    0    0  0.13182308548E+02  0.35190679562E+01  0.10484738441E+02  0.17207498427E+02  0.10566000000E+00 0.  1.
         14    1    4    4    0    0  0.10651326584E+02  0.33556764898E+01  0.80302481304E+01  0.13754861240E+02  0.00000000000E+00 0. -1.
<mgrwt>
<rscale>  0 0.80893053E+02</rscale>
<asrwt>0</asrwt>
<pdfrwt beam="1">  1        1 0.48023587E-02 0.80893053E+02</pdfrwt>
<pdfrwt beam="2">  1       -2 0.80627122E-02 0.80893053E+02</pdfrwt>
<totfact> 0.11797735E+05</totfact>
</mgrwt>
</event>
<event>
 8    1  0.1319619E-020  0.7986072E+02  0.7818608E-02  0.1329447E+00
         -2   -1    0    0    0  501 -0.00000000000E+00  0.00000000000E+00  0.72894514462E+02  0.72894514506E+02  0.25500000000E-02 0.  1.
          1   -1    0    0  501    0  0.00000000000E+00 -0.00000000000E+00 -0.21873162913E+02  0.21873163494E+02  0.50400000000E-02 0. -1.
        -24    2    1    2    0    0  0.35527136788E-14  0.00000000000E+00  0.51021351549E+02  0.94767678000E+02  0.79860719253E+02 0.  0.
         66    2    3    3    0    0  0.29722334556E+02  0.24003968131E+02  0.39202672341E+02  0.54776428960E+02  0.19999983693E+01 0.  0.
         13    1    3    3    0    0 -0.29722334556E+02 -0.24003968131E+02  0.11818679207E+02  0.39991249039E+02  0.10566000000E+00 0. -1.
         13    1    4    4    0    0  0.67826010418E+01  0.51425451612E+01  0.79221127004E+01  0.11628434172E+02  0.10566000000E+00 0. -1.
        -13    1    4    4    0    0  0.12534738173E+02  0.10423279294E+02  0.16364735247E+02  0.23099353585E+02  0.10566000000E+00 0.  1.
        -14    1    4    4    0    0  0.10404995341E+02  0.84381436761E+01  0.14915824394E+02  0.20048641203E+02  0.00000000000E+00 0.  1.
<mgrwt>
<rscale>  0 0.79860719E+02</rscale>
<asrwt>0</asrwt>
<pdfrwt beam="1">  1        1 0.33651020E-02 0.79860719E+02</pdfrwt>
<pdfrwt beam="2">  1       -2 0.11214541E-01 0.79860719E+02</pdfrwt>
<totfact> 0.11447597E+05</totfact>
</mgrwt>
</event>
<event>
 8    1  0.1319619E-020  0.8167840E+02  0.7818608E-02  0.1324355E+00
          1   -1    0    0  501    0  0.00000000000E+00  0.00000000000E+00  0.27046677844E+02  0.27046678314E+02  0.50400000000E-02 0. -1.
         -2   -1    0    0    0  501 -0.00000000000E+00 -0.00000000000E+00 -0.61665258728E+02  0.61665258781E+02  0.25500000000E-02 0.  1.
        -24    2    1    2    0    0  0.00000000000E+00  0.88817841970E-15 -0.34618580884E+02  0.88711937094E+02  0.81678403759E+02 0.  0.
         66    2    3    3    0    0  0.16431213347E+02  0.32510949888E+01 -0.57744056738E+02  0.60157547096E+02  0.19999983530E+01 0.  0.
         13    1    3    3    0    0 -0.16431213347E+02 -0.32510949888E+01  0.23125475854E+02  0.28554389998E+02  0.10566000000E+00 0. -1.
         13    1    4    4    0    0  0.21828422472E+01  0.16744207341E+00 -0.94108398613E+01  0.96627070769E+01  0.10566000000E+00 0. -1.
        -13    1    4    4    0    0  0.93745094524E+01  0.19979257381E+01 -0.33446968957E+02  0.34793448107E+02  0.10566000000E+00 0.  1.
         14    1    4    4    0    0  0.48738616473E+01  0.10857271773E+01 -0.14886247919E+02  0.15701391912E+02  0.00000000000E+00 0. -1.
<mgrwt>
<rscale>  0 0.81678404E+02</rscale>
<asrwt>0</asrwt>
<pdfrwt beam="1">  1        1 0.41610274E-02 0.81678404E+02</pdfrwt>
<pdfrwt beam="2">  1       -2 0.94869629E-02 0.81678404E+02</pdfrwt>
<totfact> 0.11175151E+05</totfact>
</mgrwt>
</event>
<event>
 8    1  0.1319619E-020  0.7687739E+02  0.7818608E-02  0.1338154E+00
          1   -1    0    0  501    0  0.00000000000E+00  0.00000000000E+00  0.35599235296E+02  0.35599235653E+02  0.50400000000E-02 0. -1.
         -2   -1    0    0    0  501 -0.00000000000E+00 -0.00000000000E+00 -0.41504639908E+02  0.41504639987E+02  0.25500000000E-02 0.  1.
        -24    2    1    2    0    0  0.44408920985E-15  0.35527136788E-14 -0.59054046120E+01  0.77103875640E+02  0.76877394825E+02 0.  0.
         66    2    3    3    0    0 -0.28516692317E+01  0.20652428842E+02 -0.35312315220E+02  0.41056235079E+02  0.19999995560E+01 0.  0.
         13    1    3    3    0    0  0.28516692317E+01 -0.20652428842E+02  0.29406910608E+02  0.36047640561E+02  0.10566000000E+00 0. -1.
         13    1    4    4    0    0 -0.15263933673E+00  0.41568602742E+00 -0.93725280171E+00  0.10419695247E+01  0.10566000000E+00 0.  1.
        -13    1    4    4    0    0  0.62783094091E-02  0.45492903545E+01 -0.70814989166E+01  0.84175336702E+01  0.10566000000E+00 0. -1.
        -14    1    4    4    0    0 -0.27053082044E+01  0.15687452460E+02 -0.27293563501E+02  0.31596731884E+02  0.00000000000E+00 0.  1.
<mgrwt>
<rscale>  0 0.76877395E+02</rscale>
<asrwt>0</asrwt>
<pdfrwt beam="1">  1        1 0.54768055E-02 0.76877395E+02</pdfrwt>
<pdfrwt beam="2">  1       -2 0.63853292E-02 0.76877395E+02</pdfrwt>
<totfact> 0.13940368E+05</totfact>
</mgrwt>
</event>
<event>
 8    1  0.1319619E-020  0.8123593E+02  0.7818608E-02  0.1325580E+00
         -2   -1    0    0    0  501 -0.00000000000E+00  0.00000000000E+00  0.30448227616E+03  0.30448227618E+03  0.25500000000E-02 0.  1.
          1   -1    0    0  501    0  0.00000000000E+00 -0.00000000000E+00 -0.54184392215E+01  0.54184415655E+01  0.50400000000E-02 0. -1.
        -24    2    1    2    0    0  0.00000000000E+00  0.00000000000E+00  0.29906383694E+03  0.30990071774E+03  0.81235929791E+02 0.  0.
         66    2    3    3    0    0 -0.35096920092E+02 -0.20390888287E+02  0.14778496210E+03  0.15327092727E+03  0.19999995570E+01 0.  0.
         13    1    3    3    0    0  0.35096920092E+02  0.20390888287E+02  0.15127887485E+03  0.15662979047E+03  0.10566000000E+00 0. -1.
         13    1    4    4    0    0 -0.54259388274E+01 -0.36594203652E+01  0.22409528401E+02  0.23345883936E+02  0.10566000000E+00 0. -1.
        -13    1    4    4    0    0 -0.29312789736E+02 -0.16512086206E+02  0.12422858659E+03  0.12870369662E+03  0.10566000000E+00 0.  1.
         14    1    4    4    0    0 -0.35819152897E+00 -0.21938171609E+00  0.11468471058E+01  0.12213467128E+01  0.00000000000E+00 0. -1.
<mgrwt>
<rscale>  0 0.81235930E+02</rscale>
<asrwt>0</asrwt>
<pdfrwt beam="1">  1        1 0.83360589E-03 0.81235930E+02</pdfrwt>
<pdfrwt beam="2">  1       -2 0.46843446E-01 0.81235930E+02</pdfrwt>
<totfact> 0.66993785E+04</totfact>
</mgrwt>
</event>
<event>
 8    1  0.1319619E-020  0.7903527E+02  0.7818608E-02  0.1331812E+00
         -2   -1    0    0    0  501 -0.00000000000E+00  0.00000000000E+00  0.18304289270E+02  0.18304289447E+02  0.25500000000E-02 0.  1.
          1   -1    0    0  501    0  0.00000000000E+00 -0.00000000000E+00 -0.85315713839E+02  0.85315713988E+02  0.50400000000E-02 0. -1.
        -24    2    1    2    0    0 -0.71054273576E-14  0.00000000000E+00 -0.67011424569E+02  0.10362000343E+03  0.79035271171E+02 0.  0.
         66    2    3    3    0    0 -0.37319145550E+02  0.34866558166E+01 -0.17217013192E+02  0.41295289542E+02  0.20000004227E+01 0.  0.
         13    1    3    3    0    0  0.37319145550E+02 -0.34866558166E+01 -0.49794411378E+02  0.62324713893E+02  0.10566000000E+00 0. -1.
         13    1    4    4    0    0 -0.32789564808E+01  0.16193520624E+00 -0.17674724222E+01  0.37300001894E+01  0.10566000000E+00 0. -1.
        -13    1    4    4    0    0 -0.10356245012E+02  0.26638556957E+00 -0.45869638732E+01  0.11330232726E+02  0.10566000000E+00 0.  1.
        -14    1    4    4    0    0 -0.23683944058E+02  0.30583350408E+01 -0.10862576896E+02  0.26235056626E+02  0.00000000000E+00 0.  1.
<mgrwt>
<rscale>  0 0.79035271E+02</rscale>
<asrwt>0</asrwt>
<pdfrwt beam="1">  1        1 0.13125494E-01 0.79035271E+02</pdfrwt>
<pdfrwt beam="2">  1       -2 0.28160446E-02 0.79035271E+02</pdfrwt>
<totfact> 0.14797294E+05</totfact>
</mgrwt>
</event>
<event>
 8    1  0.1319619E-020  0.8537184E+02  0.7818608E-02  0.1314463E+00
         -2   -1    0    0    0  501 -0.00000000000E+00  0.00000000000E+00  0.93852933645E+01  0.93852937109E+01  0.25500000000E-02 0.  1.
          1   -1    0    0  501    0  0.00000000000E+00 -0.00000000000E+00 -0.19414286349E+03  0.19414286356E+03  0.50400000000E-02 0. -1.
        -24    2    1    2    0    0  0.71054273576E-14 -0.35527136788E-14 -0.18475757013E+03  0.20352815727E+03  0.85371840097E+02 0.  0.
         66    2    3    3    0    0 -0.35515130121E+02 -0.23512956415E+02 -0.98219686984E+02  0.10707609679E+03  0.20000015856E+01 0.  0.
         13    1    3    3    0    0  0.35515130121E+02  0.23512956415E+02 -0.86537883142E+02  0.96452060474E+02  0.10566000000E+00 0. -1.
         13    1    4    4    0    0 -0.10077505512E+02 -0.76089512237E+01 -0.28201674054E+02  0.30899803229E+02  0.10566000000E+00 0.  1.
        -13    1    4    4    0    0 -0.63209179194E+01 -0.37833656792E+01 -0.16787860183E+02  0.18333337742E+02  0.10566000000E+00 0. -1.
        -14    1    4    4    0    0 -0.19116706689E+02 -0.12120639513E+02 -0.53230152748E+02  0.57842955823E+02  0.00000000000E+00 0.  1.
<mgrwt>
<rscale>  0 0.85371840E+02</rscale>
<asrwt>0</asrwt>
<pdfrwt beam="1">  1        1 0.29868130E-01 0.85371840E+02</pdfrwt>
<pdfrwt beam="2">  1       -2 0.14438915E-02 0.85371840E+02</pdfrwt>
<totfact> 0.13940500E+05</totfact>
</mgrwt>
</event>
<event>
 8    1  0.1319619E-020  0.7974512E+02  0.7818608E-02  0.1329776E+00
         -2   -1    0    0    0  501 -0.00000000000E+00  0.00000000000E+00  0.19558197226E+02  0.19558197392E+02  0.25500000000E-02 0.  1.
          1   -1    0    0  501    0  0.00000000000E+00 -0.00000000000E+00 -0.81286678287E+02  0.81286678443E+02  0.50400000000E-02 0. -1.
        -24    2    1    2    0    0  0.00000000000E+00  0.00000000000E+00 -0.61728481061E+02  0.10084487583E+03  0.79745116515E+02 0.  0.
         66    2    3    3    0    0  0.20122134633E+02 -0.31297338422E+02 -0.12848567142E+02  0.39414583281E+02  0.20000007659E+01 0.  0.
         13    1    3    3    0    0 -0.20122134633E+02  0.31297338422E+02 -0.48879913919E+02  0.61430292554E+02  0.10566000000E+00 0. -1.
         13    1    4    4    0    0  0.51249495599E+01 -0.85377396556E+01 -0.27784539403E+01  0.10338717365E+02  0.10566000000E+00 0. -1.
        -13    1    4    4    0    0  0.79931172013E+01 -0.11549062322E+02 -0.56180776134E+01  0.15127614591E+02  0.10566000000E+00 0.  1.
        -14    1    4    4    0    0  0.70040678721E+01 -0.11210536444E+02 -0.44520355885E+01  0.13948251324E+02  0.00000000000E+00 0.  1.
<mgrwt>
<rscale>  0 0.79745117E+02</rscale>
<asrwt>0</asrwt>
<pdfrwt beam="1">  1        1 0.12505643E-01 0.79745117E+02</pdfrwt>
<pdfrwt beam="2">  1       -2 0.30089535E-02 0.79745117E+02</pdfrwt>
<totfact> 0.14329835E+05</totfact>
</mgrwt>
</event>
<event>
 8    1  0.1319619E-020  0.8308368E+02  0.7818608E-02  0.1320521E+00
         -2   -1    0    0    0  501 -0.00000000000E+00  0.00000000000E+00  0.54192867368E+02  0.54192867428E+02  0.25500000000E-02 0.  1.
          1   -1    0    0  501    0  0.00000000000E+00 -0.00000000000E+00 -0.31844121509E+02  0.31844121908E+02  0.50400000000E-02 0. -1.
        -24    2    1    2    0    0  0.35527136788E-14  0.35527136788E-14  0.22348745858E+02  0.86036989336E+02  0.83083675247E+02 0.  0.
         66    2    3    3    0    0 -0.27731440272E+02 -0.16356541813E+02  0.38326170453E+02  0.50094556191E+02  0.19999946955E+01 0.  0.
         13    1    3    3    0    0  0.27731440272E+02  0.16356541813E+02 -0.15977424594E+02  0.35942433145E+02  0.10566000000E+00 0. -1.
         13    1    4    4    0    0 -0.94682197879E+01 -0.50890795363E+01  0.13608129313E+02  0.17341806824E+02  0.10566000000E+00 0. -1.
        -13    1    4    4    0    0 -0.16900839887E+02 -0.10127190899E+02  0.22926198421E+02  0.30229457859E+02  0.10566000000E+00 0.  1.
         14    1    4    4    0    0 -0.13623805973E+01 -0.11402713777E+01  0.17918427179E+01  0.25232915076E+01  0.00000000000E+00 0. -1.
<mgrwt>
<rscale>  0 0.83083675E+02</rscale>
<asrwt>0</asrwt>
<pdfrwt beam="1">  1        1 0.48990957E-02 0.83083675E+02</pdfrwt>
<pdfrwt beam="2">  1       -2 0.83373642E-02 0.83083675E+02</pdfrwt>
<totfact> 0.10963427E+05</totfact>
</mgrwt>
</event>
<event>
 8    1  0.1319619E-020  0.9005820E+02  0.7818608E-02  0.1302711E+00
         -2   -1    0    0    0  501 -0.00000000000E+00  0.00000000000E+00  0.26830429243E+02  0.26830429364E+02  0.25500000000E-02 0.  1.
          1   -1    0    0  501    0  0.00000000000E+00 -0.00000000000E+00 -0.75571643253E+02  0.75571643421E+02  0.50400000000E-02 0. -1.
        -24    2    1    2    0    0  0.00000000000E+00  0.00000000000E+00 -0.48741214010E+02  0.10240207279E+03  0.90058195449E+02 0.  0.
         66    2    3    3    0    0 -0.11284203609E+02 -0.15833706664E+02  0.21771275514E+02  0.29257955725E+02  0.20000044677E+01 0.  0.
         13    1    3    3    0    0  0.11284203609E+02  0.15833706664E+02 -0.70512489523E+02  0.73144117061E+02  0.10566000000E+00 0. -1.
         13    1    4    4    0    0 -0.30235976333E+01 -0.31421612331E+01  0.47587378660E+01  0.64553907686E+01  0.10566000000E+00 0. -1.
        -13    1    4    4    0    0 -0.55352391567E+01 -0.75773162851E+01  0.10764938225E+02  0.14281094273E+02  0.10566000000E+00 0.  1.
         14    1    4    4    0    0 -0.27253668189E+01 -0.51142291463E+01  0.62475994225E+01  0.85214706831E+01  0.00000000000E+00 0. -1.
<mgrwt>
<rscale>  0 0.90058195E+02</rscale>
<asrwt>0</asrwt>
<pdfrwt beam="1">  1        1 0.11626407E-01 0.90058195E+02</pdfrwt>
<pdfrwt beam="2">  1       -2 0.41277584E-02 0.90058195E+02</pdfrwt>
<totfact> 0.10133080E+05</totfact>
</mgrwt>
</event>
<event>
 8    1  0.1319619E-020  0.7509150E+02  0.7818608E-02  0.1343588E+00
          1   -1    0    0  501    0  0.00000000000E+00  0.00000000000E+00  0.60337421280E+02  0.60337421490E+02  0.50400000000E-02 0. -1.
         -2   -1    0    0    0  501 -0.00000000000E+00 -0.00000000000E+00 -0.23363332024E+02  0.23363332163E+02  0.25500000000E-02 0.  1.
        -24    2    1    2    0    0  0.00000000000E+00  0.00000000000E+00  0.36974089256E+02  0.83700753654E+02  0.75091496762E+02 0.  0.
         66    2    3    3    0    0  0.32149986695E+01  0.36269433695E+02  0.84145202932E+01  0.37424753607E+02  0.19999984384E+01 0.  0.
         13    1    3    3    0    0 -0.32149986695E+01 -0.36269433695E+02  0.28559568963E+02  0.46276000047E+02  0.10566000000E+00 0. -1.
         13    1    4    4    0    0  0.11873171764E+01  0.21617814136E+02  0.44746241770E+01  0.22108211951E+02  0.10566000000E+00 0. -1.
        -13    1    4    4    0    0  0.14389992149E+01  0.11540755465E+02  0.29419582143E+01  0.11996917838E+02  0.10566000000E+00 0.  1.
         14    1    4    4    0    0  0.58868227823E+00  0.31108640934E+01  0.99793790190E+00  0.33196238173E+01  0.00000000000E+00 0. -1.
<mgrwt>
<rscale>  0 0.75091497E+02</rscale>
<asrwt>0</asrwt>
<pdfrwt beam="1">  1        1 0.92826801E-02 0.75091497E+02</pdfrwt>
<pdfrwt beam="2">  1       -2 0.35943588E-02 0.75091497E+02</pdfrwt>
<totfact> 0.16119210E+05</totfact>
</mgrwt>
</event>
<event>
 8    1  0.1319619E-020  0.7935441E+02  0.7818608E-02  0.1330894E+00
         -2   -1    0    0    0  501 -0.00000000000E+00  0.00000000000E+00  0.25853457558E+02  0.25853457684E+02  0.25500000000E-02 0.  1.
          1   -1    0    0  501    0  0.00000000000E+00 -0.00000000000E+00 -0.60892459545E+02  0.60892459754E+02  0.50400000000E-02 0. -1.
        -24    2    1    2    0    0  0.00000000000E+00  0.00000000000E+00 -0.35039001988E+02  0.86745917438E+02  0.79354410916E+02 0.  0.
         66    2    3    3    0    0 -0.20433204826E+02  0.71990604433E+01  0.18773245024E+02  0.28736336994E+02  0.20000010930E+01 0.  0.
         13    1    3    3    0    0  0.20433204826E+02 -0.71990604433E+01 -0.53812247012E+02  0.58009580443E+02  0.10566000000E+00 0. -1.
         13    1    4    4    0    0 -0.66651967285E+01  0.24761572079E+01  0.58306008461E+01  0.91958290660E+01  0.10566000000E+00 0. -1.
        -13    1    4    4    0    0 -0.93078331481E+01  0.27079888881E+01  0.93565486741E+01  0.13473126172E+02  0.10566000000E+00 0.  1.
        -14    1    4    4    0    0 -0.44601749495E+01  0.20149143474E+01  0.35860955041E+01  0.60673817559E+01  0.00000000000E+00 0.  1.
<mgrwt>
<rscale>  0 0.79354411E+02</rscale>
<asrwt>0</asrwt>
<pdfrwt beam="1">  1        1 0.93680707E-02 0.79354411E+02</pdfrwt>
<pdfrwt beam="2">  1       -2 0.39774550E-02 0.79354411E+02</pdfrwt>
<totfact> 0.13875868E+05</totfact>
</mgrwt>
</event>
<event>
 8    1  0.1319619E-020  0.8007363E+02  0.7818608E-02  0.1328843E+00
          1   -1    0    0  501    0  0.00000000000E+00  0.00000000000E+00  0.15071954507E+02  0.15071955349E+02  0.50400000000E-02 0. -1.
         -2   -1    0    0    0  501 -0.00000000000E+00 -0.00000000000E+00 -0.10635292945E+03  0.10635292948E+03  0.25500000000E-02 0.  1.
        -24    2    1    2    0    0  0.00000000000E+00  0.00000000000E+00 -0.91280974941E+02  0.12142488483E+03  0.80073630299E+02 0.  0.
         66    2    3    3    0    0  0.53510896008E+01 -0.32518101247E+02 -0.80077830762E+02  0.86617088687E+02  0.20000011382E+01 0.  0.
         13    1    3    3    0    0 -0.53510896008E+01  0.32518101247E+02 -0.11203144179E+02  0.34807796140E+02  0.10566000000E+00 0. -1.
         13    1    4    4    0    0  0.24080923700E+01 -0.18989146999E+02 -0.46439971777E+02  0.50230157827E+02  0.10566000000E+00 0. -1.
        -13    1    4    4    0    0  0.21968441499E+01 -0.90024790592E+01 -0.21570336008E+02  0.23476825019E+02  0.10566000000E+00 0.  1.
         14    1    4    4    0    0  0.74615308093E+00 -0.45264751886E+01 -0.12067522976E+02  0.12910105841E+02  0.00000000000E+00 0. -1.
<mgrwt>
<rscale>  0 0.80073630E+02</rscale>
<asrwt>0</asrwt>
<pdfrwt beam="1">  1        1 0.23187624E-02 0.80073630E+02</pdfrwt>
<pdfrwt beam="2">  1       -2 0.16361989E-01 0.80073630E+02</pdfrwt>
<totfact> 0.10423885E+05</totfact>
</mgrwt>
</event>
<event>
 8    1  0.1319619E-020  0.8015171E+02  0.7818608E-02  0.1328621E+00
         -2   -1    0    0    0  501 -0.00000000000E+00  0.00000000000E+00  0.37066259161E+03  0.37066259161E+03  0.25500000000E-02 0.  1.
          1   -1    0    0  501    0  0.00000000000E+00 -0.00000000000E+00 -0.43329798665E+01  0.43329827977E+01  0.50400000000E-02 0. -1.
        -24    2    1    2    0    0 -0.55511151231E-16  0.00000000000E+00  0.36632961174E+03  0.37499557441E+03  0.80151708602E+02 0.  0.
         66    2    3    3    0    0 -0.42551917962E+00 -0.13713983831E+02  0.35932064400E+03  0.35958806936E+03  0.20000008314E+01 0.  0.
         13    1    3    3    0    0  0.42551917962E+00  0.13713983831E+02  0.70089677389E+01  0.15407505051E+02  0.10566000000E+00 0. -1.
         13    1    4    4    0    0 -0.71556903118E+00 -0.51718411049E+01  0.12385449083E+03  0.12396453542E+03  0.10566000000E+00 0. -1.
        -13    1    4    4    0    0  0.37790554882E+00 -0.45139298287E+01  0.13725565175E+03  0.13733041716E+03  0.10566000000E+00 0.  1.
        -14    1    4    4    0    0 -0.87855697262E-01 -0.40282128973E+01  0.98210501425E+02  0.98293116788E+02  0.00000000000E+00 0.  1.
<mgrwt>
<rscale>  0 0.80151709E+02</rscale>
<asrwt>0</asrwt>
<pdfrwt beam="1">  1        1 0.66661249E-03 0.80151709E+02</pdfrwt>
<pdfrwt beam="2">  1       -2 0.57025016E-01 0.80151709E+02</pdfrwt>
<totfact> 0.61770993E+04</totfact>
</mgrwt>
</event>
<event>
 8    1  0.1319619E-020  0.7976515E+02  0.7818608E-02  0.1329719E+00
          1   -1    0    0  501    0  0.00000000000E+00  0.00000000000E+00  0.22093262497E+03  0.22093262503E+03  0.50400000000E-02 0. -1.
         -2   -1    0    0    0  501 -0.00000000000E+00 -0.00000000000E+00 -0.71995695278E+01  0.71995699794E+01  0.25500000000E-02 0.  1.
        -24    2    1    2    0    0  0.11102230246E-15 -0.71054273576E-14  0.21373305545E+03  0.22813219501E+03  0.79765151602E+02 0.  0.
         66    2    3    3    0    0 -0.95520986690E+00  0.30205001546E+02  0.32607456624E+02  0.44502817576E+02  0.20000001110E+01 0.  0.
         13    1    3    3    0    0  0.95520986690E+00 -0.30205001546E+02  0.18112559882E+03  0.18362937743E+03  0.10566000000E+00 0. -1.
         13    1    4    4    0    0 -0.31356592397E+00  0.10622638423E+02  0.12302129016E+02  0.16257069632E+02  0.10566000000E+00 0. -1.
        -13    1    4    4    0    0  0.15207999420E+00  0.12537167463E+01  0.10059668089E+01  0.16180442703E+01  0.10566000000E+00 0.  1.
        -14    1    4    4    0    0 -0.79372393713E+00  0.18328646377E+02  0.19299360799E+02  0.26627703674E+02  0.00000000000E+00 0.  1.
<mgrwt>
<rscale>  0 0.79765152E+02</rscale>
<asrwt>0</asrwt>
<pdfrwt beam="1">  1        1 0.33989626E-01 0.79765152E+02</pdfrwt>
<pdfrwt beam="2">  1       -2 0.11076264E-02 0.79765152E+02</pdfrwt>
<totfact> 0.17133213E+05</totfact>
</mgrwt>
</event>
<event>
 8    1  0.1319619E-020  0.8028533E+02  0.7818608E-02  0.1328244E+00
          1   -1    0    0  501    0  0.00000000000E+00  0.00000000000E+00  0.92769162111E+01  0.92769175802E+01  0.50400000000E-02 0. -1.
         -2   -1    0    0    0  501 -0.00000000000E+00 -0.00000000000E+00 -0.17370354788E+03  0.17370354790E+03  0.25500000000E-02 0.  1.
        -24    2    1    2    0    0  0.00000000000E+00  0.00000000000E+00 -0.16442663167E+03  0.18298046548E+03  0.80285325838E+02 0.  0.
         66    2    3    3    0    0  0.20475191941E+02  0.20160662844E+02 -0.14606927595E+03  0.14888223262E+03  0.20000000603E+01 0.  0.
         13    1    3    3    0    0 -0.20475191941E+02 -0.20160662844E+02 -0.18357355714E+02  0.34098232860E+02  0.10566000000E+00 0. -1.
         13    1    4    4    0    0  0.62055033098E+00  0.48342562839E+00 -0.38329611935E+01  0.39142736999E+01  0.10566000000E+00 0. -1.
        -13    1    4    4    0    0  0.19600380993E+02  0.19323726260E+02 -0.13867786921E+03  0.14138296893E+03  0.10566000000E+00 0.  1.
        -14    1    4    4    0    0  0.25426061739E+00  0.35351095545E+00 -0.35584455484E+01  0.35849899830E+01  0.00000000000E+00 0.  1.
<mgrwt>
<rscale>  0 0.80285326E+02</rscale>
<asrwt>0</asrwt>
<pdfrwt beam="1">  1        1 0.14272181E-02 0.80285326E+02</pdfrwt>
<pdfrwt beam="2">  1       -2 0.26723620E-01 0.80285326E+02</pdfrwt>
<totfact> 0.89005916E+04</totfact>
</mgrwt>
</event>
<event>
 8    1  0.1319619E-020  0.7881123E+02  0.7818608E-02  0.1332459E+00
          1   -1    0    0  501    0  0.00000000000E+00  0.00000000000E+00  0.36573653991E+02  0.36573654339E+02  0.50400000000E-02 0. -1.
         -2   -1    0    0    0  501 -0.00000000000E+00 -0.00000000000E+00 -0.42456858147E+02  0.42456858223E+02  0.25500000000E-02 0.  1.
        -24    2    1    2    0    0  0.17763568394E-14  0.71054273576E-14 -0.58832041551E+01  0.79030512562E+02  0.78811229052E+02 0.  0.
         66    2    3    3    0    0 -0.15325569046E+02 -0.33501629392E+02 -0.16894975764E+02  0.40579211979E+02  0.20000000747E+01 0.  0.
         13    1    3    3    0    0  0.15325569046E+02  0.33501629392E+02  0.11011771609E+02  0.38451300583E+02  0.10566000000E+00 0. -1.
         13    1    4    4    0    0 -0.19216467748E+01 -0.56011864313E+01 -0.23466279893E+01  0.63705449313E+01  0.10566000000E+00 0. -1.
        -13    1    4    4    0    0 -0.70137507165E+01 -0.13819393704E+02 -0.72749041215E+01  0.17120272646E+02  0.10566000000E+00 0.  1.
        -14    1    4    4    0    0 -0.63901715542E+01 -0.14081049257E+02 -0.72734436531E+01  0.17088394402E+02  0.00000000000E+00 0.  1.
<mgrwt>
<rscale>  0 0.78811229E+02</rscale>
<asrwt>0</asrwt>
<pdfrwt beam="1">  1        1 0.56267161E-02 0.78811229E+02</pdfrwt>
<pdfrwt beam="2">  1       -2 0.65318243E-02 0.78811229E+02</pdfrwt>
<totfact> 0.13053603E+05</totfact>
</mgrwt>
</event>
<event>
 8    1  0.1319619E-020  0.7966030E+02  0.7818608E-02  0.1330018E+00
          1   -1    0    0  501    0  0.00000000000E+00  0.00000000000E+00  0.81180856515E+02  0.81180856671E+02  0.50400000000E-02 0. -1.
         -2   -1    0    0    0  501 -0.00000000000E+00 -0.00000000000E+00 -0.19542057843E+02  0.19542058009E+02  0.25500000000E-02 0.  1.
        -24    2    1    2    0    0  0.00000000000E+00  0.00000000000E+00  0.61638798672E+02  0.10072291468E+03  0.79660304042E+02 0.  0.
         66    2    3    3    0    0 -0.62617886833E+01  0.37907585035E+02  0.17684030073E+02  0.42342885155E+02  0.20000007369E+01 0.  0.
         13    1    3    3    0    0  0.62617886833E+01 -0.37907585035E+02  0.43954768599E+02  0.58380029525E+02  0.10566000000E+00 0. -1.
         13    1    4    4    0    0 -0.10738019720E+00  0.29503308530E+01  0.12365672349E+01  0.32025373083E+01  0.10566000000E+00 0. -1.
        -13    1    4    4    0    0 -0.22818325081E+01  0.15393941926E+02  0.67167402748E+01  0.16950102406E+02  0.10566000000E+00 0.  1.
        -14    1    4    4    0    0 -0.38725759780E+01  0.19563312257E+02  0.97307225633E+01  0.22190245442E+02  0.00000000000E+00 0.  1.
<mgrwt>
<rscale>  0 0.79660304E+02</rscale>
<asrwt>0</asrwt>
<pdfrwt beam="1">  1        1 0.12489362E-01 0.79660304E+02</pdfrwt>
<pdfrwt beam="2">  1       -2 0.30064705E-02 0.79660304E+02</pdfrwt>
<totfact> 0.14368367E+05</totfact>
</mgrwt>
</event>
<event>
 8    1  0.1319619E-020  0.7754596E+02  0.7818608E-02  0.1336164E+00
         -2   -1    0    0    0  501 -0.00000000000E+00  0.00000000000E+00  0.16678410658E+03  0.16678410660E+03  0.25500000000E-02 0.  1.
          1   -1    0    0  501    0  0.00000000000E+00 -0.00000000000E+00 -0.90137110839E+01  0.90137124929E+01  0.50400000000E-02 0. -1.
        -24    2    1    2    0    0  0.00000000000E+00  0.00000000000E+00  0.15777039550E+03  0.17579781909E+03  0.77545957359E+02 0.  0.
         66    2    3    3    0    0  0.28476562837E+02  0.26230743986E+02  0.75445734957E+02  0.84823496023E+02  0.19999983184E+01 0.  0.
         13    1    3    3    0    0 -0.28476562837E+02 -0.26230743986E+02  0.82324660541E+02  0.90974323072E+02  0.10566000000E+00 0. -1.
         13    1    4    4    0    0  0.29141262003E+01  0.30067280703E+01  0.91509284196E+01  0.10063955494E+02  0.10566000000E+00 0. -1.
        -13    1    4    4    0    0  0.83646178736E+01  0.82756214556E+01  0.22797200171E+02  0.25654945767E+02  0.10566000000E+00 0.  1.
         14    1    4    4    0    0  0.17197818763E+02  0.14948394460E+02  0.43497606367E+02  0.49104594762E+02  0.00000000000E+00 0. -1.
<mgrwt>
<rscale>  0 0.77545957E+02</rscale>
<asrwt>0</asrwt>
<pdfrwt beam="1">  1        1 0.13867249E-02 0.77545957E+02</pdfrwt>
<pdfrwt beam="2">  1       -2 0.25659093E-01 0.77545957E+02</pdfrwt>
<totfact> 0.98760253E+04</totfact>
</mgrwt>
</event>
<event>
 8    1  0.1319619E-020  0.8221827E+02  0.7818608E-02  0.1322872E+00
          1   -1    0    0  501    0  0.00000000000E+00  0.00000000000E+00  0.44496946807E+02  0.44496947092E+02  0.50400000000E-02 0. -1.
         -2   -1    0    0    0  501 -0.00000000000E+00 -0.00000000000E+00 -0.37979260456E+02  0.37979260542E+02  0.25500000000E-02 0.  1.
        -24    2    1    2    0    0  0.00000000000E+00  0.00000000000E+00  0.65176863510E+01  0.82476207634E+02  0.82218274066E+02 0.  0.
         66    2    3    3    0    0  0.12844653581E+02 -0.21551787803E+01 -0.35827182154E+02  0.38173510494E+02  0.20000002955E+01 0.  0.
         13    1    3    3    0    0 -0.12844653581E+02  0.21551787803E+01  0.42344868505E+02  0.44302697140E+02  0.10566000000E+00 0. -1.
         13    1    4    4    0    0  0.68540101434E+01 -0.12794584990E+01 -0.19242920806E+02  0.20467428619E+02  0.10566000000E+00 0. -1.
        -13    1    4    4    0    0  0.32541324573E+01 -0.26520661532E+00 -0.10708180538E+02  0.11195356496E+02  0.10566000000E+00 0.  1.
         14    1    4    4    0    0  0.27365109801E+01 -0.61051366596E+00 -0.58760808092E+01  0.65107253787E+01  0.00000000000E+00 0. -1.
<mgrwt>
<rscale>  0 0.82218274E+02</rscale>
<asrwt>0</asrwt>
<pdfrwt beam="1">  1        1 0.68456842E-02 0.82218274E+02</pdfrwt>
<pdfrwt beam="2">  1       -2 0.58429632E-02 0.82218274E+02</pdfrwt>
<totfact> 0.11962402E+05</totfact>
</mgrwt>
</event>
<event>
 8    1  0.1319619E-020  0.7979960E+02  0.7818608E-02  0.1329621E+00
         -2   -1    0    0    0  501 -0.00000000000E+00  0.00000000000E+00  0.91917305661E+02  0.91917305697E+02  0.25500000000E-02 0.  1.
          1   -1    0    0  501    0  0.00000000000E+00 -0.00000000000E+00 -0.17319850119E+02  0.17319850853E+02  0.50400000000E-02 0. -1.
        -24    2    1    2    0    0 -0.17763568394E-14 -0.35527136788E-14  0.74597455542E+02  0.10923715655E+03  0.79799598982E+02 0.  0.
         66    2    3    3    0    0  0.96524424757E+01  0.19304553518E+02  0.83218901975E+02  0.85995471264E+02  0.19999999406E+01 0.  0.
         13    1    3    3    0    0 -0.96524424757E+01 -0.19304553518E+02 -0.86214464324E+01  0.23241685285E+02  0.10566000000E+00 0. -1.
         13    1    4    4    0    0  0.33086716842E+01  0.71525217317E+01  0.27655992557E+02  0.28757102840E+02  0.10566000000E+00 0. -1.
        -13    1    4    4    0    0  0.29062339654E+01  0.51797102867E+01  0.26066481832E+02  0.26734775736E+02  0.10566000000E+00 0.  1.
         14    1    4    4    0    0  0.34375368261E+01  0.69723215000E+01  0.29496427586E+02  0.30503592688E+02  0.00000000000E+00 0. -1.
<mgrwt>
<rscale>  0 0.79799599E+02</rscale>
<asrwt>0</asrwt>
<pdfrwt beam="1">  1        1 0.26645924E-02 0.79799599E+02</pdfrwt>
<pdfrwt beam="2">  1       -2 0.14141124E-01 0.79799599E+02</pdfrwt>
<totfact> 0.10900936E+05</totfact>
</mgrwt>
</event>
<event>
 8    1  0.1319619E-020  0.7916173E+02  0.7818608E-02  0.1331447E+00
          1   -1    0    0  501    0  0.00000000000E+00  0.00000000000E+00  0.30369661150E+03  0.30369661155E+03  0.50400000000E-02 0. -1.
         -2   -1    0    0    0  501 -0.00000000000E+00 -0.00000000000E+00 -0.51585853430E+01  0.51585859732E+01  0.25500000000E-02 0.  1.
        -24    2    1    2    0    0 -0.71054273576E-14 -0.83266726847E-16  0.29853802616E+03  0.30885519752E+03  0.79161732993E+02 0.  0.
         66    2    3    3    0    0 -0.38909258437E+02 -0.16391707581E+00  0.12158801729E+03  0.12767773185E+03  0.20000005493E+01 0.  0.
         13    1    3    3    0    0  0.38909258437E+02  0.16391707581E+00  0.17695000887E+03  0.18117746567E+03  0.10566000000E+00 0. -1.
         13    1    4    4    0    0 -0.81755598977E+01  0.40105140234E+00  0.24108390990E+02  0.25460288726E+02  0.10566000000E+00 0. -1.
        -13    1    4    4    0    0 -0.22705525732E+02 -0.84645581337E+00  0.71239080424E+02  0.74774829520E+02  0.10566000000E+00 0.  1.
        -14    1    4    4    0    0 -0.80281728079E+01  0.28148733522E+00  0.26240545875E+02  0.27442613607E+02  0.00000000000E+00 0.  1.
<mgrwt>
<rscale>  0 0.79161733E+02</rscale>
<asrwt>0</asrwt>
<pdfrwt beam="1">  1        1 0.46722561E-01 0.79161733E+02</pdfrwt>
<pdfrwt beam="2">  1       -2 0.79362847E-03 0.79161733E+02</pdfrwt>
<totfact> 0.18592493E+05</totfact>
</mgrwt>
</event>
<event>
 8    1  0.1319619E-020  0.8015502E+02  0.7818608E-02  0.1328612E+00
          1   -1    0    0  501    0  0.00000000000E+00  0.00000000000E+00  0.60698069232E+01  0.60698090157E+01  0.50400000000E-02 0. -1.
         -2   -1    0    0    0  501 -0.00000000000E+00 -0.00000000000E+00 -0.26462234067E+03  0.26462234068E+03  0.25500000000E-02 0.  1.
        -24    2    1    2    0    0  0.71054273576E-14 -0.17763568394E-14 -0.25855253375E+03  0.27069214970E+03  0.80155019813E+02 0.  0.
         66    2    3    3    0    0  0.38771431839E+02 -0.92060895339E+01 -0.14295995481E+03  0.14842346409E+03  0.20000003447E+01 0.  0.
         13    1    3    3    0    0 -0.38771431839E+02  0.92060895339E+01 -0.11559257893E+03  0.12226868561E+03  0.10566000000E+00 0. -1.
         13    1    4    4    0    0  0.28157048947E+02 -0.67904984300E+01 -0.10365515343E+03  0.10762589034E+03  0.10566000000E+00 0. -1.
        -13    1    4    4    0    0  0.51112912101E+01 -0.13388032512E+01 -0.20876857921E+02  0.21535367484E+02  0.10566000000E+00 0.  1.
         14    1    4    4    0    0  0.55030916821E+01 -0.10767878527E+01 -0.18427943461E+02  0.19262206269E+02  0.00000000000E+00 0. -1.
<mgrwt>
<rscale>  0 0.80155020E+02</rscale>
<asrwt>0</asrwt>
<pdfrwt beam="1">  1        1 0.93381682E-03 0.80155020E+02</pdfrwt>
<pdfrwt beam="2">  1       -2 0.40711120E-01 0.80155020E+02</pdfrwt>
<totfact> 0.74635823E+04</totfact>
</mgrwt>
</event>
<event>
 8    1  0.1319619E-020  0.8135473E+02  0.7818608E-02  0.1325250E+00
         -2   -1    0    0    0  501 -0.00000000000E+00  0.00000000000E+00  0.27393148344E+02  0.27393148462E+02  0.25500000000E-02 0.  1.
          1   -1    0    0  501    0  0.00000000000E+00 -0.00000000000E+00 -0.60403716364E+02  0.60403716574E+02  0.50400000000E-02 0. -1.
        -24    2    1    2    0    0  0.35527136788E-14  0.00000000000E+00 -0.33010568020E+02  0.87796865036E+02  0.81354728868E+02 0.  0.
         66    2    3    3    0    0  0.27304275875E+02 -0.24885922316E+02  0.17931286268E+01  0.37041165111E+02  0.19999979859E+01 0.  0.
         13    1    3    3    0    0 -0.27304275875E+02  0.24885922316E+02 -0.34803696647E+02  0.50755699925E+02  0.10566000000E+00 0. -1.
         13    1    4    4    0    0  0.76538087032E+01 -0.63560439453E+01  0.79183521236E+00  0.99808942154E+01  0.10566000000E+00 0. -1.
        -13    1    4    4    0    0  0.79573502420E+01 -0.80831454973E+01  0.91471797804E+00  0.11380006020E+02  0.10566000000E+00 0.  1.
         14    1    4    4    0    0  0.11693116930E+02 -0.10446732874E+02  0.86575436377E-01  0.15680264876E+02  0.00000000000E+00 0. -1.
<mgrwt>
<rscale>  0 0.81354729E+02</rscale>
<asrwt>0</asrwt>
<pdfrwt beam="1">  1        1 0.92928795E-02 0.81354729E+02</pdfrwt>
<pdfrwt beam="2">  1       -2 0.42143305E-02 0.81354729E+02</pdfrwt>
<totfact> 0.12939061E+05</totfact>
</mgrwt>
</event>
<event>
 8    1  0.1319619E-020  0.8012026E+02  0.7818608E-02  0.1328711E+00
         -2   -1    0    0    0  501 -0.00000000000E+00  0.00000000000E+00  0.62210249583E+01  0.62210254809E+01  0.25500000000E-02 0.  1.
          1   -1    0    0  501    0  0.00000000000E+00 -0.00000000000E+00 -0.25796615552E+03  0.25796615557E+03  0.50400000000E-02 0. -1.
        -24    2    1    2    0    0 -0.22204460493E-15 -0.71054273576E-14 -0.25174513056E+03  0.26418718105E+03  0.80120258797E+02 0.  0.
         66    2    3    3    0    0 -0.19372140108E+01 -0.33604734883E+02 -0.54482104674E+02  0.64072854848E+02  0.19999985102E+01 0.  0.
         13    1    3    3    0    0  0.19372140108E+01  0.33604734883E+02 -0.19726302589E+03  0.20011432620E+03  0.10566000000E+00 0. -1.
         13    1    4    4    0    0 -0.82860959415E+00 -0.20266815732E+02 -0.31293787982E+02  0.37292663408E+02  0.10566000000E+00 0. -1.
        -13    1    4    4    0    0 -0.10299548675E+01 -0.13158082227E+02 -0.22900917610E+02  0.26432160833E+02  0.10566000000E+00 0.  1.
        -14    1    4    4    0    0 -0.78649549166E-01 -0.17983692447E+00 -0.28739908143E+00  0.34803060640E+00  0.00000000000E+00 0.  1.
<mgrwt>
<rscale>  0 0.80120259E+02</rscale>
<asrwt>0</asrwt>
<pdfrwt beam="1">  1        1 0.39687093E-01 0.80120259E+02</pdfrwt>
<pdfrwt beam="2">  1       -2 0.95708100E-03 0.80120259E+02</pdfrwt>
<totfact> 0.17452595E+05</totfact>
</mgrwt>
</event>
<event>
 8    1  0.1319619E-020  0.8098757E+02  0.7818608E-02  0.1326272E+00
         -2   -1    0    0    0  501 -0.00000000000E+00  0.00000000000E+00  0.75714542680E+01  0.75714546974E+01  0.25500000000E-02 0.  1.
          1   -1    0    0  501    0  0.00000000000E+00 -0.00000000000E+00 -0.21656957016E+03  0.21656957022E+03  0.50400000000E-02 0. -1.
        -24    2    1    2    0    0  0.00000000000E+00  0.00000000000E+00 -0.20899811589E+03  0.22414102491E+03  0.80987570675E+02 0.  0.
         66    2    3    3    0    0 -0.38052182114E+02 -0.13357557398E+02 -0.95239142186E+02  0.10344509223E+03  0.19999999118E+01 0.  0.
         13    1    3    3    0    0  0.38052182114E+02  0.13357557398E+02 -0.11375897370E+03  0.12069593268E+03  0.10566000000E+00 0. -1.
         13    1    4    4    0    0 -0.14222826032E+02 -0.53822107444E+01 -0.35773191137E+02  0.38871446346E+02  0.10566000000E+00 0.  1.
        -13    1    4    4    0    0 -0.10518072460E+01 -0.23373017588E+00 -0.32783810602E+01  0.34525171526E+01  0.10566000000E+00 0. -1.
        -14    1    4    4    0    0 -0.22777548836E+02 -0.77416164780E+01 -0.56187569989E+02  0.61121128735E+02  0.00000000000E+00 0.  1.
<mgrwt>
<rscale>  0 0.80987571E+02</rscale>
<asrwt>0</asrwt>
<pdfrwt beam="1">  1        1 0.33318391E-01 0.80987571E+02</pdfrwt>
<pdfrwt beam="2">  1       -2 0.11648393E-02 0.80987571E+02</pdfrwt>
<totfact> 0.16391956E+05</totfact>
</mgrwt>
</event>
<event>
 8    1  0.1319619E-020  0.8166471E+02  0.7818608E-02  0.1324393E+00
         -2   -1    0    0    0  501 -0.00000000000E+00  0.00000000000E+00  0.43272942006E+02  0.43272942081E+02  0.25500000000E-02 0.  1.
          1   -1    0    0  501    0  0.00000000000E+00 -0.00000000000E+00 -0.38529418280E+02  0.38529418610E+02  0.50400000000E-02 0. -1.
        -24    2    1    2    0    0  0.35527136788E-14  0.00000000000E+00  0.47435237260E+01  0.81802360691E+02  0.81664712069E+02 0.  0.
         66    2    3    3    0    0  0.31292393896E+02 -0.21115374944E+02  0.17897798475E+02  0.41825879068E+02  0.19999986907E+01 0.  0.
         13    1    3    3    0    0 -0.31292393896E+02  0.21115374944E+02 -0.13154274749E+02  0.39976481623E+02  0.10566000000E+00 0. -1.
         13    1    4    4    0    0  0.10908055047E+02 -0.80447759926E+01  0.60213061402E+01  0.14831432074E+02  0.10566000000E+00 0. -1.
        -13    1    4    4    0    0  0.32923861198E+01 -0.23230546196E+01  0.15700722361E+01  0.43258155288E+01  0.10566000000E+00 0.  1.
        -14    1    4    4    0    0  0.17091952729E+02 -0.10747544331E+02  0.10306420099E+02  0.22668631465E+02  0.00000000000E+00 0.  1.
<mgrwt>
<rscale>  0 0.81664712E+02</rscale>
<asrwt>0</asrwt>
<pdfrwt beam="1">  1        1 0.59276029E-02 0.81664712E+02</pdfrwt>
<pdfrwt beam="2">  1       -2 0.66573757E-02 0.81664712E+02</pdfrwt>
<totfact> 0.11905599E+05</totfact>
</mgrwt>
</event>
<event>
 8    1  0.1319619E-020  0.7905843E+02  0.7818608E-02  0.1331745E+00
          1   -1    0    0  501    0  0.00000000000E+00  0.00000000000E+00  0.22329966800E+02  0.22329967368E+02  0.50400000000E-02 0. -1.
         -2   -1    0    0    0  501 -0.00000000000E+00 -0.00000000000E+00 -0.69975870462E+02  0.69975870508E+02  0.25500000000E-02 0.  1.
        -24    2    1    2    0    0  0.35527136788E-14 -0.17763568394E-14 -0.47645903662E+02  0.92305837877E+02  0.79058431368E+02 0.  0.
         66    2    3    3    0    0 -0.24248280900E+02  0.15272856492E+02 -0.55584639857E+02  0.62569093461E+02  0.19999991313E+01 0.  0.
         13    1    3    3    0    0  0.24248280900E+02 -0.15272856492E+02  0.79387361945E+01  0.29736744415E+02  0.10566000000E+00 0. -1.
         13    1    4    4    0    0 -0.63563664693E+00  0.72381406711E+00 -0.15806652077E+01  0.18540785542E+01  0.10566000000E+00 0. -1.
        -13    1    4    4    0    0 -0.11875978107E+02  0.70226440432E+01 -0.26188274260E+02  0.29600561787E+02  0.10566000000E+00 0.  1.
         14    1    4    4    0    0 -0.11736666146E+02  0.75263983822E+01 -0.27815700389E+02  0.31114453120E+02  0.00000000000E+00 0. -1.
<mgrwt>
<rscale>  0 0.79058431E+02</rscale>
<asrwt>0</asrwt>
<pdfrwt beam="1">  1        1 0.34353796E-02 0.79058431E+02</pdfrwt>
<pdfrwt beam="2">  1       -2 0.10765518E-01 0.79058431E+02</pdfrwt>
<totfact> 0.11842724E+05</totfact>
</mgrwt>
</event>
<event>
 8    1  0.1319619E-020  0.8071168E+02  0.7818608E-02  0.1327044E+00
          1   -1    0    0  501    0  0.00000000000E+00  0.00000000000E+00  0.14487176707E+02  0.14487177584E+02  0.50400000000E-02 0. -1.
         -2   -1    0    0    0  501 -0.00000000000E+00 -0.00000000000E+00 -0.11241623393E+03  0.11241623396E+03  0.25500000000E-02 0.  1.
        -24    2    1    2    0    0  0.00000000000E+00 -0.88817841970E-15 -0.97929057222E+02  0.12690341154E+03  0.80711682008E+02 0.  0.
         66    2    3    3    0    0  0.10450452460E+02  0.51882352639E+01 -0.10969566371E+03  0.11033253546E+03  0.20000005817E+01 0.  0.
         13    1    3    3    0    0 -0.10450452460E+02 -0.51882352639E+01  0.11766606490E+02  0.16570876081E+02  0.10566000000E+00 0. -1.
         13    1    4    4    0    0  0.42616305698E+01  0.20194245850E+01 -0.41441385872E+02  0.41708982220E+02  0.10566000000E+00 0. -1.
        -13    1    4    4    0    0  0.29539292705E+01  0.14641892224E+01 -0.25342975359E+02  0.25556742991E+02  0.10566000000E+00 0.  1.
        -14    1    4    4    0    0  0.32348926195E+01  0.17046214565E+01 -0.42911302481E+02  0.43066810250E+02  0.00000000000E+00 0.  1.
<mgrwt>
<rscale>  0 0.80711682E+02</rscale>
<asrwt>0</asrwt>
<pdfrwt beam="1">  1        1 0.22287966E-02 0.80711682E+02</pdfrwt>
<pdfrwt beam="2">  1       -2 0.17294805E-01 0.80711682E+02</pdfrwt>
<totfact> 0.10065840E+05</totfact>
</mgrwt>
</event>
<event>
 8    1  0.1319619E-020  0.8589855E+02  0.7818608E-02  0.1313099E+00
         -2   -1    0    0    0  501 -0.00000000000E+00  0.00000000000E+00  0.35999824059E+03  0.35999824060E+03  0.25500000000E-02 0.  1.
          1   -1    0    0  501    0  0.00000000000E+00 -0.00000000000E+00 -0.51240248380E+01  0.51240273166E+01  0.50400000000E-02 0. -1.
        -24    2    1    2    0    0  0.00000000000E+00  0.71054273576E-14  0.35487421575E+03  0.36512226791E+03  0.85898553668E+02 0.  0.
         66    2    3    3    0    0 -0.69438273577E+01 -0.34343995507E+02  0.28293718751E+03  0.28510555740E+03  0.20000043158E+01 0.  0.
         13    1    3    3    0    0  0.69438273577E+01  0.34343995507E+02  0.71937028242E+02  0.80016710518E+02  0.10566000000E+00 0. -1.
         13    1    4    4    0    0 -0.38392524832E+01 -0.14630055938E+02  0.11922391953E+03  0.12017958457E+03  0.10566000000E+00 0. -1.
        -13    1    4    4    0    0 -0.18569839557E+01 -0.12136215469E+02  0.10265083514E+03  0.10338249965E+03  0.10566000000E+00 0.  1.
         14    1    4    4    0    0 -0.12475909188E+01 -0.75777241004E+01  0.61062432838E+02  0.61543473170E+02  0.00000000000E+00 0. -1.
<mgrwt>
<rscale>  0 0.85898554E+02</rscale>
<asrwt>0</asrwt>
<pdfrwt beam="1">  1        1 0.78831169E-03 0.85898554E+02</pdfrwt>
<pdfrwt beam="2">  1       -2 0.55384346E-01 0.85898554E+02</pdfrwt>
<totfact> 0.52574154E+04</totfact>
</mgrwt>
</event>
<event>
 8    1  0.1319619E-020  0.7698006E+02  0.7818608E-02  0.1337847E+00
         -2   -1    0    0    0  501 -0.00000000000E+00  0.00000000000E+00  0.72567466014E+01  0.72567470494E+01  0.25500000000E-02 0.  1.
          1   -1    0    0  501    0  0.00000000000E+00 -0.00000000000E+00 -0.20415241016E+03  0.20415241022E+03  0.50400000000E-02 0. -1.
        -24    2    1    2    0    0  0.00000000000E+00  0.00000000000E+00 -0.19689566356E+03  0.21140915727E+03  0.76980058783E+02 0.  0.
         66    2    3    3    0    0  0.36789647561E+01 -0.38272206354E+02 -0.10149845012E+03  0.10855520228E+03  0.20000013017E+01 0.  0.
         13    1    3    3    0    0 -0.36789647561E+01  0.38272206354E+02 -0.95397213445E+02  0.10285395499E+03  0.10566000000E+00 0. -1.
         13    1    4    4    0    0  0.23168432743E+01 -0.21198825541E+02 -0.53716466677E+02  0.57794704977E+02  0.10566000000E+00 0. -1.
        -13    1    4    4    0    0  0.24078379077E+00 -0.33137263514E+01 -0.89191823709E+01  0.95184944905E+01  0.10566000000E+00 0.  1.
         14    1    4    4    0    0  0.11213376911E+01 -0.13759654461E+02 -0.38862801068E+02  0.41242002812E+02  0.00000000000E+00 0. -1.
<mgrwt>
<rscale>  0 0.76980059E+02</rscale>
<asrwt>0</asrwt>
<pdfrwt beam="1">  1        1 0.31408059E-01 0.76980059E+02</pdfrwt>
<pdfrwt beam="2">  1       -2 0.11164227E-02 0.76980059E+02</pdfrwt>
<totfact> 0.18536556E+05</totfact>
</mgrwt>
</event>
<event>
 8    1  0.1319619E-020  0.7827491E+02  0.7818608E-02  0.1334020E+00
          1   -1    0    0  501    0  0.00000000000E+00  0.00000000000E+00  0.10386267075E+03  0.10386267087E+03  0.50400000000E-02 0. -1.
         -2   -1    0    0    0  501 -0.00000000000E+00 -0.00000000000E+00 -0.14747745759E+02  0.14747745980E+02  0.25500000000E-02 0.  1.
        -24    2    1    2    0    0  0.35527136788E-14 -0.35527136788E-14  0.89114924989E+02  0.11861041685E+03  0.78274907407E+02 0.  0.
         66    2    3    3    0    0  0.19431587340E+02 -0.20596612892E+02  0.37033000302E+01  0.28627285702E+02  0.20000015888E+01 0.  0.
         13    1    3    3    0    0 -0.19431587340E+02  0.20596612892E+02  0.85411624959E+02  0.89983131148E+02  0.10566000000E+00 0. -1.
         13    1    4    4    0    0  0.38390412087E+01 -0.33283136582E+01  0.60352022667E+00  0.51177446116E+01  0.10566000000E+00 0.  1.
        -13    1    4    4    0    0  0.13654194033E+02 -0.14930614335E+02  0.22597704129E+01  0.20358732413E+02  0.10566000000E+00 0.  1.
        -14    1    4    4    0    0  0.19383520981E+01 -0.23376848987E+01  0.84000939059E+00  0.31508086768E+01  0.00000000000E+00 0.  1.
<mgrwt>
<rscale>  0 0.78274907E+02</rscale>
<asrwt>0</asrwt>
<pdfrwt beam="1">  1        1 0.15978872E-01 0.78274907E+02</pdfrwt>
<pdfrwt beam="2">  1       -2 0.22688841E-02 0.78274907E+02</pdfrwt>
<totfact> 0.15688860E+05</totfact>
</mgrwt>
</event>
<event>
 8    1  0.1319619E-020  0.8596324E+02  0.7818608E-02  0.1312933E+00
         -2   -1    0    0    0  501 -0.00000000000E+00  0.00000000000E+00  0.16387337143E+02  0.16387337341E+02  0.25500000000E-02 0.  1.
          1   -1    0    0  501    0  0.00000000000E+00 -0.00000000000E+00 -0.11273459431E+03  0.11273459442E+03  0.50400000000E-02 0. -1.
        -24    2    1    2    0    0  0.00000000000E+00  0.00000000000E+00 -0.96347257168E+02  0.12912193176E+03  0.85963243882E+02 0.  0.
         66    2    3    3    0    0  0.21940051459E+02 -0.28047214944E+02 -0.12106330605E+02  0.37663979697E+02  0.20000004391E+01 0.  0.
         13    1    3    3    0    0 -0.21940051459E+02  0.28047214944E+02 -0.84240926563E+02  0.91457952068E+02  0.10566000000E+00 0. -1.
         13    1    4    4    0    0  0.12760271413E+02 -0.15486814677E+02 -0.61223033741E+01  0.20979983747E+02  0.10566000000E+00 0. -1.
        -13    1    4    4    0    0  0.32907257474E+01 -0.44689747013E+01 -0.17802808849E+01  0.58293374315E+01  0.10566000000E+00 0.  1.
         14    1    4    4    0    0  0.58890542988E+01 -0.80914255654E+01 -0.42037463458E+01  0.10854658519E+02  0.00000000000E+00 0. -1.
<mgrwt>
<rscale>  0 0.85963244E+02</rscale>
<asrwt>0</asrwt>
<pdfrwt beam="1">  1        1 0.17343783E-01 0.85963244E+02</pdfrwt>
<pdfrwt beam="2">  1       -2 0.25211289E-02 0.85963244E+02</pdfrwt>
<totfact> 0.12350878E+05</totfact>
</mgrwt>
</event>
<event>
 8    1  0.1319619E-020  0.8075632E+02  0.7818608E-02  0.1326919E+00
          1   -1    0    0  501    0  0.00000000000E+00  0.00000000000E+00  0.31113683462E+02  0.31113683870E+02  0.50400000000E-02 0. -1.
         -2   -1    0    0    0  501 -0.00000000000E+00 -0.00000000000E+00 -0.52401241107E+02  0.52401241169E+02  0.25500000000E-02 0.  1.
        -24    2    1    2    0    0  0.00000000000E+00  0.00000000000E+00 -0.21287557645E+02  0.83514925039E+02  0.80756316123E+02 0.  0.
         66    2    3    3    0    0 -0.33368639103E+02 -0.12076798359E+02 -0.30517880823E+02  0.46847157665E+02  0.19999992891E+01 0.  0.
         13    1    3    3    0    0  0.33368639103E+02  0.12076798359E+02  0.92303231782E+01  0.36667767374E+02  0.10566000000E+00 0. -1.
         13    1    4    4    0    0 -0.66969497671E+01 -0.30357480708E+01 -0.60763781161E+01  0.95393101206E+01  0.10566000000E+00 0. -1.
        -13    1    4    4    0    0 -0.17362404981E+02 -0.64596321681E+01 -0.16187969255E+02  0.24601655780E+02  0.10566000000E+00 0.  1.
         14    1    4    4    0    0 -0.93092843550E+01 -0.25814181197E+01 -0.82535334523E+01  0.12706191765E+02  0.00000000000E+00 0. -1.
<mgrwt>
<rscale>  0 0.80756316E+02</rscale>
<asrwt>0</asrwt>
<pdfrwt beam="1">  1        1 0.47867206E-02 0.80756316E+02</pdfrwt>
<pdfrwt beam="2">  1       -2 0.80617294E-02 0.80756316E+02</pdfrwt>
<totfact> 0.11848366E+05</totfact>
</mgrwt>
</event>
<event>
 8    1  0.1319619E-020  0.7875632E+02  0.7818608E-02  0.1332618E+00
         -2   -1    0    0    0  501 -0.00000000000E+00  0.00000000000E+00  0.12936494580E+03  0.12936494582E+03  0.25500000000E-02 0.  1.
          1   -1    0    0  501    0  0.00000000000E+00 -0.00000000000E+00 -0.11986550437E+02  0.11986551497E+02  0.50400000000E-02 0. -1.
        -24    2    1    2    0    0 -0.17763568394E-14  0.71054273576E-14  0.11737839536E+03  0.14135149732E+03  0.78756320997E+02 0.  0.
         66    2    3    3    0    0 -0.14203184614E+02  0.32819234915E+02  0.88207622939E+02  0.95201982032E+02  0.20000011568E+01 0.  0.
         13    1    3    3    0    0  0.14203184614E+02 -0.32819234915E+02  0.29170772420E+02  0.46149515287E+02  0.10566000000E+00 0. -1.
         13    1    4    4    0    0 -0.15238057848E+01  0.40634698149E+01  0.93410903742E+01  0.10300529327E+02  0.10566000000E+00 0. -1.
        -13    1    4    4    0    0 -0.12466441180E+02  0.28005992495E+02  0.76729652704E+02  0.82626863304E+02  0.10566000000E+00 0.  1.
         14    1    4    4    0    0 -0.21293764925E+00  0.74977260516E+00  0.21368798609E+01  0.22745894007E+01  0.00000000000E+00 0. -1.
<mgrwt>
<rscale>  0 0.78756321E+02</rscale>
<asrwt>0</asrwt>
<pdfrwt beam="1">  1        1 0.18440847E-02 0.78756321E+02</pdfrwt>
<pdfrwt beam="2">  1       -2 0.19902300E-01 0.78756321E+02</pdfrwt>
<totfact> 0.10304110E+05</totfact>
</mgrwt>
</event>
<event>
 8    1  0.1319619E-020  0.7845681E+02  0.7818608E-02  0.1333489E+00
         -2   -1    0    0    0  501 -0.00000000000E+00  0.00000000000E+00  0.16381095102E+03  0.16381095104E+03  0.25500000000E-02 0.  1.
          1   -1    0    0  501    0  0.00000000000E+00 -0.00000000000E+00 -0.93941693314E+01  0.93941706834E+01  0.50400000000E-02 0. -1.
        -24    2    1    2    0    0  0.00000000000E+00  0.00000000000E+00  0.15441678169E+03  0.17320512172E+03  0.78456814389E+02 0.  0.
         66    2    3    3    0    0  0.24691376884E+02 -0.50316065095E+01  0.14355710284E+03  0.14576564386E+03  0.19999996887E+01 0.  0.
         13    1    3    3    0    0 -0.24691376884E+02  0.50316065095E+01  0.10859678850E+02  0.27439477860E+02  0.10566000000E+00 0. -1.
         13    1    4    4    0    0  0.62241131465E+00 -0.33968317216E+00  0.43289509810E+01  0.43879107937E+01  0.10566000000E+00 0.  1.
        -13    1    4    4    0    0  0.13023809218E+02 -0.21520326392E+01  0.78117088057E+02  0.79224626610E+02  0.10566000000E+00 0.  1.
        -14    1    4    4    0    0  0.11045156351E+02 -0.25398906981E+01  0.61111063803E+02  0.62153106460E+02  0.00000000000E+00 0.  1.
<mgrwt>
<rscale>  0 0.78456814E+02</rscale>
<asrwt>0</asrwt>
<pdfrwt beam="1">  1        1 0.14452569E-02 0.78456814E+02</pdfrwt>
<pdfrwt beam="2">  1       -2 0.25201686E-01 0.78456814E+02</pdfrwt>
<totfact> 0.96445957E+04</totfact>
</mgrwt>
</event>
<event>
 8    1  0.1319619E-020  0.8135899E+02  0.7818608E-02  0.1325238E+00
          1   -1    0    0  501    0  0.00000000000E+00  0.00000000000E+00  0.67112774841E+02  0.67112775030E+02  0.50400000000E-02 0. -1.
         -2   -1    0    0    0  501 -0.00000000000E+00 -0.00000000000E+00 -0.24657321662E+02  0.24657321794E+02  0.25500000000E-02 0.  1.
        -24    2    1    2    0    0 -0.35527136788E-14  0.44408920985E-15  0.42455453179E+02  0.91770096824E+02  0.81358989464E+02 0.  0.
         66    2    3    3    0    0  0.21743102827E+02 -0.26595620272E+01 -0.17390934537E+02  0.28040691701E+02  0.19999990730E+01 0.  0.
         13    1    3    3    0    0 -0.21743102827E+02  0.26595620272E+01  0.59846387715E+02  0.63729405123E+02  0.10566000000E+00 0. -1.
         13    1    4    4    0    0  0.32863720229E+01  0.17278984122E+00 -0.22047809434E+01  0.39626153543E+01  0.10566000000E+00 0. -1.
        -13    1    4    4    0    0  0.13148589638E+02 -0.22291312363E+01 -0.10560160080E+02  0.17011248646E+02  0.10566000000E+00 0.  1.
        -14    1    4    4    0    0  0.53081411660E+01 -0.60322063208E+00 -0.46259935137E+01  0.70668277012E+01  0.00000000000E+00 0.  1.
<mgrwt>
<rscale>  0 0.81358989E+02</rscale>
<asrwt>0</asrwt>
<pdfrwt beam="1">  1        1 0.10325042E-01 0.81358989E+02</pdfrwt>
<pdfrwt beam="2">  1       -2 0.37934341E-02 0.81358989E+02</pdfrwt>
<totfact> 0.13155764E+05</totfact>
</mgrwt>
</event>
<event>
 8    1  0.1319619E-020  0.7869375E+02  0.7818608E-02  0.1332800E+00
         -2   -1    0    0    0  501 -0.00000000000E+00  0.00000000000E+00  0.19970466054E+03  0.19970466055E+03  0.25500000000E-02 0.  1.
          1   -1    0    0  501    0  0.00000000000E+00 -0.00000000000E+00 -0.77523290185E+01  0.77523306568E+01  0.50400000000E-02 0. -1.
        -24    2    1    2    0    0  0.11102230246E-15  0.00000000000E+00  0.19195233152E+03  0.20745699121E+03  0.78693745791E+02 0.  0.
         66    2    3    3    0    0  0.82987477074E+00  0.27388944099E+02  0.17038458952E+03  0.17258548981E+03  0.19999990149E+01 0.  0.
         13    1    3    3    0    0 -0.82987477074E+00 -0.27388944099E+02  0.21567742000E+02  0.34871501402E+02  0.10566000000E+00 0. -1.
         13    1    4    4    0    0 -0.28606585530E-01  0.14006723147E+02  0.83410631650E+02  0.84578565535E+02  0.10566000000E+00 0. -1.
        -13    1    4    4    0    0  0.39699608582E+00  0.87797344148E+01  0.54160145406E+02  0.54868696511E+02  0.10566000000E+00 0.  1.
         14    1    4    4    0    0  0.46148527045E+00  0.46024865375E+01  0.32813812463E+02  0.33138227764E+02  0.00000000000E+00 0. -1.
<mgrwt>
<rscale>  0 0.78693746E+02</rscale>
<asrwt>0</asrwt>
<pdfrwt beam="1">  1        1 0.11926662E-02 0.78693746E+02</pdfrwt>
<pdfrwt beam="2">  1       -2 0.30723792E-01 0.78693746E+02</pdfrwt>
<totfact> 0.88818042E+04</totfact>
</mgrwt>
</event>
<event>
 8    1  0.1319619E-020  0.7925444E+02  0.7818608E-02  0.1331181E+00
          1   -1    0    0  501    0  0.00000000000E+00  0.00000000000E+00  0.33735744057E+01  0.33735781705E+01  0.50400000000E-02 0. -1.
         -2   -1    0    0    0  501 -0.00000000000E+00 -0.00000000000E+00 -0.46547534185E+03  0.46547534186E+03  0.25500000000E-02 0.  1.
        -24    2    1    2    0    0  0.00000000000E+00  0.00000000000E+00 -0.46210176745E+03  0.46884892003E+03  0.79254440481E+02 0.  0.
         66    2    3    3    0    0 -0.35201407158E+01  0.20864642314E+02 -0.42922811466E+03  0.42975399835E+03  0.19999986026E+01 0.  0.
         13    1    3    3    0    0  0.35201407158E+01 -0.20864642314E+02 -0.32873652788E+02  0.39094921680E+02  0.10566000000E+00 0. -1.
         13    1    4    4    0    0 -0.15080739747E+01  0.63616912131E+01 -0.12567171703E+03  0.12584171418E+03  0.10566000000E+00 0. -1.
        -13    1    4    4    0    0 -0.10575605246E+01  0.10651931678E+02 -0.21240817016E+03  0.21267774683E+03  0.10566000000E+00 0.  1.
        -14    1    4    4    0    0 -0.95450621650E+00  0.38510194228E+01 -0.91148227471E+02  0.91234537341E+02  0.00000000000E+00 0.  1.
<mgrwt>
<rscale>  0 0.79254440E+02</rscale>
<asrwt>0</asrwt>
<pdfrwt beam="1">  1        1 0.51901211E-03 0.79254440E+02</pdfrwt>
<pdfrwt beam="2">  1       -2 0.71611540E-01 0.79254440E+02</pdfrwt>
<totfact> 0.54466401E+04</totfact>
</mgrwt>
</event>
<event>
 8    1  0.1319619E-020  0.7986562E+02  0.7818608E-02  0.1329433E+00
         -2   -1    0    0    0  501 -0.00000000000E+00  0.00000000000E+00  0.21911231319E+03  0.21911231321E+03  0.25500000000E-02 0.  1.
          1   -1    0    0  501    0  0.00000000000E+00 -0.00000000000E+00 -0.72776796032E+01  0.72776813484E+01  0.50400000000E-02 0. -1.
        -24    2    1    2    0    0  0.27755575616E-16  0.35527136788E-14  0.21183463359E+03  0.22638999456E+03  0.79865622436E+02 0.  0.
         66    2    3    3    0    0  0.10925517225E+00 -0.18787594081E+02  0.20578685999E+03  0.20665240713E+03  0.19999996774E+01 0.  0.
         13    1    3    3    0    0 -0.10925517225E+00  0.18787594081E+02  0.60477736016E+01  0.19737587431E+02  0.10566000000E+00 0. -1.
         13    1    4    4    0    0 -0.16169376762E+00 -0.96538591086E+01  0.11107300561E+03  0.11149191396E+03  0.10566000000E+00 0. -1.
        -13    1    4    4    0    0 -0.19818777262E-01 -0.61574923097E+01  0.68639213199E+02  0.68914932032E+02  0.10566000000E+00 0.  1.
        -14    1    4    4    0    0  0.29076771713E+00 -0.29762426624E+01  0.26074641184E+02  0.26245561132E+02  0.00000000000E+00 0.  1.
<mgrwt>
<rscale>  0 0.79865622E+02</rscale>
<asrwt>0</asrwt>
<pdfrwt beam="1">  1        1 0.11196431E-02 0.79865622E+02</pdfrwt>
<pdfrwt beam="2">  1       -2 0.33709587E-01 0.79865622E+02</pdfrwt>
<totfact> 0.82237340E+04</totfact>
</mgrwt>
</event>
<event>
 8    1  0.1319619E-020  0.8138943E+02  0.7818608E-02  0.1325154E+00
          1   -1    0    0  501    0  0.00000000000E+00  0.00000000000E+00  0.77118822455E+01  0.77118838924E+01  0.50400000000E-02 0. -1.
         -2   -1    0    0    0  501 -0.00000000000E+00 -0.00000000000E+00 -0.21474132751E+03  0.21474132753E+03  0.25500000000E-02 0.  1.
        -24    2    1    2    0    0  0.00000000000E+00 -0.71054273576E-14 -0.20702944527E+03  0.22245321142E+03  0.81389434595E+02 0.  0.
         66    2    3    3    0    0  0.19259979443E+02 -0.34782610309E+02 -0.12697394811E+03  0.13306825420E+03  0.19999973742E+01 0.  0.
         13    1    3    3    0    0 -0.19259979443E+02  0.34782610309E+02 -0.80055497164E+02  0.89384957226E+02  0.10566000000E+00 0. -1.
         13    1    4    4    0    0  0.94338124160E+01 -0.16138854749E+02 -0.57769385042E+02  0.60718798254E+02  0.10566000000E+00 0. -1.
        -13    1    4    4    0    0  0.95308708079E+01 -0.17623108712E+02 -0.65875214360E+02  0.68854676603E+02  0.10566000000E+00 0.  1.
        -14    1    4    4    0    0  0.29529621897E+00 -0.10206468476E+01 -0.33293487034E+01  0.34947793397E+01  0.00000000000E+00 0.  1.
<mgrwt>
<rscale>  0 0.81389435E+02</rscale>
<asrwt>0</asrwt>
<pdfrwt beam="1">  1        1 0.11864437E-02 0.81389435E+02</pdfrwt>
<pdfrwt beam="2">  1       -2 0.33037123E-01 0.81389435E+02</pdfrwt>
<totfact> 0.79002612E+04</totfact>
</mgrwt>
</event>
<event>
 8    1  0.1319619E-020  0.7880935E+02  0.7818608E-02  0.1332465E+00
         -2   -1    0    0    0  501 -0.00000000000E+00  0.00000000000E+00  0.13614924149E+02  0.13614924388E+02  0.25500000000E-02 0.  1.
          1   -1    0    0  501    0  0.00000000000E+00 -0.00000000000E+00 -0.11404605177E+03  0.11404605188E+03  0.50400000000E-02 0. -1.
        -24    2    1    2    0    0  0.17763568394E-14  0.00000000000E+00 -0.10043112762E+03  0.12766097627E+03  0.78809348853E+02 0.  0.
         66    2    3    3    0    0  0.86137165703E+01 -0.21408735069E+02  0.14408790490E+01  0.23207891310E+02  0.20000090497E+01 0.  0.
         13    1    3    3    0    0 -0.86137165703E+01  0.21408735069E+02 -0.10187200667E+03  0.10445308496E+03  0.10566000000E+00 0. -1.
         13    1    4    4    0    0  0.67038401455E+00 -0.10803547051E+01 -0.12710942608E+00  0.12821473619E+01  0.10566000000E+00 0. -1.
        -13    1    4    4    0    0  0.28052623282E+01 -0.63750876939E+01  0.10756253728E+01  0.70483596541E+01  0.10566000000E+00 0.  1.
         14    1    4    4    0    0  0.51380702275E+01 -0.13953292670E+02  0.49236310234E+00  0.14877384294E+02  0.00000000000E+00 0. -1.
<mgrwt>
<rscale>  0 0.78809349E+02</rscale>
<asrwt>0</asrwt>
<pdfrwt beam="1">  1        1 0.17545546E-01 0.78809349E+02</pdfrwt>
<pdfrwt beam="2">  1       -2 0.20946038E-02 0.78809349E+02</pdfrwt>
<totfact> 0.15651130E+05</totfact>
</mgrwt>
</event>
<event>
 8    1  0.1319619E-020  0.8314744E+02  0.7818608E-02  0.1320350E+00
         -2   -1    0    0    0  501 -0.00000000000E+00  0.00000000000E+00  0.10551541673E+04  0.10551541673E+04  0.25500000000E-02 0.  1.
          1   -1    0    0  501    0  0.00000000000E+00 -0.00000000000E+00 -0.16380261949E+01  0.16380339486E+01  0.50400000000E-02 0. -1.
        -24    2    1    2    0    0 -0.35527136788E-14 -0.17763568394E-14  0.10535161411E+04  0.10567922013E+04  0.83147441679E+02 0.  0.
         66    2    3    3    0    0  0.20459730021E+02  0.12364298557E+02  0.95899018169E+03  0.95929017769E+03  0.20000011051E+01 0.  0.
         13    1    3    3    0    0 -0.20459730021E+02 -0.12364298557E+02  0.94525959449E+02  0.97502023595E+02  0.10566000000E+00 0. -1.
         13    1    4    4    0    0  0.10422993668E+01  0.72767682445E+00  0.44982974351E+02  0.45001056066E+02  0.10566000000E+00 0. -1.
        -13    1    4    4    0    0  0.59253677330E+01  0.33433159909E+01  0.30650924530E+03  0.30658476212E+03  0.10566000000E+00 0.  1.
        -14    1    4    4    0    0  0.13492062921E+02  0.82933057418E+01  0.60749796204E+03  0.60770435951E+03  0.00000000000E+00 0.  1.
<mgrwt>
<rscale>  0 0.83147442E+02</rscale>
<asrwt>0</asrwt>
<pdfrwt beam="1">  1        1 0.25200531E-03 0.83147442E+02</pdfrwt>
<pdfrwt beam="2">  1       -2 0.16233097E+00 0.83147442E+02</pdfrwt>
<totfact> 0.22140109E+04</totfact>
</mgrwt>
</event>
<event>
 8    1  0.1319619E-020  0.8039520E+02  0.7818608E-02  0.1327934E+00
          1   -1    0    0  501    0  0.00000000000E+00  0.00000000000E+00  0.51633210962E+01  0.51633235560E+01  0.50400000000E-02 0. -1.
         -2   -1    0    0    0  501 -0.00000000000E+00 -0.00000000000E+00 -0.31294714919E+03  0.31294714921E+03  0.25500000000E-02 0.  1.
        -24    2    1    2    0    0  0.00000000000E+00 -0.35527136788E-14 -0.30778382810E+03  0.31811047276E+03  0.80395199118E+02 0.  0.
         66    2    3    3    0    0 -0.84573507102E+01  0.23246224136E+02 -0.27923355494E+03  0.28033425036E+03  0.20000003889E+01 0.  0.
         13    1    3    3    0    0  0.84573507102E+01 -0.23246224136E+02 -0.28550273160E+02  0.37776222405E+02  0.10566000000E+00 0. -1.
         13    1    4    4    0    0 -0.16810127990E+01  0.43662519787E+01 -0.48977521671E+02  0.49200597084E+02  0.10566000000E+00 0. -1.
        -13    1    4    4    0    0 -0.60696183831E+01  0.16512044504E+02 -0.20722392710E+03  0.20796936075E+03  0.10566000000E+00 0.  1.
        -14    1    4    4    0    0 -0.70671952816E+00  0.23679276539E+01 -0.23032106164E+02  0.23164292525E+02  0.00000000000E+00 0.  1.
<mgrwt>
<rscale>  0 0.80395199E+02</rscale>
<asrwt>0</asrwt>
<pdfrwt beam="1">  1        1 0.79435753E-03 0.80395199E+02</pdfrwt>
<pdfrwt beam="2">  1       -2 0.48145701E-01 0.80395199E+02</pdfrwt>
<totfact> 0.67780864E+04</totfact>
</mgrwt>
</event>
<event>
 8    1  0.1319619E-020  0.7961029E+02  0.7818608E-02  0.1330161E+00
          1   -1    0    0  501    0  0.00000000000E+00  0.00000000000E+00  0.15755035399E+02  0.15755036205E+02  0.50400000000E-02 0. -1.
         -2   -1    0    0    0  501 -0.00000000000E+00 -0.00000000000E+00 -0.10056781439E+03  0.10056781442E+03  0.25500000000E-02 0.  1.
        -24    2    1    2    0    0  0.00000000000E+00  0.00000000000E+00 -0.84812778990E+02  0.11632285063E+03  0.79610288893E+02 0.  0.
         66    2    3    3    0    0 -0.33906711659E+02  0.20731995960E+01 -0.72678649538E+02  0.80250541111E+02  0.19999994914E+01 0.  0.
         13    1    3    3    0    0  0.33906711659E+02 -0.20731995960E+01 -0.12134129452E+02  0.36072309514E+02  0.10566000000E+00 0. -1.
         13    1    4    4    0    0 -0.15794535563E+01  0.46840293756E+00 -0.35380432129E+01  0.39042270247E+01  0.10566000000E+00 0. -1.
        -13    1    4    4    0    0 -0.73594594258E+01  0.63392326101E+00 -0.15285306681E+02  0.16976903903E+02  0.10566000000E+00 0.  1.
        -14    1    4    4    0    0 -0.24967798677E+02  0.97087339738E+00 -0.53855299643E+02  0.59369410184E+02  0.00000000000E+00 0.  1.
<mgrwt>
<rscale>  0 0.79610289E+02</rscale>
<asrwt>0</asrwt>
<pdfrwt beam="1">  1        1 0.24238517E-02 0.79610289E+02</pdfrwt>
<pdfrwt beam="2">  1       -2 0.15471971E-01 0.79610289E+02</pdfrwt>
<totfact> 0.10731133E+05</totfact>
</mgrwt>
</event>
<event>
 8    1  0.1319619E-020  0.7957019E+02  0.7818608E-02  0.1330276E+00
          1   -1    0    0  501    0  0.00000000000E+00  0.00000000000E+00  0.30098636879E+02  0.30098637301E+02  0.50400000000E-02 0. -1.
         -2   -1    0    0    0  501 -0.00000000000E+00 -0.00000000000E+00 -0.52588879092E+02  0.52588879154E+02  0.25500000000E-02 0.  1.
        -24    2    1    2    0    0  0.35527136788E-14 -0.71054273576E-14 -0.22490242213E+02  0.82687516455E+02  0.79570185263E+02 0.  0.
         66    2    3    3    0    0 -0.18373979188E+02  0.33496704491E+02  0.18895601001E+00  0.38257914622E+02  0.20000009701E+01 0.  0.
         13    1    3    3    0    0  0.18373979188E+02 -0.33496704491E+02 -0.22679198223E+02  0.44429601833E+02  0.10566000000E+00 0. -1.
         13    1    4    4    0    0 -0.73312976827E+01  0.12252088883E+02 -0.71511484294E+00  0.14296298856E+02  0.10566000000E+00 0. -1.
        -13    1    4    4    0    0 -0.74606885114E+01  0.14150566417E+02  0.65348276323E+00  0.16010577964E+02  0.10566000000E+00 0.  1.
         14    1    4    4    0    0 -0.35819929942E+01  0.70940491912E+01  0.25058808972E+00  0.79510378020E+01  0.00000000000E+00 0. -1.
<mgrwt>
<rscale>  0 0.79570185E+02</rscale>
<asrwt>0</asrwt>
<pdfrwt beam="1">  1        1 0.46305596E-02 0.79570185E+02</pdfrwt>
<pdfrwt beam="2">  1       -2 0.80905968E-02 0.79570185E+02</pdfrwt>
<totfact> 0.12290514E+05</totfact>
</mgrwt>
</event>
<event>
 8    1  0.1319619E-020  0.8000536E+02  0.7818608E-02  0.1329036E+00
          1   -1    0    0  501    0  0.00000000000E+00  0.00000000000E+00  0.50216982357E+01  0.50217007649E+01  0.50400000000E-02 0. -1.
         -2   -1    0    0    0  501 -0.00000000000E+00 -0.00000000000E+00 -0.31865991110E+03  0.31865991111E+03  0.25500000000E-02 0.  1.
        -24    2    1    2    0    0  0.00000000000E+00  0.00000000000E+00 -0.31363821287E+03  0.32368161188E+03  0.80005357930E+02 0.  0.
         66    2    3    3    0    0  0.29149654675E+02  0.26346805688E+02 -0.18674386236E+03  0.19084319917E+03  0.20000001291E+01 0.  0.
         13    1    3    3    0    0 -0.29149654675E+02 -0.26346805688E+02 -0.12689435051E+03  0.13283841271E+03  0.10566000000E+00 0. -1.
         13    1    4    4    0    0  0.13389651670E+02  0.13019336896E+02 -0.87147319051E+02  0.89126047185E+02  0.10566000000E+00 0. -1.
        -13    1    4    4    0    0  0.49725384529E+01  0.47791306721E+01 -0.33489560779E+02  0.34192514880E+02  0.10566000000E+00 0.  1.
        -14    1    4    4    0    0  0.10787464552E+02  0.85483381197E+01 -0.66106982532E+02  0.67524637101E+02  0.00000000000E+00 0.  1.
<mgrwt>
<rscale>  0 0.80005358E+02</rscale>
<asrwt>0</asrwt>
<pdfrwt beam="1">  1        1 0.77256941E-03 0.80005358E+02</pdfrwt>
<pdfrwt beam="2">  1       -2 0.49024586E-01 0.80005358E+02</pdfrwt>
<totfact> 0.67941027E+04</totfact>
</mgrwt>
</event>
<event>
 8    1  0.1319619E-020  0.7839382E+02  0.7818608E-02  0.1333672E+00
         -2   -1    0    0    0  501 -0.00000000000E+00  0.00000000000E+00  0.10223502841E+03  0.10223502844E+03  0.25500000000E-02 0.  1.
          1   -1    0    0  501    0  0.00000000000E+00 -0.00000000000E+00 -0.15028093289E+02  0.15028094134E+02  0.50400000000E-02 0. -1.
        -24    2    1    2    0    0  0.35527136788E-14  0.00000000000E+00  0.87206935119E+02  0.11726312257E+03  0.78393815973E+02 0.  0.
         66    2    3    3    0    0  0.25931589135E+02  0.24582526911E+02  0.67641664148E+02  0.76525438095E+02  0.20000006566E+01 0.  0.
         13    1    3    3    0    0 -0.25931589135E+02 -0.24582526911E+02  0.19565270972E+02  0.40737684478E+02  0.10566000000E+00 0. -1.
         13    1    4    4    0    0  0.91892214419E+01  0.88979737789E+01  0.25270072288E+02  0.28323196245E+02  0.10566000000E+00 0. -1.
        -13    1    4    4    0    0  0.72917804891E+01  0.77271169763E+01  0.19820156156E+02  0.22488400423E+02  0.10566000000E+00 0.  1.
        -14    1    4    4    0    0  0.94505872045E+01  0.79574361554E+01  0.22551435703E+02  0.25713841427E+02  0.00000000000E+00 0.  1.
<mgrwt>
<rscale>  0 0.78393816E+02</rscale>
<asrwt>0</asrwt>
<pdfrwt beam="1">  1        1 0.23120144E-02 0.78393816E+02</pdfrwt>
<pdfrwt beam="2">  1       -2 0.15728466E-01 0.78393816E+02</pdfrwt>
<totfact> 0.11116610E+05</totfact>
</mgrwt>
</event>
<event>
 8    1  0.1319619E-020  0.8001641E+02  0.7818608E-02  0.1329005E+00
         -2   -1    0    0    0  501 -0.00000000000E+00  0.00000000000E+00  0.50424017170E+01  0.50424023618E+01  0.25500000000E-02 0.  1.
          1   -1    0    0  501    0  0.00000000000E+00 -0.00000000000E+00 -0.31743926499E+03  0.31743926503E+03  0.50400000000E-02 0. -1.
        -24    2    1    2    0    0 -0.71054273576E-14  0.35527136788E-14 -0.31239686328E+03  0.32248166740E+03  0.80016408449E+02 0.  0.
         66    2    3    3    0    0  0.25763974299E+02 -0.29462955010E+02 -0.12335562790E+03  0.12943129074E+03  0.19999996714E+01 0.  0.
         13    1    3    3    0    0 -0.25763974299E+02  0.29462955010E+02 -0.18904123538E+03  0.19305037666E+03  0.10566000000E+00 0. -1.
         13    1    4    4    0    0  0.89535326262E+01 -0.93441682584E+01 -0.38588742007E+02  0.40701122842E+02  0.10566000000E+00 0. -1.
        -13    1    4    4    0    0  0.12176048728E+02 -0.14664622382E+02 -0.60900084408E+02  0.63813311755E+02  0.10566000000E+00 0.  1.
         14    1    4    4    0    0  0.46343929442E+01 -0.54541643697E+01 -0.23866801481E+02  0.24916856139E+02  0.00000000000E+00 0. -1.
<mgrwt>
<rscale>  0 0.80016408E+02</rscale>
<asrwt>0</asrwt>
<pdfrwt beam="1">  1        1 0.48836795E-01 0.80016408E+02</pdfrwt>
<pdfrwt beam="2">  1       -2 0.77575441E-03 0.80016408E+02</pdfrwt>
<totfact> 0.18225088E+05</totfact>
</mgrwt>
</event>
<event>
 8    1  0.1538361E-020  0.7972192E+02  0.7818608E-02  0.1329842E+00
          1   -1    0    0  501    0  0.00000000000E+00  0.00000000000E+00  0.18578189978E+02  0.18578190662E+02  0.50400000000E-02 0. -1.
         -2   -1    0    0    0  501 -0.00000000000E+00 -0.00000000000E+00 -0.85524812891E+02  0.85524812929E+02  0.25500000000E-02 0.  1.
        -24    2    1    2    0    0  0.00000000000E+00  0.00000000000E+00 -0.66946622912E+02  0.10410300359E+03  0.79721923191E+02 0.  0.
         66    2    3    3    0    0 -0.93359980331E+01  0.92568347330E+01 -0.82598284986E+02  0.83661977729E+02  0.19999966063E+01 0.  0.
         13    1    3    3    0    0  0.93359980331E+01 -0.92568347330E+01  0.15651662074E+02  0.20441025861E+02  0.10566000000E+00 0. -1.
         13    1    4    4    0    0 -0.90273115116E+00  0.52707571362E+00 -0.48811334189E+01  0.49929309857E+01  0.10566000000E+00 0. -1.
        -13    1    4    4    0    0 -0.73168960563E+01  0.70889967742E+01 -0.62951966967E+02  0.63771091823E+02  0.10566000000E+00 0.  1.
        -14    1    4    4    0    0 -0.11163708257E+01  0.16407622452E+01 -0.14765184600E+02  0.14897954921E+02  0.00000000000E+00 0.  1.
<mgrwt>
<rscale>  0 0.79721923E+02</rscale>
<asrwt>0</asrwt>
<pdfrwt beam="1">  1        1 0.28581832E-02 0.79721923E+02</pdfrwt>
<pdfrwt beam="2">  1       -2 0.13157663E-01 0.79721923E+02</pdfrwt>
<totfact> 0.11110955E+05</totfact>
</mgrwt>
</event>
<event>
 8    1  0.1319619E-020  0.7729848E+02  0.7818608E-02  0.1336898E+00
         -2   -1    0    0    0  501 -0.00000000000E+00  0.00000000000E+00  0.99391261918E+02  0.99391261950E+02  0.25500000000E-02 0.  1.
          1   -1    0    0  501    0  0.00000000000E+00 -0.00000000000E+00 -0.15029124754E+02  0.15029125599E+02  0.50400000000E-02 0. -1.
        -24    2    1    2    0    0  0.00000000000E+00  0.00000000000E+00  0.84362137164E+02  0.11442038755E+03  0.77298479287E+02 0.  0.
         66    2    3    3    0    0 -0.18534715302E+02 -0.28976858683E+02  0.68211162022E+02  0.76419608972E+02  0.20000001381E+01 0.  0.
         13    1    3    3    0    0  0.18534715302E+02  0.28976858683E+02  0.16150975141E+02  0.38000778578E+02  0.10566000000E+00 0. -1.
         13    1    4    4    0    0 -0.57399097594E+01 -0.76302702732E+01  0.19672408570E+02  0.21867382365E+02  0.10566000000E+00 0. -1.
        -13    1    4    4    0    0 -0.57658930328E+01 -0.94685059965E+01  0.22394647938E+02  0.24988588367E+02  0.10566000000E+00 0.  1.
         14    1    4    4    0    0 -0.70289125098E+01 -0.11878082413E+02  0.26144105514E+02  0.29563638240E+02  0.00000000000E+00 0. -1.
<mgrwt>
<rscale>  0 0.77298479E+02</rscale>
<asrwt>0</asrwt>
<pdfrwt beam="1">  1        1 0.23121731E-02 0.77298479E+02</pdfrwt>
<pdfrwt beam="2">  1       -2 0.15290963E-01 0.77298479E+02</pdfrwt>
<totfact> 0.11604896E+05</totfact>
</mgrwt>
</event>
<event>
 8    1  0.1319619E-020  0.8090955E+02  0.7818608E-02  0.1326490E+00
          1   -1    0    0  501    0  0.00000000000E+00  0.00000000000E+00  0.17631375230E+03  0.17631375237E+03  0.50400000000E-02 0. -1.
         -2   -1    0    0    0  501 -0.00000000000E+00 -0.00000000000E+00 -0.92822531876E+01  0.92822535378E+01  0.25500000000E-02 0.  1.
        -24    2    1    2    0    0 -0.35527136788E-14  0.00000000000E+00  0.16703149911E+03  0.18559600591E+03  0.80909552675E+02 0.  0.
         66    2    3    3    0    0  0.28168860089E+02  0.83909449673E+01  0.19885757206E+02  0.35543437916E+02  0.20000007810E+01 0.  0.
         13    1    3    3    0    0 -0.28168860089E+02 -0.83909449673E+01  0.14714574191E+03  0.15005256800E+03  0.10566000000E+00 0. -1.
         13    1    4    4    0    0  0.98467315283E+01  0.31211067257E+01  0.61967733248E+01  0.12046185814E+02  0.10566000000E+00 0. -1.
        -13    1    4    4    0    0  0.11371329398E+02  0.27135543228E+01  0.82676297682E+01  0.14319056371E+02  0.10566000000E+00 0.  1.
         14    1    4    4    0    0  0.69507991627E+01  0.25562839188E+01  0.54213541126E+01  0.91781957316E+01  0.00000000000E+00 0. -1.
<mgrwt>
<rscale>  0 0.80909553E+02</rscale>
<asrwt>0</asrwt>
<pdfrwt beam="1">  1        1 0.27125191E-01 0.80909553E+02</pdfrwt>
<pdfrwt beam="2">  1       -2 0.14280391E-02 0.80909553E+02</pdfrwt>
<totfact> 0.15791072E+05</totfact>
</mgrwt>
</event>
<event>
 8    1  0.1319619E-020  0.7845456E+02  0.7818608E-02  0.1333495E+00
         -2   -1    0    0    0  501 -0.00000000000E+00  0.00000000000E+00  0.26277937904E+02  0.26277938028E+02  0.25500000000E-02 0.  1.
          1   -1    0    0  501    0  0.00000000000E+00 -0.00000000000E+00 -0.58557851896E+02  0.58557852113E+02  0.50400000000E-02 0. -1.
        -24    2    1    2    0    0  0.00000000000E+00  0.00000000000E+00 -0.32279913992E+02  0.84835790141E+02  0.78454562910E+02 0.  0.
         66    2    3    3    0    0  0.19236637651E+02 -0.57354281401E+01  0.20260794579E+02  0.28590962954E+02  0.20000004099E+01 0.  0.
         13    1    3    3    0    0 -0.19236637651E+02  0.57354281401E+01 -0.52540708571E+02  0.56244827186E+02  0.10566000000E+00 0. -1.
         13    1    4    4    0    0  0.98324223248E+01 -0.31515084026E+01  0.11113236785E+02  0.15169829592E+02  0.10566000000E+00 0.  1.
        -13    1    4    4    0    0  0.85559264739E+01 -0.26484052463E+01  0.81489099621E+01  0.12109245467E+02  0.10566000000E+00 0. -1.
        -14    1    4    4    0    0  0.84828885202E+00  0.64485508832E-01  0.99864783164E+00  0.13118878950E+01  0.00000000000E+00 0.  1.
<mgrwt>
<rscale>  0 0.78454563E+02</rscale>
<asrwt>0</asrwt>
<pdfrwt beam="1">  1        1 0.90089003E-02 0.78454563E+02</pdfrwt>
<pdfrwt beam="2">  1       -2 0.40427597E-02 0.78454563E+02</pdfrwt>
<totfact> 0.14231719E+05</totfact>
</mgrwt>
</event>
<event>
 8    1  0.1319619E-020  0.8008856E+02  0.7818608E-02  0.1328800E+00
          1   -1    0    0  501    0  0.00000000000E+00  0.00000000000E+00  0.22719665745E+03  0.22719665751E+03  0.50400000000E-02 0. -1.
         -2   -1    0    0    0  501 -0.00000000000E+00 -0.00000000000E+00 -0.70579573722E+01  0.70579578328E+01  0.25500000000E-02 0.  1.
        -24    2    1    2    0    0  0.00000000000E+00  0.17763568394E-14  0.22013870008E+03  0.23425461534E+03  0.80088560579E+02 0.  0.
         66    2    3    3    0    0 -0.33921150828E+02  0.13882577648E+02  0.63140847042E+02  0.73035176506E+02  0.20000016019E+01 0.  0.
         13    1    3    3    0    0  0.33921150828E+02 -0.13882577648E+02  0.15699785304E+03  0.16121943883E+03  0.10566000000E+00 0. -1.
         13    1    4    4    0    0 -0.19560456059E+01  0.10431573250E+01  0.40768838532E+01  0.46418140425E+01  0.10566000000E+00 0. -1.
        -13    1    4    4    0    0 -0.11957583211E+02  0.56198454512E+01  0.22490828769E+02  0.26084765706E+02  0.10566000000E+00 0.  1.
        -14    1    4    4    0    0 -0.20007522011E+02  0.72195748722E+01  0.36573134420E+02  0.42308596758E+02  0.00000000000E+00 0.  1.
<mgrwt>
<rscale>  0 0.80088561E+02</rscale>
<asrwt>0</asrwt>
<pdfrwt beam="1">  1        1 0.34953326E-01 0.80088561E+02</pdfrwt>
<pdfrwt beam="2">  1       -2 0.10858398E-02 0.80088561E+02</pdfrwt>
<totfact> 0.17043301E+05</totfact>
</mgrwt>
</event>
<event>
 8    1  0.1319619E-020  0.7882673E+02  0.7818608E-02  0.1332414E+00
          1   -1    0    0  501    0  0.00000000000E+00  0.00000000000E+00  0.18842344398E+03  0.18842344404E+03  0.50400000000E-02 0. -1.
         -2   -1    0    0    0  501 -0.00000000000E+00 -0.00000000000E+00 -0.82442676913E+01  0.82442680857E+01  0.25500000000E-02 0.  1.
        -24    2    1    2    0    0  0.88817841970E-15  0.00000000000E+00  0.18017917629E+03  0.19666771213E+03  0.78826730412E+02 0.  0.
         66    2    3    3    0    0 -0.60218728144E+01 -0.32711474230E+02  0.37510466743E+02  0.50173086478E+02  0.19999982232E+01 0.  0.
         13    1    3    3    0    0  0.60218728144E+01  0.32711474230E+02  0.14266870954E+03  0.14649462565E+03  0.10566000000E+00 0. -1.
         13    1    4    4    0    0 -0.84813076935E+00 -0.49146976234E+01  0.57582752532E+01  0.76185613116E+01  0.10566000000E+00 0. -1.
        -13    1    4    4    0    0 -0.49293284856E+01 -0.26107410786E+02  0.30420766025E+02  0.40389718331E+02  0.10566000000E+00 0.  1.
         14    1    4    4    0    0 -0.24441355948E+00 -0.16893658210E+01  0.13314254653E+01  0.21648068355E+01  0.00000000000E+00 0. -1.
<mgrwt>
<rscale>  0 0.78826730E+02</rscale>
<asrwt>0</asrwt>
<pdfrwt beam="1">  1        1 0.28988219E-01 0.78826730E+02</pdfrwt>
<pdfrwt beam="2">  1       -2 0.12683490E-02 0.78826730E+02</pdfrwt>
<totfact> 0.17142332E+05</totfact>
</mgrwt>
</event>
<event>
 8    1  0.1319619E-020  0.7983000E+02  0.7818608E-02  0.1329535E+00
          1   -1    0    0  501    0  0.00000000000E+00  0.00000000000E+00  0.28365468431E+01  0.28365513207E+01  0.50400000000E-02 0. -1.
         -2   -1    0    0    0  501 -0.00000000000E+00 -0.00000000000E+00 -0.56167093259E+03  0.56167093259E+03  0.25500000000E-02 0.  1.
        -24    2    1    2    0    0 -0.71054273576E-14  0.88817841970E-15 -0.55883438575E+03  0.56450748391E+03  0.79829998776E+02 0.  0.
         66    2    3    3    0    0  0.34031198615E+02 -0.69559482513E+01 -0.41828733249E+03  0.41973181939E+03  0.19999983287E+01 0.  0.
         13    1    3    3    0    0 -0.34031198615E+02  0.69559482513E+01 -0.14054705326E+03  0.14477566453E+03  0.10566000000E+00 0. -1.
         13    1    4    4    0    0  0.38765981329E+01 -0.44166615995E+00 -0.42166892281E+02  0.42347149264E+02  0.10566000000E+00 0. -1.
        -13    1    4    4    0    0  0.29781553725E+02 -0.65080576139E+01 -0.37235322165E+03  0.37359902113E+03  0.10566000000E+00 0.  1.
        -14    1    4    4    0    0  0.37304675688E+00 -0.62244774016E-02 -0.37672185577E+01  0.37856489917E+01  0.00000000000E+00 0.  1.
<mgrwt>
<rscale>  0 0.79829999E+02</rscale>
<asrwt>0</asrwt>
<pdfrwt beam="1">  1        1 0.43639261E-03 0.79829999E+02</pdfrwt>
<pdfrwt beam="2">  1       -2 0.86410825E-01 0.79829999E+02</pdfrwt>
<totfact> 0.46193736E+04</totfact>
</mgrwt>
</event>
<event>
 8    1  0.1319619E-020  0.7891923E+02  0.7818608E-02  0.1332147E+00
         -2   -1    0    0    0  501 -0.00000000000E+00  0.00000000000E+00  0.58251072584E+03  0.58251072585E+03  0.25500000000E-02 0.  1.
          1   -1    0    0  501    0  0.00000000000E+00 -0.00000000000E+00 -0.26730147468E+01  0.26730194983E+01  0.50400000000E-02 0. -1.
        -24    2    1    2    0    0  0.00000000000E+00  0.00000000000E+00  0.57983771109E+03  0.58518374535E+03  0.78919228385E+02 0.  0.
         66    2    3    3    0    0 -0.11725624350E+02  0.61083212702E+01  0.56558384222E+03  0.56574188851E+03  0.19999956792E+01 0.  0.
         13    1    3    3    0    0  0.11725624350E+02 -0.61083212702E+01  0.14253868873E+02  0.19441856831E+02  0.10566000000E+00 0. -1.
         13    1    4    4    0    0 -0.10782220605E+01  0.85356042345E+00  0.47352860091E+02  0.47372942183E+02  0.10566000000E+00 0. -1.
        -13    1    4    4    0    0 -0.74116050027E+01  0.43559995198E+01  0.37781788364E+03  0.37791569295E+03  0.10566000000E+00 0.  1.
        -14    1    4    4    0    0 -0.32357972870E+01  0.89876132699E+00  0.14041309849E+03  0.14045325338E+03  0.00000000000E+00 0.  1.
<mgrwt>
<rscale>  0 0.78919228E+02</rscale>
<asrwt>0</asrwt>
<pdfrwt beam="1">  1        1 0.41123309E-03 0.78919228E+02</pdfrwt>
<pdfrwt beam="2">  1       -2 0.89617103E-01 0.78919228E+02</pdfrwt>
<totfact> 0.46163473E+04</totfact>
</mgrwt>
</event>
<event>
 8    1  0.1319619E-020  0.7927296E+02  0.7818608E-02  0.1331127E+00
         -2   -1    0    0    0  501 -0.00000000000E+00  0.00000000000E+00  0.26234873547E+02  0.26234873671E+02  0.25500000000E-02 0.  1.
          1   -1    0    0  501    0  0.00000000000E+00 -0.00000000000E+00 -0.59884048678E+02  0.59884048890E+02  0.50400000000E-02 0. -1.
        -24    2    1    2    0    0  0.00000000000E+00  0.35527136788E-14 -0.33649175131E+02  0.86118922561E+02  0.79272957785E+02 0.  0.
         66    2    3    3    0    0  0.36987836513E+01 -0.26610968895E+02  0.14785459500E+02  0.30731652707E+02  0.19999998691E+01 0.  0.
         13    1    3    3    0    0 -0.36987836513E+01  0.26610968895E+02 -0.48434634631E+02  0.55387269854E+02  0.10566000000E+00 0. -1.
         13    1    4    4    0    0  0.19642776787E+00 -0.21033787602E+01  0.86538296846E+00  0.22853528818E+01  0.10566000000E+00 0. -1.
        -13    1    4    4    0    0  0.24882545530E+01 -0.11997597936E+02  0.66432603563E+01  0.13938358553E+02  0.10566000000E+00 0.  1.
        -14    1    4    4    0    0  0.10141013304E+01 -0.12509992198E+02  0.72768161748E+01  0.14507941272E+02  0.00000000000E+00 0.  1.
<mgrwt>
<rscale>  0 0.79272958E+02</rscale>
<asrwt>0</asrwt>
<pdfrwt beam="1">  1        1 0.92129306E-02 0.79272958E+02</pdfrwt>
<pdfrwt beam="2">  1       -2 0.40361344E-02 0.79272958E+02</pdfrwt>
<totfact> 0.13879052E+05</totfact>
</mgrwt>
</event>
<event>
 8    1  0.1319619E-020  0.8019717E+02  0.7818608E-02  0.1328493E+00
         -2   -1    0    0    0  501 -0.00000000000E+00  0.00000000000E+00  0.13772106721E+02  0.13772106957E+02  0.25500000000E-02 0.  1.
          1   -1    0    0  501    0  0.00000000000E+00 -0.00000000000E+00 -0.11675020885E+03  0.11675020896E+03  0.50400000000E-02 0. -1.
        -24    2    1    2    0    0  0.00000000000E+00  0.17763568394E-14 -0.10297810213E+03  0.13052231591E+03  0.80197165998E+02 0.  0.
         66    2    3    3    0    0  0.18642508765E+02 -0.11796556359E+02  0.29264683537E+01  0.22344263207E+02  0.20000015569E+01 0.  0.
         13    1    3    3    0    0 -0.18642508765E+02  0.11796556359E+02 -0.10590457048E+03  0.10817805271E+03  0.10566000000E+00 0. -1.
         13    1    4    4    0    0  0.70150695721E+01 -0.45128048051E+01  0.30345906333E+00  0.83474463011E+01  0.10566000000E+00 0. -1.
        -13    1    4    4    0    0  0.17066981181E+01 -0.14064734298E+01  0.30227483626E+00  0.22346185552E+01  0.10566000000E+00 0.  1.
         14    1    4    4    0    0  0.99207410750E+01 -0.58772781240E+01  0.23207344542E+01  0.11762198350E+02  0.00000000000E+00 0. -1.
<mgrwt>
<rscale>  0 0.80197166E+02</rscale>
<asrwt>0</asrwt>
<pdfrwt beam="1">  1        1 0.17961570E-01 0.80197166E+02</pdfrwt>
<pdfrwt beam="2">  1       -2 0.21187857E-02 0.80197166E+02</pdfrwt>
<totfact> 0.14994209E+05</totfact>
</mgrwt>
</event>
<event>
 8    1  0.1319619E-020  0.7649070E+02  0.7818608E-02  0.1339316E+00
         -2   -1    0    0    0  501 -0.00000000000E+00  0.00000000000E+00  0.40497820971E+02  0.40497821052E+02  0.25500000000E-02 0.  1.
          1   -1    0    0  501    0  0.00000000000E+00 -0.00000000000E+00 -0.36118155716E+02  0.36118156067E+02  0.50400000000E-02 0. -1.
        -24    2    1    2    0    0  0.00000000000E+00  0.88817841970E-15  0.43796652558E+01  0.76615977119E+02  0.76490695396E+02 0.  0.
         66    2    3    3    0    0  0.19469677469E+02 -0.64096593769E+01  0.34501710941E+02  0.40181091716E+02  0.19999998878E+01 0.  0.
         13    1    3    3    0    0 -0.19469677469E+02  0.64096593769E+01 -0.30122045685E+02  0.36434885403E+02  0.10566000000E+00 0. -1.
         13    1    4    4    0    0  0.32802458414E+01 -0.89695154191E+00  0.64157591621E+01  0.72620702633E+01  0.10566000000E+00 0. -1.
        -13    1    4    4    0    0  0.12240670143E+02 -0.46151983745E+01  0.20467839409E+02  0.24291514479E+02  0.10566000000E+00 0.  1.
        -14    1    4    4    0    0  0.39487614844E+01 -0.89750946050E+00  0.76181123701E+01  0.86275069734E+01  0.00000000000E+00 0.  1.
<mgrwt>
<rscale>  0 0.76490695E+02</rscale>
<asrwt>0</asrwt>
<pdfrwt beam="1">  1        1 0.55566394E-02 0.76490695E+02</pdfrwt>
<pdfrwt beam="2">  1       -2 0.62304340E-02 0.76490695E+02</pdfrwt>
<totfact> 0.14172225E+05</totfact>
</mgrwt>
</event>
<event>
 8    1  0.1319619E-020  0.7943941E+02  0.7818608E-02  0.1330650E+00
         -2   -1    0    0    0  501 -0.00000000000E+00  0.00000000000E+00  0.10946454279E+03  0.10946454282E+03  0.25500000000E-02 0.  1.
          1   -1    0    0  501    0  0.00000000000E+00 -0.00000000000E+00 -0.14412475532E+02  0.14412476413E+02  0.50400000000E-02 0. -1.
        -24    2    1    2    0    0  0.00000000000E+00 -0.35527136788E-14  0.95052067259E+02  0.12387701923E+03  0.79439413416E+02 0.  0.
         66    2    3    3    0    0  0.16966592201E+02  0.25785383767E+02  0.86475237291E+02  0.91840720394E+02  0.19999977662E+01 0.  0.
         13    1    3    3    0    0 -0.16966592201E+02 -0.25785383767E+02  0.85768299673E+01  0.32036298838E+02  0.10566000000E+00 0. -1.
         13    1    4    4    0    0  0.51616467386E+01  0.79731855218E+01  0.27152306677E+02  0.28765834011E+02  0.10566000000E+00 0.  1.
        -13    1    4    4    0    0  0.61039222913E+01  0.95614525321E+01  0.29188622326E+02  0.31315588437E+02  0.10566000000E+00 0.  1.
        -14    1    4    4    0    0  0.57010231716E+01  0.82507457130E+01  0.30134308289E+02  0.31759297947E+02  0.00000000000E+00 0.  1.
<mgrwt>
<rscale>  0 0.79439413E+02</rscale>
<asrwt>0</asrwt>
<pdfrwt beam="1">  1        1 0.22173040E-02 0.79439413E+02</pdfrwt>
<pdfrwt beam="2">  1       -2 0.16840699E-01 0.79439413E+02</pdfrwt>
<totfact> 0.10558772E+05</totfact>
</mgrwt>
</event>
<event>
 8    1  0.1319619E-020  0.8008283E+02  0.7818608E-02  0.1328817E+00
         -2   -1    0    0    0  501 -0.00000000000E+00  0.00000000000E+00  0.29823530947E+02  0.29823531056E+02  0.25500000000E-02 0.  1.
          1   -1    0    0  501    0  0.00000000000E+00 -0.00000000000E+00 -0.53760063082E+02  0.53760063319E+02  0.50400000000E-02 0. -1.
        -24    2    1    2    0    0  0.00000000000E+00  0.00000000000E+00 -0.23936532135E+02  0.83583594375E+02  0.80082830107E+02 0.  0.
         66    2    3    3    0    0  0.11755417565E+02 -0.18193714020E+01  0.27901962356E+02  0.30397688070E+02  0.19999955650E+01 0.  0.
         13    1    3    3    0    0 -0.11755417565E+02  0.18193714020E+01 -0.51838494491E+02  0.53185906305E+02  0.10566000000E+00 0. -1.
         13    1    4    4    0    0  0.13083346643E+01 -0.12402675056E+00  0.26156355812E+01  0.29291356674E+01  0.10566000000E+00 0. -1.
        -13    1    4    4    0    0  0.61636857526E+01 -0.97216325529E+00  0.17061012930E+02  0.18166602590E+02  0.10566000000E+00 0.  1.
        -14    1    4    4    0    0  0.42833971480E+01 -0.72318139611E+00  0.82253138447E+01  0.93019498119E+01  0.00000000000E+00 0.  1.
<mgrwt>
<rscale>  0 0.80082830E+02</rscale>
<asrwt>0</asrwt>
<pdfrwt beam="1">  1        1 0.82707790E-02 0.80082830E+02</pdfrwt>
<pdfrwt beam="2">  1       -2 0.45882356E-02 0.80082830E+02</pdfrwt>
<totfact> 0.13269568E+05</totfact>
</mgrwt>
</event>
<event>
 8    1  0.1319619E-020  0.7916005E+02  0.7818608E-02  0.1331452E+00
          1   -1    0    0  501    0  0.00000000000E+00  0.00000000000E+00  0.27366200166E+03  0.27366200170E+03  0.50400000000E-02 0. -1.
         -2   -1    0    0    0  501 -0.00000000000E+00 -0.00000000000E+00 -0.57245012890E+01  0.57245018570E+01  0.25500000000E-02 0.  1.
        -24    2    1    2    0    0  0.00000000000E+00 -0.35527136788E-14  0.26793750037E+03  0.27938650356E+03  0.79160054751E+02 0.  0.
         66    2    3    3    0    0 -0.12021679366E+02 -0.19049630098E+02  0.24880876197E+03  0.24983436357E+03  0.20000004178E+01 0.  0.
         13    1    3    3    0    0  0.12021679366E+02  0.19049630098E+02  0.19128738393E+02  0.29552139993E+02  0.10566000000E+00 0. -1.
         13    1    4    4    0    0 -0.32609809604E+00 -0.59149009797E+00  0.69159742585E+01  0.69496808908E+01  0.10566000000E+00 0.  1.
        -13    1    4    4    0    0 -0.94277460645E+01 -0.13406339031E+02  0.17977728056E+03  0.18052283538E+03  0.10566000000E+00 0.  1.
        -14    1    4    4    0    0 -0.22678352058E+01 -0.50518009690E+01  0.62115507151E+02  0.62361847296E+02  0.00000000000E+00 0.  1.
<mgrwt>
<rscale>  0 0.79160055E+02</rscale>
<asrwt>0</asrwt>
<pdfrwt beam="1">  1        1 0.42101840E-01 0.79160055E+02</pdfrwt>
<pdfrwt beam="2">  1       -2 0.88069270E-03 0.79160055E+02</pdfrwt>
<totfact> 0.18225774E+05</totfact>
</mgrwt>
</event>
<event>
 8    1  0.1319619E-020  0.8776387E+02  0.7818608E-02  0.1308359E+00
          1   -1    0    0  501    0  0.00000000000E+00  0.00000000000E+00  0.75445672490E+02  0.75445672658E+02  0.50400000000E-02 0. -1.
         -2   -1    0    0    0  501 -0.00000000000E+00 -0.00000000000E+00 -0.25523321158E+02  0.25523321285E+02  0.25500000000E-02 0.  1.
        -24    2    1    2    0    0  0.00000000000E+00  0.00000000000E+00  0.49922351332E+02  0.10096899394E+03  0.87763868280E+02 0.  0.
         66    2    3    3    0    0 -0.39687368927E+02 -0.11239587543E+02  0.78247498605E+01  0.42031443993E+02  0.19999983099E+01 0.  0.
         13    1    3    3    0    0  0.39687368927E+02  0.11239587543E+02  0.42097601471E+02  0.58937549951E+02  0.10566000000E+00 0. -1.
         13    1    4    4    0    0 -0.22998154759E+02 -0.59955317580E+01  0.43149294250E+01  0.24155564646E+02  0.10566000000E+00 0. -1.
        -13    1    4    4    0    0 -0.15704331100E+02 -0.46582208921E+01  0.32327647922E+01  0.16696914967E+02  0.10566000000E+00 0.  1.
         14    1    4    4    0    0 -0.98488306870E+00 -0.58583489311E+00  0.27705564331E+00  0.11789643805E+01  0.00000000000E+00 0. -1.
<mgrwt>
<rscale>  0 0.87763868E+02</rscale>
<asrwt>0</asrwt>
<pdfrwt beam="1">  1        1 0.11607026E-01 0.87763868E+02</pdfrwt>
<pdfrwt beam="2">  1       -2 0.39266649E-02 0.87763868E+02</pdfrwt>
<totfact> 0.10881760E+05</totfact>
</mgrwt>
</event>
<event>
 8    1  0.1319619E-020  0.8046771E+02  0.7818608E-02  0.1327729E+00
         -2   -1    0    0    0  501 -0.00000000000E+00  0.00000000000E+00  0.30825393225E+02  0.30825393330E+02  0.25500000000E-02 0.  1.
          1   -1    0    0  501    0  0.00000000000E+00 -0.00000000000E+00 -0.52513950946E+02  0.52513951188E+02  0.50400000000E-02 0. -1.
        -24    2    1    2    0    0  0.00000000000E+00 -0.17763568394E-14 -0.21688557721E+02  0.83339344518E+02  0.80467712833E+02 0.  0.
         66    2    3    3    0    0 -0.22922162989E+02 -0.89160531145E+01  0.22093594826E+02  0.33121722064E+02  0.19999952257E+01 0.  0.
         13    1    3    3    0    0  0.22922162989E+02  0.89160531145E+01 -0.43782152547E+02  0.50217622454E+02  0.10566000000E+00 0. -1.
         13    1    4    4    0    0 -0.23822162630E+01 -0.13301592292E+01  0.25307118100E+01  0.37228945996E+01  0.10566000000E+00 0. -1.
        -13    1    4    4    0    0 -0.10527858474E+02 -0.36871176236E+01  0.10907830062E+02  0.15602005035E+02  0.10566000000E+00 0.  1.
         14    1    4    4    0    0 -0.10012088251E+02 -0.38987762617E+01  0.86550529539E+01  0.13796822429E+02  0.00000000000E+00 0. -1.
<mgrwt>
<rscale>  0 0.80467713E+02</rscale>
<asrwt>0</asrwt>
<pdfrwt beam="1">  1        1 0.80790694E-02 0.80467713E+02</pdfrwt>
<pdfrwt beam="2">  1       -2 0.47423682E-02 0.80467713E+02</pdfrwt>
<totfact> 0.13046019E+05</totfact>
</mgrwt>
</event>
<event>
 8    1  0.1319619E-020  0.8030827E+02  0.7818608E-02  0.1328179E+00
          1   -1    0    0  501    0  0.00000000000E+00  0.00000000000E+00  0.24635369980E+03  0.24635369985E+03  0.50400000000E-02 0. -1.
         -2   -1    0    0    0  501 -0.00000000000E+00 -0.00000000000E+00 -0.65448760803E+01  0.65448765770E+01  0.25500000000E-02 0.  1.
        -24    2    1    2    0    0  0.00000000000E+00  0.00000000000E+00  0.23980882372E+03  0.25289857643E+03  0.80308268725E+02 0.  0.
         66    2    3    3    0    0 -0.26267603000E+02 -0.26111726753E+02  0.71341545527E+02  0.80407868774E+02  0.20000003154E+01 0.  0.
         13    1    3    3    0    0  0.26267603000E+02  0.26111726753E+02  0.16846727819E+03  0.17249070765E+03  0.10566000000E+00 0. -1.
         13    1    4    4    0    0 -0.17541691752E+02 -0.16848746029E+02  0.48388145733E+02  0.54157317177E+02  0.10566000000E+00 0. -1.
        -13    1    4    4    0    0 -0.21513736900E+01 -0.23570514857E+01  0.61954692528E+01  0.69698711436E+01  0.10566000000E+00 0.  1.
        -14    1    4    4    0    0 -0.65745375576E+01 -0.69059292380E+01  0.16757930542E+02  0.19280680454E+02  0.00000000000E+00 0.  1.
<mgrwt>
<rscale>  0 0.80308269E+02</rscale>
<asrwt>0</asrwt>
<pdfrwt beam="1">  1        1 0.37900565E-01 0.80308269E+02</pdfrwt>
<pdfrwt beam="2">  1       -2 0.10069042E-02 0.80308269E+02</pdfrwt>
<totfact> 0.17189724E+05</totfact>
</mgrwt>
</event>
<event>
 8    1  0.1319619E-020  0.8005417E+02  0.7818608E-02  0.1328898E+00
         -2   -1    0    0    0  501 -0.00000000000E+00  0.00000000000E+00  0.29758738485E+02  0.29758738594E+02  0.25500000000E-02 0.  1.
          1   -1    0    0  501    0  0.00000000000E+00 -0.00000000000E+00 -0.53838556410E+02  0.53838556646E+02  0.50400000000E-02 0. -1.
        -24    2    1    2    0    0  0.35527136788E-14 -0.17763568394E-14 -0.24079817925E+02  0.83597295240E+02  0.80054170036E+02 0.  0.
         66    2    3    3    0    0  0.16162358783E+02 -0.87603354347E+01  0.25052424228E+02  0.31138228327E+02  0.19999963322E+01 0.  0.
         13    1    3    3    0    0 -0.16162358783E+02  0.87603354347E+01 -0.49132242153E+02  0.52459066913E+02  0.10566000000E+00 0. -1.
         13    1    4    4    0    0  0.11477066235E+01 -0.35905097524E+00  0.16735797310E+01  0.20635361029E+01  0.10566000000E+00 0. -1.
        -13    1    4    4    0    0  0.10135338788E+02 -0.59255520454E+01  0.17151316216E+02  0.20784996304E+02  0.10566000000E+00 0.  1.
        -14    1    4    4    0    0  0.48793133720E+01 -0.24757324141E+01  0.62275282807E+01  0.82896959205E+01  0.00000000000E+00 0.  1.
<mgrwt>
<rscale>  0 0.80054170E+02</rscale>
<asrwt>0</asrwt>
<pdfrwt beam="1">  1        1 0.82828549E-02 0.80054170E+02</pdfrwt>
<pdfrwt beam="2">  1       -2 0.45782675E-02 0.80054170E+02</pdfrwt>
<totfact> 0.13285779E+05</totfact>
</mgrwt>
</event>
<event>
 8    1  0.1319619E-020  0.7961321E+02  0.7818608E-02  0.1330153E+00
          1   -1    0    0  501    0  0.00000000000E+00  0.00000000000E+00  0.27485667626E+03  0.27485667631E+03  0.50400000000E-02 0. -1.
         -2   -1    0    0    0  501 -0.00000000000E+00 -0.00000000000E+00 -0.57650623332E+01  0.57650628971E+01  0.25500000000E-02 0.  1.
        -24    2    1    2    0    0  0.00000000000E+00  0.00000000000E+00  0.26909161393E+03  0.28062173920E+03  0.79613213902E+02 0.  0.
         66    2    3    3    0    0 -0.37606126403E+02 -0.15037206917E+01  0.89205617526E+02  0.96840715199E+02  0.20000007644E+01 0.  0.
         13    1    3    3    0    0  0.37606126403E+02  0.15037206917E+01  0.17988599640E+03  0.18378102401E+03  0.10566000000E+00 0. -1.
         13    1    4    4    0    0 -0.10327249550E+02 -0.11340909202E+01  0.25225544760E+02  0.27281450071E+02  0.10566000000E+00 0. -1.
        -13    1    4    4    0    0 -0.21068436102E+02 -0.35348873542E-01  0.50063048428E+02  0.54315745703E+02  0.10566000000E+00 0.  1.
         14    1    4    4    0    0 -0.62104407519E+01 -0.33428089796E+00  0.13917024338E+02  0.15243519425E+02  0.00000000000E+00 0. -1.
<mgrwt>
<rscale>  0 0.79613214E+02</rscale>
<asrwt>0</asrwt>
<pdfrwt beam="1">  1        1 0.42285637E-01 0.79613214E+02</pdfrwt>
<pdfrwt beam="2">  1       -2 0.88693283E-03 0.79613214E+02</pdfrwt>
<totfact> 0.17968578E+05</totfact>
</mgrwt>
</event>
<event>
 8    1  0.1319619E-020  0.8175026E+02  0.7818608E-02  0.1324157E+00
         -2   -1    0    0    0  501 -0.00000000000E+00  0.00000000000E+00  0.10047227873E+03  0.10047227876E+03  0.25500000000E-02 0.  1.
          1   -1    0    0  501    0  0.00000000000E+00 -0.00000000000E+00 -0.16629223883E+02  0.16629224647E+02  0.50400000000E-02 0. -1.
        -24    2    1    2    0    0  0.27755575616E-15 -0.71054273576E-14  0.83843054847E+02  0.11710150341E+03  0.81750255379E+02 0.  0.
         66    2    3    3    0    0  0.49216449779E+00 -0.40434384847E+02  0.50248384764E+02  0.64529697982E+02  0.20000116192E+01 0.  0.
         13    1    3    3    0    0 -0.49216449779E+00  0.40434384847E+02  0.33594670084E+02  0.52571805427E+02  0.10566000000E+00 0. -1.
         13    1    4    4    0    0 -0.73710747713E+00 -0.13668063467E+02  0.17338910144E+02  0.22090908885E+02  0.10566000000E+00 0. -1.
        -13    1    4    4    0    0  0.54430333901E+00 -0.14212865496E+02  0.17504993294E+02  0.22555215938E+02  0.10566000000E+00 0.  1.
         14    1    4    4    0    0  0.68496863591E+00 -0.12553455883E+02  0.15404481326E+02  0.19883573159E+02  0.00000000000E+00 0. -1.
<mgrwt>
<rscale>  0 0.81750255E+02</rscale>
<asrwt>0</asrwt>
<pdfrwt beam="1">  1        1 0.25583422E-02 0.81750255E+02</pdfrwt>
<pdfrwt beam="2">  1       -2 0.15457274E-01 0.81750255E+02</pdfrwt>
<totfact> 0.10028853E+05</totfact>
</mgrwt>
</event>
<event>
 8    1  0.1319619E-020  0.7928521E+02  0.7818608E-02  0.1331092E+00
         -2   -1    0    0    0  501 -0.00000000000E+00  0.00000000000E+00  0.18375042649E+02  0.18375042826E+02  0.25500000000E-02 0.  1.
          1   -1    0    0  501    0  0.00000000000E+00 -0.00000000000E+00 -0.85525571942E+02  0.85525572091E+02  0.50400000000E-02 0. -1.
        -24    2    1    2    0    0 -0.17763568394E-14  0.00000000000E+00 -0.67150529293E+02  0.10390061492E+03  0.79285207925E+02 0.  0.
         66    2    3    3    0    0  0.14259629541E+02 -0.35802644157E+02 -0.21559897659E+02  0.44204021880E+02  0.20000000043E+01 0.  0.
         13    1    3    3    0    0 -0.14259629541E+02  0.35802644157E+02 -0.45590631634E+02  0.59696593036E+02  0.10566000000E+00 0. -1.
         13    1    4    4    0    0  0.38003005082E+01 -0.10768121249E+02 -0.67746448886E+01  0.13277864911E+02  0.10566000000E+00 0. -1.
        -13    1    4    4    0    0  0.35613270878E+01 -0.90736338359E+01 -0.59784193275E+01  0.11435319991E+02  0.10566000000E+00 0.  1.
         14    1    4    4    0    0  0.68980019453E+01 -0.15960889072E+02 -0.88068334432E+01  0.19490836978E+02  0.00000000000E+00 0. -1.
<mgrwt>
<rscale>  0 0.79285208E+02</rscale>
<asrwt>0</asrwt>
<pdfrwt beam="1">  1        1 0.13157780E-01 0.79285208E+02</pdfrwt>
<pdfrwt beam="2">  1       -2 0.28269297E-02 0.79285208E+02</pdfrwt>
<totfact> 0.14676923E+05</totfact>
</mgrwt>
</event>
<event>
 8    1  0.1319619E-020  0.7919471E+02  0.7818608E-02  0.1331352E+00
         -2   -1    0    0    0  501 -0.00000000000E+00  0.00000000000E+00  0.34199391129E+01  0.34199400636E+01  0.25500000000E-02 0.  1.
          1   -1    0    0  501    0  0.00000000000E+00 -0.00000000000E+00 -0.45847316808E+03  0.45847316810E+03  0.50400000000E-02 0. -1.
        -24    2    1    2    0    0 -0.17763568394E-14  0.71054273576E-14 -0.45505322896E+03  0.46189310817E+03  0.79194710573E+02 0.  0.
         66    2    3    3    0    0  0.93770786129E+01 -0.35842703560E+02 -0.30876366879E+03  0.31098493880E+03  0.19999986379E+01 0.  0.
         13    1    3    3    0    0 -0.93770786129E+01  0.35842703560E+02 -0.14628956017E+03  0.15090816936E+03  0.10566000000E+00 0. -1.
         13    1    4    4    0    0  0.18899761387E+01 -0.91141101479E+01 -0.77358199042E+02  0.77916244370E+02  0.10566000000E+00 0. -1.
        -13    1    4    4    0    0  0.28889592149E+01 -0.84869534939E+01 -0.78468278385E+02  0.78978834771E+02  0.10566000000E+00 0.  1.
        -14    1    4    4    0    0  0.45981432592E+01 -0.18241639918E+02 -0.15293719137E+03  0.15408985966E+03  0.00000000000E+00 0.  1.
<mgrwt>
<rscale>  0 0.79194711E+02</rscale>
<asrwt>0</asrwt>
<pdfrwt beam="1">  1        1 0.70534285E-01 0.79194711E+02</pdfrwt>
<pdfrwt beam="2">  1       -2 0.52614492E-03 0.79194711E+02</pdfrwt>
<totfact> 0.19912075E+05</totfact>
</mgrwt>
</event>
<event>
 8    1  0.1319619E-020  0.7978350E+02  0.7818608E-02  0.1329667E+00
         -2   -1    0    0    0  501 -0.00000000000E+00  0.00000000000E+00  0.31495305006E+03  0.31495305007E+03  0.25500000000E-02 0.  1.
          1   -1    0    0  501    0  0.00000000000E+00 -0.00000000000E+00 -0.50526617147E+01  0.50526642284E+01  0.50400000000E-02 0. -1.
        -24    2    1    2    0    0 -0.35527136788E-14 -0.35527136788E-14  0.30990038835E+03  0.32000571430E+03  0.79783497587E+02 0.  0.
         66    2    3    3    0    0 -0.21317068314E+02  0.26149208065E+02  0.24024036261E+03  0.24260591563E+03  0.19999973946E+01 0.  0.
         13    1    3    3    0    0  0.21317068314E+02 -0.26149208065E+02  0.69660025738E+02  0.77399798668E+02  0.10566000000E+00 0. -1.
         13    1    4    4    0    0 -0.10167247737E+02  0.12740946274E+02  0.11937975430E+03  0.12048751612E+03  0.10566000000E+00 0. -1.
        -13    1    4    4    0    0 -0.37683707766E+01  0.53417603679E+01  0.43268628362E+02  0.43759803319E+02  0.10566000000E+00 0.  1.
        -14    1    4    4    0    0 -0.73814498004E+01  0.80665014225E+01  0.77591979944E+02  0.78358596197E+02  0.00000000000E+00 0.  1.
<mgrwt>
<rscale>  0 0.79783498E+02</rscale>
<asrwt>0</asrwt>
<pdfrwt beam="1">  1        1 0.77733271E-03 0.79783498E+02</pdfrwt>
<pdfrwt beam="2">  1       -2 0.48454319E-01 0.79783498E+02</pdfrwt>
<totfact> 0.68884274E+04</totfact>
</mgrwt>
</event>
<event>
 8    1  0.1319619E-020  0.8037669E+02  0.7818608E-02  0.1327986E+00
          1   -1    0    0  501    0  0.00000000000E+00  0.00000000000E+00  0.34860691883E+02  0.34860692247E+02  0.50400000000E-02 0. -1.
         -2   -1    0    0    0  501 -0.00000000000E+00 -0.00000000000E+00 -0.46330204603E+02  0.46330204673E+02  0.25500000000E-02 0.  1.
        -24    2    1    2    0    0  0.35527136788E-14 -0.17763568394E-14 -0.11469512721E+02  0.81190896920E+02  0.80376688291E+02 0.  0.
         66    2    3    3    0    0 -0.21264172464E+02  0.11351274967E+02 -0.38189757233E+02  0.45204800928E+02  0.19999988616E+01 0.  0.
         13    1    3    3    0    0  0.21264172464E+02 -0.11351274967E+02  0.26720244512E+02  0.35986095993E+02  0.10566000000E+00 0. -1.
         13    1    4    4    0    0 -0.38564312119E+01  0.22349780476E+01 -0.68290484978E+01  0.81556272590E+01  0.10566000000E+00 0.  1.
        -13    1    4    4    0    0 -0.43834300083E+01  0.28860824487E+01 -0.94319546782E+01  0.10794297737E+02  0.10566000000E+00 0. -1.
         14    1    4    4    0    0 -0.13024311244E+02  0.62302144703E+01 -0.21928754057E+02  0.26254875932E+02  0.00000000000E+00 0. -1.
<mgrwt>
<rscale>  0 0.80376688E+02</rscale>
<asrwt>0</asrwt>
<pdfrwt beam="1">  1        1 0.53631834E-02 0.80376688E+02</pdfrwt>
<pdfrwt beam="2">  1       -2 0.71277238E-02 0.80376688E+02</pdfrwt>
<totfact> 0.12247427E+05</totfact>
</mgrwt>
</event>
<event>
 8    1  0.1319619E-020  0.7899606E+02  0.7818608E-02  0.1331925E+00
          1   -1    0    0  501    0  0.00000000000E+00  0.00000000000E+00  0.92817882205E+01  0.92817895888E+01  0.50400000000E-02 0. -1.
         -2   -1    0    0    0  501 -0.00000000000E+00 -0.00000000000E+00 -0.16808123529E+03  0.16808123531E+03  0.25500000000E-02 0.  1.
        -24    2    1    2    0    0  0.17763568394E-14  0.00000000000E+00 -0.15879944707E+03  0.17736302490E+03  0.78996064531E+02 0.  0.
         66    2    3    3    0    0  0.82276467982E+01 -0.23913582835E+02 -0.14749696447E+03  0.14966264777E+03  0.19999988620E+01 0.  0.
         13    1    3    3    0    0 -0.82276467982E+01  0.23913582835E+02 -0.11302482601E+02  0.27700377124E+02  0.10566000000E+00 0. -1.
         13    1    4    4    0    0  0.24304401934E+01 -0.73533077393E+01 -0.41585622793E+02  0.42300748946E+02  0.10566000000E+00 0. -1.
        -13    1    4    4    0    0  0.19910055918E+01 -0.59945982166E+01 -0.34683183497E+02  0.35253846493E+02  0.10566000000E+00 0.  1.
        -14    1    4    4    0    0  0.38062010129E+01 -0.10565676879E+02 -0.71228158176E+02  0.72108052333E+02  0.00000000000E+00 0.  1.
<mgrwt>
<rscale>  0 0.78996065E+02</rscale>
<asrwt>0</asrwt>
<pdfrwt beam="1">  1        1 0.14279677E-02 0.78996065E+02</pdfrwt>
<pdfrwt beam="2">  1       -2 0.25858649E-01 0.78996065E+02</pdfrwt>
<totfact> 0.93904036E+04</totfact>
</mgrwt>
</event>
<event>
 8    1  0.1319619E-020  0.8186197E+02  0.7818608E-02  0.1323849E+00
          1   -1    0    0  501    0  0.00000000000E+00  0.00000000000E+00  0.59153238415E+02  0.59153238630E+02  0.50400000000E-02 0. -1.
         -2   -1    0    0    0  501 -0.00000000000E+00 -0.00000000000E+00 -0.28322129714E+02  0.28322129829E+02  0.25500000000E-02 0.  1.
        -24    2    1    2    0    0  0.35527136788E-14  0.17763568394E-14  0.30831108701E+02  0.87475368458E+02  0.81861974220E+02 0.  0.
         66    2    3    3    0    0  0.23124020862E+02  0.10900608738E+02  0.49548770506E+02  0.55790898458E+02  0.20000201035E+01 0.  0.
         13    1    3    3    0    0 -0.23124020862E+02 -0.10900608738E+02 -0.18717661805E+02  0.31684470000E+02  0.10566000000E+00 0. -1.
         13    1    4    4    0    0  0.71363507788E+00  0.34110415711E+00  0.11095989959E+01  0.13667483447E+01  0.10566000000E+00 0. -1.
        -13    1    4    4    0    0  0.27549787369E+01  0.17331759081E+01  0.58711007617E+01  0.67137764901E+01  0.10566000000E+00 0. -1.
        -14    1    4    4    0    0  0.19655407048E+02  0.88263286724E+01  0.42568070748E+02  0.47710373623E+02  0.00000000000E+00 0.  1.
<mgrwt>
<rscale>  0 0.81861974E+02</rscale>
<asrwt>0</asrwt>
<pdfrwt beam="1">  1        1 0.91004983E-02 0.81861974E+02</pdfrwt>
<pdfrwt beam="2">  1       -2 0.43572507E-02 0.81861974E+02</pdfrwt>
<totfact> 0.12676191E+05</totfact>
</mgrwt>
</event>
<event>
 8    1  0.1319619E-020  0.7956568E+02  0.7818608E-02  0.1330288E+00
         -2   -1    0    0    0  501 -0.00000000000E+00  0.00000000000E+00  0.96945946465E+02  0.96945946499E+02  0.25500000000E-02 0.  1.
          1   -1    0    0  501    0  0.00000000000E+00 -0.00000000000E+00 -0.16325328444E+02  0.16325329222E+02  0.50400000000E-02 0. -1.
        -24    2    1    2    0    0  0.88817841970E-15  0.00000000000E+00  0.80620618021E+02  0.11327127572E+03  0.79565682635E+02 0.  0.
         66    2    3    3    0    0  0.53504483969E+01  0.16107031116E+02  0.91518861344E+02  0.93100836435E+02  0.20000034582E+01 0.  0.
         13    1    3    3    0    0 -0.53504483969E+01 -0.16107031116E+02 -0.10898243322E+02  0.20170439286E+02  0.10566000000E+00 0. -1.
         13    1    4    4    0    0  0.69073429627E+00  0.42819917272E+01  0.23199417449E+02  0.23601624965E+02  0.10566000000E+00 0.  1.
        -13    1    4    4    0    0  0.14592442390E+01  0.28276542823E+01  0.15537557271E+02  0.15860386895E+02  0.10566000000E+00 0. -1.
        -14    1    4    4    0    0  0.32004698617E+01  0.89973851068E+01  0.52781886624E+02  0.53638824574E+02  0.00000000000E+00 0.  1.
<mgrwt>
<rscale>  0 0.79565683E+02</rscale>
<asrwt>0</asrwt>
<pdfrwt beam="1">  1        1 0.25115890E-02 0.79565683E+02</pdfrwt>
<pdfrwt beam="2">  1       -2 0.14914761E-01 0.79565683E+02</pdfrwt>
<totfact> 0.10843971E+05</totfact>
</mgrwt>
</event>
<event>
 8    1  0.1319619E-020  0.8165537E+02  0.7818608E-02  0.1324418E+00
          1   -1    0    0  501    0  0.00000000000E+00  0.00000000000E+00  0.55725195730E+02  0.55725195957E+02  0.50400000000E-02 0. -1.
         -2   -1    0    0    0  501 -0.00000000000E+00 -0.00000000000E+00 -0.29912854375E+02  0.29912854484E+02  0.25500000000E-02 0.  1.
        -24    2    1    2    0    0 -0.35527136788E-14 -0.11102230246E-15  0.25812341354E+02  0.85638050441E+02  0.81655365514E+02 0.  0.
         66    2    3    3    0    0  0.18390160815E+02 -0.90837270037E+00 -0.25274623153E+02  0.31334162345E+02  0.19999996370E+01 0.  0.
         13    1    3    3    0    0 -0.18390160815E+02  0.90837270037E+00  0.51086964508E+02  0.54303888097E+02  0.10566000000E+00 0. -1.
         13    1    4    4    0    0  0.66843043439E+01  0.48817607586E+00 -0.89456186268E+01  0.11178260021E+02  0.10566000000E+00 0. -1.
        -13    1    4    4    0    0  0.57579500209E+01 -0.82097965919E+00 -0.74209380316E+01  0.94291824326E+01  0.10566000000E+00 0.  1.
         14    1    4    4    0    0  0.59479064501E+01 -0.57556911703E+00 -0.89080664948E+01  0.10726719891E+02  0.00000000000E+00 0. -1.
<mgrwt>
<rscale>  0 0.81655366E+02</rscale>
<asrwt>0</asrwt>
<pdfrwt beam="1">  1        1 0.85731070E-02 0.81655366E+02</pdfrwt>
<pdfrwt beam="2">  1       -2 0.46019776E-02 0.81655366E+02</pdfrwt>
<totfact> 0.12644331E+05</totfact>
</mgrwt>
</event>
<event>
 8    1  0.1319619E-020  0.8090459E+02  0.7818608E-02  0.1326504E+00
          1   -1    0    0  501    0  0.00000000000E+00  0.00000000000E+00  0.35299915585E+02  0.35299915945E+02  0.50400000000E-02 0. -1.
         -2   -1    0    0    0  501 -0.00000000000E+00 -0.00000000000E+00 -0.46356717374E+02  0.46356717445E+02  0.25500000000E-02 0.  1.
        -24    2    1    2    0    0  0.00000000000E+00  0.00000000000E+00 -0.11056801789E+02  0.81656633389E+02  0.80904591407E+02 0.  0.
         66    2    3    3    0    0  0.35023912335E+02  0.79042938200E+01 -0.24284873739E+02  0.43392481137E+02  0.20000076750E+01 0.  0.
         13    1    3    3    0    0 -0.35023912335E+02 -0.79042938200E+01  0.13228071950E+02  0.38264152252E+02  0.10566000000E+00 0. -1.
         13    1    4    4    0    0  0.14739980057E+02  0.40105157970E+01 -0.94694324618E+01  0.17973106693E+02  0.10566000000E+00 0. -1.
        -13    1    4    4    0    0  0.10277520561E+02  0.19926300780E+01 -0.76055971844E+01  0.12940412515E+02  0.10566000000E+00 0.  1.
         14    1    4    4    0    0  0.10006411718E+02  0.19011479451E+01 -0.72098440930E+01  0.12478961929E+02  0.00000000000E+00 0. -1.
<mgrwt>
<rscale>  0 0.80904591E+02</rscale>
<asrwt>0</asrwt>
<pdfrwt beam="1">  1        1 0.54307563E-02 0.80904591E+02</pdfrwt>
<pdfrwt beam="2">  1       -2 0.71318027E-02 0.80904591E+02</pdfrwt>
<totfact> 0.12046871E+05</totfact>
</mgrwt>
</event>
<event>
 8    1  0.1319619E-020  0.8029579E+02  0.7818608E-02  0.1328214E+00
          1   -1    0    0  501    0  0.00000000000E+00  0.00000000000E+00  0.37037052568E+02  0.37037052911E+02  0.50400000000E-02 0. -1.
         -2   -1    0    0    0  501 -0.00000000000E+00 -0.00000000000E+00 -0.43520025845E+02  0.43520025919E+02  0.25500000000E-02 0.  1.
        -24    2    1    2    0    0  0.00000000000E+00  0.00000000000E+00 -0.64829732763E+01  0.80557078830E+02  0.80295790719E+02 0.  0.
         66    2    3    3    0    0  0.26650406162E+02 -0.29951121598E+02 -0.16462351677E+01  0.40174916516E+02  0.19999983262E+01 0.  0.
         13    1    3    3    0    0 -0.26650406162E+02  0.29951121598E+02 -0.48367381086E+01  0.40382162314E+02  0.10566000000E+00 0. -1.
         13    1    4    4    0    0  0.65913429999E+01 -0.85674806627E+01 -0.91870424838E-01  0.10810510240E+02  0.10566000000E+00 0. -1.
        -13    1    4    4    0    0  0.45928000244E+01 -0.51201829939E+01 -0.45732799022E+00  0.68942293900E+01  0.10566000000E+00 0.  1.
         14    1    4    4    0    0  0.15466263138E+02 -0.16263457941E+02 -0.10970367526E+01  0.22470176886E+02  0.00000000000E+00 0. -1.
<mgrwt>
<rscale>  0 0.80295791E+02</rscale>
<asrwt>0</asrwt>
<pdfrwt beam="1">  1        1 0.56980081E-02 0.80295791E+02</pdfrwt>
<pdfrwt beam="2">  1       -2 0.66953886E-02 0.80295791E+02</pdfrwt>
<totfact> 0.12407893E+05</totfact>
</mgrwt>
</event>
<event>
 8    1  0.1319619E-020  0.7904294E+02  0.7818608E-02  0.1331790E+00
          1   -1    0    0  501    0  0.00000000000E+00  0.00000000000E+00  0.14295230077E+03  0.14295230086E+03  0.50400000000E-02 0. -1.
         -2   -1    0    0    0  501 -0.00000000000E+00 -0.00000000000E+00 -0.10926347012E+02  0.10926347309E+02  0.25500000000E-02 0.  1.
        -24    2    1    2    0    0  0.00000000000E+00 -0.88817841970E-15  0.13202595376E+03  0.15387864817E+03  0.79042937043E+02 0.  0.
         66    2    3    3    0    0 -0.21540673399E+02 -0.51649384112E+01  0.23964122524E+01  0.22370069002E+02  0.19999990504E+01 0.  0.
         13    1    3    3    0    0  0.21540673399E+02  0.51649384112E+01  0.12962954151E+03  0.13150857917E+03  0.10566000000E+00 0. -1.
         13    1    4    4    0    0 -0.36193948238E+01 -0.10270388861E+01  0.33731236313E+00  0.37788584824E+01  0.10566000000E+00 0. -1.
        -13    1    4    4    0    0 -0.62366104397E+01 -0.19822616468E+01  0.78223212616E-01  0.65453765300E+01  0.10566000000E+00 0.  1.
         14    1    4    4    0    0 -0.11684668135E+02 -0.21556378782E+01  0.19808766766E+01  0.12045833989E+02  0.00000000000E+00 0. -1.
<mgrwt>
<rscale>  0 0.79042937E+02</rscale>
<asrwt>0</asrwt>
<pdfrwt beam="1">  1        1 0.21992659E-01 0.79042937E+02</pdfrwt>
<pdfrwt beam="2">  1       -2 0.16809767E-02 0.79042937E+02</pdfrwt>
<totfact> 0.16161249E+05</totfact>
</mgrwt>
</event>
<event>
 8    1  0.1319619E-020  0.7846314E+02  0.7818608E-02  0.1333470E+00
          1   -1    0    0  501    0  0.00000000000E+00  0.00000000000E+00  0.24994234676E+03  0.24994234681E+03  0.50400000000E-02 0. -1.
         -2   -1    0    0    0  501 -0.00000000000E+00 -0.00000000000E+00 -0.61578833689E+01  0.61578838969E+01  0.25500000000E-02 0.  1.
        -24    2    1    2    0    0  0.00000000000E+00  0.35527136788E-14  0.24378446339E+03  0.25610023071E+03  0.78463135151E+02 0.  0.
         66    2    3    3    0    0  0.19863135346E+02  0.27673734782E+02  0.18532317493E+03  0.18843847522E+03  0.20000090049E+01 0.  0.
         13    1    3    3    0    0 -0.19863135346E+02 -0.27673734782E+02  0.58461288463E+02  0.67661755485E+02  0.10566000000E+00 0. -1.
         13    1    4    4    0    0  0.93092505699E+00  0.19133894575E+01  0.11798620604E+02  0.11989424210E+02  0.10566000000E+00 0. -1.
        -13    1    4    4    0    0  0.59540831368E+01  0.74345946235E+01  0.49613088688E+02  0.50519244219E+02  0.10566000000E+00 0.  1.
         14    1    4    4    0    0  0.12978127153E+02  0.18325750701E+02  0.12391146564E+03  0.12592980679E+03  0.00000000000E+00 0. -1.
<mgrwt>
<rscale>  0 0.78463135E+02</rscale>
<asrwt>0</asrwt>
<pdfrwt beam="1">  1        1 0.38452665E-01 0.78463135E+02</pdfrwt>
<pdfrwt beam="2">  1       -2 0.94736681E-03 0.78463135E+02</pdfrwt>
<totfact> 0.18330012E+05</totfact>
</mgrwt>
</event>
<event>
 8    1  0.1319619E-020  0.8405531E+02  0.7818608E-02  0.1317922E+00
         -2   -1    0    0    0  501 -0.00000000000E+00  0.00000000000E+00  0.57982017534E+02  0.57982017590E+02  0.25500000000E-02 0.  1.
          1   -1    0    0  501    0  0.00000000000E+00 -0.00000000000E+00 -0.30463301108E+02  0.30463301525E+02  0.50400000000E-02 0. -1.
        -24    2    1    2    0    0 -0.71054273576E-14  0.00000000000E+00  0.27518716426E+02  0.88445319115E+02  0.84055307504E+02 0.  0.
         66    2    3    3    0    0  0.36062260908E+02  0.20265416791E+02  0.60963299651E+01  0.41860948504E+02  0.19999977792E+01 0.  0.
         13    1    3    3    0    0 -0.36062260908E+02 -0.20265416791E+02  0.21422386461E+02  0.46584370611E+02  0.10566000000E+00 0. -1.
         13    1    4    4    0    0  0.85016029778E+01  0.47430173787E+01  0.10833658005E+01  0.97958313859E+01  0.10566000000E+00 0. -1.
        -13    1    4    4    0    0  0.26560274166E+02  0.14883122550E+02  0.51179263222E+01  0.30873286745E+02  0.10566000000E+00 0.  1.
        -14    1    4    4    0    0  0.10003837640E+01  0.63927686265E+00 -0.10496215763E+00  0.11918303726E+01  0.00000000000E+00 0.  1.
<mgrwt>
<rscale>  0 0.84055308E+02</rscale>
<asrwt>0</asrwt>
<pdfrwt beam="1">  1        1 0.46866618E-02 0.84055308E+02</pdfrwt>
<pdfrwt beam="2">  1       -2 0.89203103E-02 0.84055308E+02</pdfrwt>
<totfact> 0.10514469E+05</totfact>
</mgrwt>
</event>
<event>
 8    1  0.1319619E-020  0.7930151E+02  0.7818608E-02  0.1331045E+00
         -2   -1    0    0    0  501 -0.00000000000E+00  0.00000000000E+00  0.12945558109E+02  0.12945558360E+02  0.25500000000E-02 0.  1.
          1   -1    0    0  501    0  0.00000000000E+00 -0.00000000000E+00 -0.12144568713E+03  0.12144568724E+03  0.50400000000E-02 0. -1.
        -24    2    1    2    0    0  0.35527136788E-14  0.00000000000E+00 -0.10850012902E+03  0.13439124560E+03  0.79301506258E+02 0.  0.
         66    2    3    3    0    0 -0.27686539973E+02 -0.18552963069E+02 -0.17960392454E+02  0.37912170164E+02  0.20000037731E+01 0.  0.
         13    1    3    3    0    0  0.27686539973E+02  0.18552963069E+02 -0.90539736568E+02  0.96479075431E+02  0.10566000000E+00 0. -1.
         13    1    4    4    0    0 -0.16814713324E+02 -0.11628905473E+02 -0.11663449371E+02  0.23537485888E+02  0.10566000000E+00 0. -1.
        -13    1    4    4    0    0 -0.53100102083E+01 -0.28647597383E+01 -0.28136460278E+01  0.66581397384E+01  0.10566000000E+00 0.  1.
         14    1    4    4    0    0 -0.55618164409E+01 -0.40592978575E+01 -0.34832970553E+01  0.77165445372E+01  0.00000000000E+00 0. -1.
<mgrwt>
<rscale>  0 0.79301506E+02</rscale>
<asrwt>0</asrwt>
<pdfrwt beam="1">  1        1 0.18683951E-01 0.79301506E+02</pdfrwt>
<pdfrwt beam="2">  1       -2 0.19916244E-02 0.79301506E+02</pdfrwt>
<totfact> 0.15560469E+05</totfact>
</mgrwt>
</event>
<event>
 8    1  0.1319619E-020  0.8082732E+02  0.7818608E-02  0.1326720E+00
         -2   -1    0    0    0  501 -0.00000000000E+00  0.00000000000E+00  0.60622081726E+01  0.60622087089E+01  0.25500000000E-02 0.  1.
          1   -1    0    0  501    0  0.00000000000E+00 -0.00000000000E+00 -0.26941733150E+03  0.26941733154E+03  0.50400000000E-02 0. -1.
        -24    2    1    2    0    0  0.00000000000E+00  0.22204460493E-15 -0.26335512332E+03  0.27547954025E+03  0.80827322836E+02 0.  0.
         66    2    3    3    0    0 -0.39118958961E+02 -0.17373914392E+01 -0.16548886481E+03  0.17007020860E+03  0.19999997633E+01 0.  0.
         13    1    3    3    0    0  0.39118958961E+02  0.17373914392E+01 -0.97866258515E+02  0.10540933165E+03  0.10566000000E+00 0. -1.
         13    1    4    4    0    0 -0.34662422659E+01 -0.77280959181E-01 -0.14882806090E+02  0.15281684755E+02  0.10566000000E+00 0. -1.
        -13    1    4    4    0    0 -0.18937655532E+02 -0.13814414896E+01 -0.83437284317E+02  0.85570641904E+02  0.10566000000E+00 0.  1.
         14    1    4    4    0    0 -0.16715061163E+02 -0.27866899043E+00 -0.67168774402E+02  0.69217881944E+02  0.00000000000E+00 0. -1.
<mgrwt>
<rscale>  0 0.80827323E+02</rscale>
<asrwt>0</asrwt>
<pdfrwt beam="1">  1        1 0.41448811E-01 0.80827323E+02</pdfrwt>
<pdfrwt beam="2">  1       -2 0.93264766E-03 0.80827323E+02</pdfrwt>
<totfact> 0.17197453E+05</totfact>
</mgrwt>
</event>
<event>
 8    1  0.1319619E-020  0.7796827E+02  0.7818608E-02  0.1334918E+00
         -2   -1    0    0    0  501 -0.00000000000E+00  0.00000000000E+00  0.70769361988E+02  0.70769362034E+02  0.25500000000E-02 0.  1.
          1   -1    0    0  501    0  0.00000000000E+00 -0.00000000000E+00 -0.21474866620E+02  0.21474867212E+02  0.50400000000E-02 0. -1.
        -24    2    1    2    0    0  0.00000000000E+00  0.00000000000E+00  0.49294495367E+02  0.92244229246E+02  0.77968266337E+02 0.  0.
         66    2    3    3    0    0  0.94898434471E+01 -0.37748201973E+02  0.26633852370E+02  0.47205359523E+02  0.19999986879E+01 0.  0.
         13    1    3    3    0    0 -0.94898434471E+01  0.37748201973E+02  0.22660642997E+02  0.45038869723E+02  0.10566000000E+00 0. -1.
         13    1    4    4    0    0  0.54144826538E+01 -0.20043834061E+02  0.13206315781E+02  0.24606703290E+02  0.10566000000E+00 0. -1.
        -13    1    4    4    0    0  0.11704237629E+01 -0.50632840681E+01  0.35322617819E+01  0.62844868263E+01  0.10566000000E+00 0.  1.
         14    1    4    4    0    0  0.29049370304E+01 -0.12641083843E+02  0.98952748075E+01  0.16314169406E+02  0.00000000000E+00 0. -1.
<mgrwt>
<rscale>  0 0.77968266E+02</rscale>
<asrwt>0</asrwt>
<pdfrwt beam="1">  1        1 0.33038257E-02 0.77968266E+02</pdfrwt>
<pdfrwt beam="2">  1       -2 0.10887594E-01 0.77968266E+02</pdfrwt>
<totfact> 0.12240077E+05</totfact>
</mgrwt>
</event>
<event>
 8    1  0.1319619E-020  0.8064991E+02  0.7818608E-02  0.1327217E+00
          1   -1    0    0  501    0  0.00000000000E+00  0.00000000000E+00  0.54196527192E+03  0.54196527194E+03  0.50400000000E-02 0. -1.
         -2   -1    0    0    0  501 -0.00000000000E+00 -0.00000000000E+00 -0.30003796044E+01  0.30003806880E+01  0.25500000000E-02 0.  1.
        -24    2    1    2    0    0 -0.88817841970E-15  0.00000000000E+00  0.53896489232E+03  0.54496565263E+03  0.80649906381E+02 0.  0.
         66    2    3    3    0    0 -0.59891565778E+01 -0.36326591587E+02  0.38039237281E+03  0.38217515426E+03  0.19999976803E+01 0.  0.
         13    1    3    3    0    0  0.59891565778E+01  0.36326591587E+02  0.15857251951E+03  0.16279049837E+03  0.10566000000E+00 0. -1.
         13    1    4    4    0    0 -0.12989845217E+01 -0.69675990005E+01  0.80850601586E+02  0.81160740124E+02  0.10566000000E+00 0. -1.
        -13    1    4    4    0    0 -0.10694365353E+01 -0.85538270533E+01  0.86875889937E+02  0.87302594853E+02  0.10566000000E+00 0.  1.
         14    1    4    4    0    0 -0.36207355209E+01 -0.20805165533E+02  0.21266588129E+03  0.21371181929E+03  0.00000000000E+00 0. -1.
<mgrwt>
<rscale>  0 0.80649906E+02</rscale>
<asrwt>0</asrwt>
<pdfrwt beam="1">  1        1 0.83379294E-01 0.80649906E+02</pdfrwt>
<pdfrwt beam="2">  1       -2 0.46159683E-03 0.80649906E+02</pdfrwt>
<totfact> 0.19363222E+05</totfact>
</mgrwt>
</event>
<event>
 8    1  0.1319619E-020  0.8060247E+02  0.7818608E-02  0.1327350E+00
         -2   -1    0    0    0  501 -0.00000000000E+00  0.00000000000E+00  0.19910106426E+03  0.19910106428E+03  0.25500000000E-02 0.  1.
          1   -1    0    0  501    0  0.00000000000E+00 -0.00000000000E+00 -0.81576122667E+01  0.81576138236E+01  0.50400000000E-02 0. -1.
        -24    2    1    2    0    0  0.71054273576E-14  0.00000000000E+00  0.19094345199E+03  0.20725867810E+03  0.80602467634E+02 0.  0.
         66    2    3    3    0    0 -0.38529265060E+02  0.10982574600E+02  0.84908608622E+02  0.93907364108E+02  0.20000011569E+01 0.  0.
         13    1    3    3    0    0  0.38529265060E+02 -0.10982574600E+02  0.10603484337E+03  0.11335131399E+03  0.10566000000E+00 0. -1.
         13    1    4    4    0    0 -0.23946574720E+02  0.67484856074E+01  0.51607405079E+02  0.57291499560E+02  0.10566000000E+00 0. -1.
        -13    1    4    4    0    0 -0.19916127070E+01  0.72895543801E+00  0.39023144467E+01  0.44426477782E+01  0.10566000000E+00 0.  1.
        -14    1    4    4    0    0 -0.12591077634E+02  0.35051335544E+01  0.29398889096E+02  0.32173216770E+02  0.00000000000E+00 0.  1.
<mgrwt>
<rscale>  0 0.80602468E+02</rscale>
<asrwt>0</asrwt>
<pdfrwt beam="1">  1        1 0.12550176E-02 0.80602468E+02</pdfrwt>
<pdfrwt beam="2">  1       -2 0.30630928E-01 0.80602468E+02</pdfrwt>
<totfact> 0.83597506E+04</totfact>
</mgrwt>
</event>
<event>
 8    1  0.1319619E-020  0.7895552E+02  0.7818608E-02  0.1332042E+00
         -2   -1    0    0    0  501 -0.00000000000E+00  0.00000000000E+00  0.67411140429E+02  0.67411140477E+02  0.25500000000E-02 0.  1.
          1   -1    0    0  501    0  0.00000000000E+00 -0.00000000000E+00 -0.23119225398E+02  0.23119225948E+02  0.50400000000E-02 0. -1.
        -24    2    1    2    0    0  0.17763568394E-14 -0.35527136788E-14  0.44291915031E+02  0.90530366425E+02  0.78955516007E+02 0.  0.
         66    2    3    3    0    0  0.98926013949E+01 -0.28347492047E+02  0.51506013680E+02  0.59651599431E+02  0.20000004360E+01 0.  0.
         13    1    3    3    0    0 -0.98926013949E+01  0.28347492047E+02 -0.72140986490E+01  0.30878766994E+02  0.10566000000E+00 0. -1.
         13    1    4    4    0    0  0.10904519345E+01 -0.41705079572E+01  0.83570250142E+01  0.94038956378E+01  0.10566000000E+00 0. -1.
        -13    1    4    4    0    0  0.40397044180E+00 -0.70289458466E+00  0.13700369566E+01  0.15954366841E+01  0.10566000000E+00 0.  1.
        -14    1    4    4    0    0  0.83981790186E+01 -0.23474089505E+02  0.41778951709E+02  0.48652267109E+02  0.00000000000E+00 0.  1.
<mgrwt>
<rscale>  0 0.78955516E+02</rscale>
<asrwt>0</asrwt>
<pdfrwt beam="1">  1        1 0.35568039E-02 0.78955516E+02</pdfrwt>
<pdfrwt beam="2">  1       -2 0.10370945E-01 0.78955516E+02</pdfrwt>
<totfact> 0.11970170E+05</totfact>
</mgrwt>
</event>
<event>
 8    1  0.1319619E-020  0.7415264E+02  0.7818608E-02  0.1346515E+00
          1   -1    0    0  501    0  0.00000000000E+00  0.00000000000E+00  0.41533838093E+02  0.41533838398E+02  0.50400000000E-02 0. -1.
         -2   -1    0    0    0  501 -0.00000000000E+00 -0.00000000000E+00 -0.33097194342E+02  0.33097194440E+02  0.25500000000E-02 0.  1.
        -24    2    1    2    0    0  0.44408920985E-15  0.00000000000E+00  0.84366437511E+01  0.74631032838E+02  0.74152640578E+02 0.  0.
         66    2    3    3    0    0  0.28511666858E+01 -0.14215033801E+02 -0.30093333897E+02  0.33463488838E+02  0.20000006876E+01 0.  0.
         13    1    3    3    0    0 -0.28511666858E+01  0.14215033801E+02  0.38529977648E+02  0.41167544000E+02  0.10566000000E+00 0. -1.
         13    1    4    4    0    0  0.85621536522E+00 -0.31708420267E+01 -0.53389008706E+01  0.62691602669E+01  0.10566000000E+00 0. -1.
        -13    1    4    4    0    0  0.11785969598E+01 -0.60945923892E+01 -0.12642481039E+02  0.14084624172E+02  0.10566000000E+00 0.  1.
        -14    1    4    4    0    0  0.81635436084E+00 -0.49495993850E+01 -0.12111951987E+02  0.13109704400E+02  0.00000000000E+00 0.  1.
<mgrwt>
<rscale>  0 0.74152641E+02</rscale>
<asrwt>0</asrwt>
<pdfrwt beam="1">  1        1 0.63898212E-02 0.74152641E+02</pdfrwt>
<pdfrwt beam="2">  1       -2 0.50918761E-02 0.74152641E+02</pdfrwt>
<totfact> 0.15787933E+05</totfact>
</mgrwt>
</event>
<event>
 8    1  0.1319619E-020  0.7774384E+02  0.7818608E-02  0.1335579E+00
          1   -1    0    0  501    0  0.00000000000E+00  0.00000000000E+00  0.37948083810E+02  0.37948084145E+02  0.50400000000E-02 0. -1.
         -2   -1    0    0    0  501 -0.00000000000E+00 -0.00000000000E+00 -0.39818250218E+02  0.39818250300E+02  0.25500000000E-02 0.  1.
        -24    2    1    2    0    0  0.38163916471E-16  0.35527136788E-14 -0.18701664075E+01  0.77766334445E+02  0.77743843811E+02 0.  0.
         66    2    3    3    0    0  0.27955831330E-01  0.22246274730E+02 -0.32790224430E+02  0.39674883002E+02  0.20000005486E+01 0.  0.
         13    1    3    3    0    0 -0.27955831330E-01 -0.22246274730E+02  0.30920058022E+02  0.38091451443E+02  0.10566000000E+00 0. -1.
         13    1    4    4    0    0  0.54417126825E+00  0.11433928138E+02 -0.17502260373E+02  0.20913419549E+02  0.10566000000E+00 0. -1.
        -13    1    4    4    0    0  0.13237318831E-01  0.28424845621E+01 -0.47805570212E+01  0.55628035361E+01  0.10566000000E+00 0.  1.
         14    1    4    4    0    0 -0.52945275575E+00  0.79698620299E+01 -0.10507407035E+02  0.13198659917E+02  0.00000000000E+00 0. -1.
<mgrwt>
<rscale>  0 0.77743844E+02</rscale>
<asrwt>0</asrwt>
<pdfrwt beam="1">  1        1 0.58381668E-02 0.77743844E+02</pdfrwt>
<pdfrwt beam="2">  1       -2 0.61258846E-02 0.77743844E+02</pdfrwt>
<totfact> 0.13646069E+05</totfact>
</mgrwt>
</event>
<event>
 8    1  0.1319619E-020  0.8050661E+02  0.7818608E-02  0.1327620E+00
         -2   -1    0    0    0  501 -0.00000000000E+00  0.00000000000E+00  0.68212180863E+01  0.68212185629E+01  0.25500000000E-02 0.  1.
          1   -1    0    0  501    0  0.00000000000E+00 -0.00000000000E+00 -0.23754240744E+03  0.23754240749E+03  0.50400000000E-02 0. -1.
        -24    2    1    2    0    0  0.00000000000E+00  0.44408920985E-15 -0.23072118935E+03  0.24436362605E+03  0.80506611670E+02 0.  0.
         66    2    3    3    0    0  0.34056256804E+02 -0.29731918580E+01 -0.51067328094E+02  0.61486100027E+02  0.20000001084E+01 0.  0.
         13    1    3    3    0    0 -0.34056256804E+02  0.29731918580E+01 -0.17965386126E+03  0.18287752603E+03  0.10566000000E+00 0. -1.
         13    1    4    4    0    0  0.20805776217E+01 -0.58228631710E+00 -0.36589585788E+01  0.42505296743E+01  0.10566000000E+00 0. -1.
        -13    1    4    4    0    0  0.25505906108E+02 -0.20791012143E+01 -0.37839381668E+02  0.45680453996E+02  0.10566000000E+00 0.  1.
         14    1    4    4    0    0  0.64697730743E+01 -0.31180432656E+00 -0.95689878475E+01  0.11555116356E+02  0.00000000000E+00 0. -1.
<mgrwt>
<rscale>  0 0.80506612E+02</rscale>
<asrwt>0</asrwt>
<pdfrwt beam="1">  1        1 0.36544980E-01 0.80506612E+02</pdfrwt>
<pdfrwt beam="2">  1       -2 0.10494184E-02 0.80506612E+02</pdfrwt>
<totfact> 0.16956813E+05</totfact>
</mgrwt>
</event>
<event>
 8    1  0.1319619E-020  0.8418500E+02  0.7818608E-02  0.1317578E+00
          1   -1    0    0  501    0  0.00000000000E+00  0.00000000000E+00  0.12510250863E+03  0.12510250873E+03  0.50400000000E-02 0. -1.
         -2   -1    0    0    0  501 -0.00000000000E+00 -0.00000000000E+00 -0.14162614527E+02  0.14162614756E+02  0.25500000000E-02 0.  1.
        -24    2    1    2    0    0 -0.35527136788E-14 -0.35527136788E-14  0.11093989410E+03  0.13926512348E+03  0.84185001729E+02 0.  0.
         66    2    3    3    0    0 -0.27514979068E+02 -0.30687436319E+02  0.41563887789E+02  0.58569186556E+02  0.20000062025E+01 0.  0.
         13    1    3    3    0    0  0.27514979068E+02  0.30687436319E+02  0.69376006311E+02  0.80695936928E+02  0.10566000000E+00 0. -1.
         13    1    4    4    0    0 -0.11931760046E+02 -0.12676412929E+02  0.17240844457E+02  0.24501351476E+02  0.10566000000E+00 0.  1.
        -13    1    4    4    0    0 -0.12257707188E+02 -0.13437087591E+02  0.18976340901E+02  0.26285345470E+02  0.10566000000E+00 0.  1.
        -14    1    4    4    0    0 -0.33255118341E+01 -0.45739357988E+01  0.53467024308E+01  0.77824896102E+01  0.00000000000E+00 0.  1.
<mgrwt>
<rscale>  0 0.84185002E+02</rscale>
<asrwt>0</asrwt>
<pdfrwt beam="1">  1        1 0.19246540E-01 0.84185002E+02</pdfrwt>
<pdfrwt beam="2">  1       -2 0.21788637E-02 0.84185002E+02</pdfrwt>
<totfact> 0.13317706E+05</totfact>
</mgrwt>
</event>
