<event>
 8    1  0.1372337E-020  0.8385783E+02  0.7818608E-02  0.1318447E+00
         -2   -1    0    0    0  501 -0.00000000000E+00  0.00000000000E+00  0.21101130136E+03  0.21101130137E+03  0.25500000000E-02 0.  1.
          1   -1    0    0  501    0  0.00000000000E+00 -0.00000000000E+00 -0.83314673333E+01  0.83314688577E+01  0.50400000000E-02 0. -1.
        -24    2    1    2    0    0  0.00000000000E+00  0.00000000000E+00  0.20267983403E+03  0.21934277023E+03  0.83857830477E+02 0.  0.
         66    2    3    3    0    0  0.38294874332E+02 -0.60524527107E+01  0.14299358908E+03  0.14816982184E+03  0.20000000408E+01 0.  0.
         13    1    3    3    0    0 -0.38294874332E+02  0.60524527107E+01  0.59686244942E+02  0.71172948395E+02  0.10566000000E+00 0. -1.
         13    1    4    4    0    0  0.23988583701E+02 -0.37151031694E+01  0.90425075660E+02  0.93626703518E+02  0.10566000000E+00 0. -1.
        -13    1    4    4    0    0  0.43176597370E+01 -0.12237175056E+01  0.15669835152E+02  0.16300140118E+02  0.10566000000E+00 0.  1.
        -14    1    4    4    0    0  0.99886308949E+01 -0.11136320358E+01  0.36898678272E+02  0.38242978201E+02  0.00000000000E+00 0.  1.
<mgrwt>
<rscale>  0 0.83857830E+02</rscale>
<asrwt>0</asrwt>
<pdfrwt beam="1">  1        1 0.12817644E-02 0.83857830E+02</pdfrwt>
<pdfrwt beam="2">  1       -2 0.32463275E-01 0.83857830E+02</pdfrwt>
<totfact> 0.73675779E+04</totfact>
</mgrwt>
</event>
<event>
 8    1  0.1372337E-020  0.7656112E+02  0.7818608E-02  0.1339104E+00
          1   -1    0    0  501    0  0.00000000000E+00  0.00000000000E+00  0.81293218160E+02  0.81293218317E+02  0.50400000000E-02 0. -1.
         -2   -1    0    0    0  501 -0.00000000000E+00 -0.00000000000E+00 -0.18026118488E+02  0.18026118668E+02  0.25500000000E-02 0.  1.
        -24    2    1    2    0    0  0.00000000000E+00  0.17763568394E-14  0.63267099673E+02  0.99319336985E+02  0.76561118057E+02 0.  0.
         66    2    3    3    0    0  0.29930694761E+02  0.15884923942E+02  0.86230711617E+01  0.35021916248E+02  0.19999909809E+01 0.  0.
         13    1    3    3    0    0 -0.29930694761E+02 -0.15884923942E+02  0.54644028511E+02  0.64297420737E+02  0.10566000000E+00 0. -1.
         13    1    4    4    0    0  0.40457205289E+01  0.20575070972E+01  0.17978951586E+01  0.48831118244E+01  0.10566000000E+00 0. -1.
        -13    1    4    4    0    0  0.18197044571E+02  0.93605002821E+01  0.46620112174E+01  0.20988018231E+02  0.10566000000E+00 0.  1.
        -14    1    4    4    0    0  0.76879296612E+01  0.44669165628E+01  0.21631647857E+01  0.91507861927E+01  0.00000000000E+00 0.  1.
<mgrwt>
<rscale>  0 0.76561118E+02</rscale>
<asrwt>0</asrwt>
<pdfrwt beam="1">  1        1 0.12506649E-01 0.76561118E+02</pdfrwt>
<pdfrwt beam="2">  1       -2 0.27732489E-02 0.76561118E+02</pdfrwt>
<totfact> 0.16004978E+05</totfact>
</mgrwt>
</event>
<event>
 8    1  0.1372337E-020  0.7951818E+02  0.7818608E-02  0.1330424E+00
         -2   -1    0    0    0  501 -0.00000000000E+00  0.00000000000E+00  0.97612499924E+01  0.97612503255E+01  0.25500000000E-02 0.  1.
          1   -1    0    0  501    0  0.00000000000E+00 -0.00000000000E+00 -0.16194495660E+03  0.16194495668E+03  0.50400000000E-02 0. -1.
        -24    2    1    2    0    0  0.35527136788E-14 -0.35527136788E-14 -0.15218370660E+03  0.17170620700E+03  0.79518180102E+02 0.  0.
         66    2    3    3    0    0  0.20384897485E+02 -0.27163734959E+02 -0.31604815023E+02  0.46435728429E+02  0.19999999368E+01 0.  0.
         13    1    3    3    0    0 -0.20384897485E+02  0.27163734959E+02 -0.12057889158E+03  0.12527047857E+03  0.10566000000E+00 0. -1.
         13    1    4    4    0    0  0.89970646634E+00 -0.11133450199E+01 -0.16725979559E+01  0.22040319454E+01  0.10566000000E+00 0. -1.
        -13    1    4    4    0    0  0.84012560458E+01 -0.12353190265E+02 -0.13323355928E+02  0.20017626984E+02  0.10566000000E+00 0.  1.
        -14    1    4    4    0    0  0.11083934973E+02 -0.13697199675E+02 -0.16608861139E+02  0.24214069500E+02  0.00000000000E+00 0.  1.
<mgrwt>
<rscale>  0 0.79518180E+02</rscale>
<asrwt>0</asrwt>
<pdfrwt beam="1">  1        1 0.24914607E-01 0.79518180E+02</pdfrwt>
<pdfrwt beam="2">  1       -2 0.15017309E-02 0.79518180E+02</pdfrwt>
<totfact> 0.16275000E+05</totfact>
</mgrwt>
</event>
<event>
 8    1  0.1372337E-020  0.7979399E+02  0.7818608E-02  0.1329637E+00
          1   -1    0    0  501    0  0.00000000000E+00  0.00000000000E+00  0.40558953300E+03  0.40558953303E+03  0.50400000000E-02 0. -1.
         -2   -1    0    0    0  501 -0.00000000000E+00 -0.00000000000E+00 -0.39245832674E+01  0.39245840958E+01  0.25500000000E-02 0.  1.
        -24    2    1    2    0    0  0.44408920985E-15  0.00000000000E+00  0.40166494973E+03  0.40951411713E+03  0.79793986507E+02 0.  0.
         66    2    3    3    0    0  0.28195207815E+01  0.39770344380E+02  0.19907179566E+03  0.20303499656E+03  0.20000027026E+01 0.  0.
         13    1    3    3    0    0 -0.28195207815E+01 -0.39770344380E+02  0.20259315407E+03  0.20647912057E+03  0.10566000000E+00 0. -1.
         13    1    4    4    0    0 -0.46445868509E-01  0.88133310116E+01  0.44256321374E+02  0.45125492866E+02  0.10566000000E+00 0. -1.
        -13    1    4    4    0    0  0.24872230008E+01  0.25616511984E+02  0.12626537026E+03  0.12886173542E+03  0.10566000000E+00 0.  1.
        -14    1    4    4    0    0  0.37874364928E+00  0.53405013840E+01  0.28550104027E+02  0.29047768275E+02  0.00000000000E+00 0.  1.
<mgrwt>
<rscale>  0 0.79793987E+02</rscale>
<asrwt>0</asrwt>
<pdfrwt beam="1">  1        1 0.62398415E-01 0.79793987E+02</pdfrwt>
<pdfrwt beam="2">  1       -2 0.60378187E-03 0.79793987E+02</pdfrwt>
<totfact> 0.19165673E+05</totfact>
</mgrwt>
</event>
<event>
 8    1  0.1372337E-020  0.7966675E+02  0.7818608E-02  0.1330000E+00
         -2   -1    0    0    0  501 -0.00000000000E+00  0.00000000000E+00  0.27436212809E+02  0.27436212928E+02  0.25500000000E-02 0.  1.
          1   -1    0    0  501    0  0.00000000000E+00 -0.00000000000E+00 -0.57832248125E+02  0.57832248345E+02  0.50400000000E-02 0. -1.
        -24    2    1    2    0    0 -0.71054273576E-14 -0.88817841970E-15 -0.30396035316E+02  0.85268461273E+02  0.79666752945E+02 0.  0.
         66    2    3    3    0    0  0.35580246081E+02  0.58639383355E+01  0.28409012437E+01  0.36227205172E+02  0.19999976686E+01 0.  0.
         13    1    3    3    0    0 -0.35580246081E+02 -0.58639383355E+01 -0.33236936560E+02  0.49041256101E+02  0.10566000000E+00 0. -1.
         13    1    4    4    0    0  0.27437900461E+01  0.36387386330E+00 -0.11850345141E+00  0.27723627305E+01  0.10566000000E+00 0.  1.
        -13    1    4    4    0    0  0.96433378039E+01  0.98294461437E+00  0.74881730147E+00  0.97227586364E+01  0.10566000000E+00 0.  1.
        -14    1    4    4    0    0  0.23193118231E+02  0.45171198579E+01  0.22105873937E+01  0.23732083805E+02  0.00000000000E+00 0.  1.
<mgrwt>
<rscale>  0 0.79666753E+02</rscale>
<asrwt>0</asrwt>
<pdfrwt beam="1">  1        1 0.88972690E-02 0.79666753E+02</pdfrwt>
<pdfrwt beam="2">  1       -2 0.42209558E-02 0.79666753E+02</pdfrwt>
<totfact> 0.13616729E+05</totfact>
</mgrwt>
</event>
<event>
 8    1  0.1372337E-020  0.7990449E+02  0.7818608E-02  0.1329323E+00
          1   -1    0    0  501    0  0.00000000000E+00  0.00000000000E+00  0.83675684209E+01  0.83675699388E+01  0.50400000000E-02 0. -1.
         -2   -1    0    0    0  501 -0.00000000000E+00 -0.00000000000E+00 -0.19075815442E+03  0.19075815444E+03  0.25500000000E-02 0.  1.
        -24    2    1    2    0    0  0.00000000000E+00  0.35527136788E-14 -0.18239058600E+03  0.19912572438E+03  0.79904494536E+02 0.  0.
         66    2    3    3    0    0 -0.27236836239E+02 -0.29123203836E+02 -0.96341683099E+02  0.10428674977E+03  0.20000062995E+01 0.  0.
         13    1    3    3    0    0  0.27236836239E+02  0.29123203836E+02 -0.86048902899E+02  0.94838974606E+02  0.10566000000E+00 0. -1.
         13    1    4    4    0    0 -0.14093689051E+02 -0.14780448547E+02 -0.50689293965E+02  0.54648965380E+02  0.10566000000E+00 0.  1.
        -13    1    4    4    0    0 -0.74011317600E+01 -0.72607792652E+01 -0.23953674434E+02  0.26101443443E+02  0.10566000000E+00 0. -1.
         14    1    4    4    0    0 -0.57420154285E+01 -0.70819760238E+01 -0.21698714699E+02  0.23536340947E+02  0.00000000000E+00 0. -1.
<mgrwt>
<rscale>  0 0.79904495E+02</rscale>
<asrwt>0</asrwt>
<pdfrwt beam="1">  1        1 0.12873185E-02 0.79904495E+02</pdfrwt>
<pdfrwt beam="2">  1       -2 0.29347405E-01 0.79904495E+02</pdfrwt>
<totfact> 0.86963835E+04</totfact>
</mgrwt>
</event>
<event>
 8    1  0.1372337E-020  0.8052534E+02  0.7818608E-02  0.1327567E+00
         -2   -1    0    0    0  501 -0.00000000000E+00  0.00000000000E+00  0.28419965088E+02  0.28419965202E+02  0.25500000000E-02 0.  1.
          1   -1    0    0  501    0  0.00000000000E+00 -0.00000000000E+00 -0.57040273592E+02  0.57040273815E+02  0.50400000000E-02 0. -1.
        -24    2    1    2    0    0  0.00000000000E+00  0.00000000000E+00 -0.28620308504E+02  0.85460239017E+02  0.80525340074E+02 0.  0.
         66    2    3    3    0    0 -0.35664073144E+01  0.37992152014E+02 -0.77127303168E+00  0.38219337072E+02  0.19999970768E+01 0.  0.
         13    1    3    3    0    0  0.35664073144E+01 -0.37992152014E+02 -0.27849035473E+02  0.47240901945E+02  0.10566000000E+00 0. -1.
         13    1    4    4    0    0 -0.33111137055E+00  0.11985966764E+01 -0.16774623951E+00  0.12591948097E+01  0.10566000000E+00 0. -1.
        -13    1    4    4    0    0 -0.13126802286E+01  0.95630520684E+01 -0.38493767807E+00  0.96609748627E+01  0.10566000000E+00 0. -1.
        -14    1    4    4    0    0 -0.19226157153E+01  0.27230503270E+02 -0.21858911410E+00  0.27299167399E+02  0.00000000000E+00 0.  1.
<mgrwt>
<rscale>  0 0.80525340E+02</rscale>
<asrwt>0</asrwt>
<pdfrwt beam="1">  1        1 0.87754267E-02 0.80525340E+02</pdfrwt>
<pdfrwt beam="2">  1       -2 0.43723024E-02 0.80525340E+02</pdfrwt>
<totfact> 0.13190806E+05</totfact>
</mgrwt>
</event>
<event>
 8    1  0.1372337E-020  0.8083648E+02  0.7818608E-02  0.1326694E+00
          1   -1    0    0  501    0  0.00000000000E+00  0.00000000000E+00  0.57663733784E+01  0.57663755810E+01  0.50400000000E-02 0. -1.
         -2   -1    0    0    0  501 -0.00000000000E+00 -0.00000000000E+00 -0.28330353481E+03  0.28330353482E+03  0.25500000000E-02 0.  1.
        -24    2    1    2    0    0  0.00000000000E+00  0.00000000000E+00 -0.27753716143E+03  0.28906991040E+03  0.80836483870E+02 0.  0.
         66    2    3    3    0    0 -0.12536087396E+02  0.36556104571E+02 -0.18088091088E+03  0.18497406897E+03  0.20000005568E+01 0.  0.
         13    1    3    3    0    0  0.12536087396E+02 -0.36556104571E+02 -0.96656250553E+02  0.10409584143E+03  0.10566000000E+00 0. -1.
         13    1    4    4    0    0 -0.21588970293E+01  0.74692867992E+01 -0.38797871404E+02  0.39569395638E+02  0.10566000000E+00 0. -1.
        -13    1    4    4    0    0 -0.50157948511E+01  0.14565460232E+02 -0.73295108960E+02  0.74896561946E+02  0.10566000000E+00 0.  1.
         14    1    4    4    0    0 -0.53613955154E+01  0.14521357540E+02 -0.68787930511E+02  0.70508111383E+02  0.00000000000E+00 0. -1.
<mgrwt>
<rscale>  0 0.80836484E+02</rscale>
<asrwt>0</asrwt>
<pdfrwt beam="1">  1        1 0.88713476E-03 0.80836484E+02</pdfrwt>
<pdfrwt beam="2">  1       -2 0.43585148E-01 0.80836484E+02</pdfrwt>
<totfact> 0.70525784E+04</totfact>
</mgrwt>
</event>
<event>
 8    1  0.1372337E-020  0.8409220E+02  0.7818608E-02  0.1317824E+00
          1   -1    0    0  501    0  0.00000000000E+00  0.00000000000E+00  0.95100188214E+02  0.95100188347E+02  0.50400000000E-02 0. -1.
         -2   -1    0    0    0  501 -0.00000000000E+00 -0.00000000000E+00 -0.18589600956E+02  0.18589601131E+02  0.25500000000E-02 0.  1.
        -24    2    1    2    0    0  0.00000000000E+00 -0.35527136788E-14  0.76510587258E+02  0.11368978948E+03  0.84092201001E+02 0.  0.
         66    2    3    3    0    0  0.37100163179E+01 -0.27116023206E+02 -0.48342369312E+01  0.27864184197E+02  0.19999946749E+01 0.  0.
         13    1    3    3    0    0 -0.37100163179E+01  0.27116023206E+02  0.81344824189E+02  0.85825605281E+02  0.10566000000E+00 0. -1.
         13    1    4    4    0    0  0.20160687141E+01 -0.10078551748E+02 -0.20608804338E+01  0.10483326314E+02  0.10566000000E+00 0. -1.
        -13    1    4    4    0    0  0.13581821007E+01 -0.12599004313E+02 -0.15657370445E+01  0.12768800445E+02  0.10566000000E+00 0.  1.
         14    1    4    4    0    0  0.33576550317E+00 -0.44384671449E+01 -0.12076194529E+01  0.46120574381E+01  0.00000000000E+00 0. -1.
<mgrwt>
<rscale>  0 0.84092201E+02</rscale>
<asrwt>0</asrwt>
<pdfrwt beam="1">  1        1 0.14630798E-01 0.84092201E+02</pdfrwt>
<pdfrwt beam="2">  1       -2 0.28599386E-02 0.84092201E+02</pdfrwt>
<totfact> 0.12728979E+05</totfact>
</mgrwt>
</event>
<event>
 8    1  0.1372337E-020  0.8071926E+02  0.7818608E-02  0.1327023E+00
          1   -1    0    0  501    0  0.00000000000E+00  0.00000000000E+00  0.22359717605E+02  0.22359718173E+02  0.50400000000E-02 0. -1.
         -2   -1    0    0    0  501 -0.00000000000E+00 -0.00000000000E+00 -0.72849740746E+02  0.72849740790E+02  0.25500000000E-02 0.  1.
        -24    2    1    2    0    0 -0.17763568394E-14  0.00000000000E+00 -0.50490023141E+02  0.95209458963E+02  0.80719258169E+02 0.  0.
         66    2    3    3    0    0  0.11776035239E+02  0.24077723615E+01 -0.70674377792E+02  0.71717083383E+02  0.19999997577E+01 0.  0.
         13    1    3    3    0    0 -0.11776035239E+02 -0.24077723615E+01  0.20184354651E+02  0.23492375580E+02  0.10566000000E+00 0. -1.
         13    1    4    4    0    0  0.34062233627E+00  0.95646991016E-01 -0.31411306912E+01  0.31627579701E+01  0.10566000000E+00 0. -1.
        -13    1    4    4    0    0  0.57416531882E+01  0.14875460665E+01 -0.29761885617E+02  0.30347328945E+02  0.10566000000E+00 0.  1.
        -14    1    4    4    0    0  0.56937597149E+01  0.82457930402E+00 -0.37771361484E+02  0.38206996467E+02  0.00000000000E+00 0.  1.
<mgrwt>
<rscale>  0 0.80719258E+02</rscale>
<asrwt>0</asrwt>
<pdfrwt beam="1">  1        1 0.34399566E-02 0.80719258E+02</pdfrwt>
<pdfrwt beam="2">  1       -2 0.11207652E-01 0.80719258E+02</pdfrwt>
<totfact> 0.11141914E+05</totfact>
</mgrwt>
</event>
<event>
 8    1  0.1372337E-020  0.8307738E+02  0.7818608E-02  0.1320538E+00
         -2   -1    0    0    0  501 -0.00000000000E+00  0.00000000000E+00  0.76169968544E+01  0.76169972812E+01  0.25500000000E-02 0.  1.
          1   -1    0    0  501    0  0.00000000000E+00 -0.00000000000E+00 -0.22652795493E+03  0.22652795498E+03  0.50400000000E-02 0. -1.
        -24    2    1    2    0    0  0.00000000000E+00  0.00000000000E+00 -0.21891095807E+03  0.23414495226E+03  0.83077380234E+02 0.  0.
         66    2    3    3    0    0 -0.31408482334E+02  0.57479218562E+01 -0.34742151942E+02  0.47228683085E+02  0.20000040471E+01 0.  0.
         13    1    3    3    0    0  0.31408482334E+02 -0.57479218562E+01 -0.18416880613E+03  0.18691626918E+03  0.10566000000E+00 0. -1.
         13    1    4    4    0    0 -0.45704914021E+01  0.13756442581E+01 -0.55445862243E+01  0.73167881762E+01  0.10566000000E+00 0. -1.
        -13    1    4    4    0    0 -0.21445372449E+01  0.52104799021E+00 -0.20848224500E+01  0.30377919097E+01  0.10566000000E+00 0.  1.
        -14    1    4    4    0    0 -0.24693453687E+02  0.38512296079E+01 -0.27112743268E+02  0.36874102999E+02  0.00000000000E+00 0.  1.
<mgrwt>
<rscale>  0 0.83077380E+02</rscale>
<asrwt>0</asrwt>
<pdfrwt beam="1">  1        1 0.34850450E-01 0.83077380E+02</pdfrwt>
<pdfrwt beam="2">  1       -2 0.11718459E-02 0.83077380E+02</pdfrwt>
<totfact> 0.15454910E+05</totfact>
</mgrwt>
</event>
<event>
 8    1  0.1372337E-020  0.8055570E+02  0.7818608E-02  0.1327482E+00
          1   -1    0    0  501    0  0.00000000000E+00  0.00000000000E+00  0.21853499630E+02  0.21853500211E+02  0.50400000000E-02 0. -1.
         -2   -1    0    0    0  501 -0.00000000000E+00 -0.00000000000E+00 -0.74235489468E+02  0.74235489512E+02  0.25500000000E-02 0.  1.
        -24    2    1    2    0    0  0.17763568394E-14  0.00000000000E+00 -0.52381989838E+02  0.96088989723E+02  0.80555701763E+02 0.  0.
         66    2    3    3    0    0  0.43153922332E+01 -0.14787122298E+02 -0.70567076943E+02  0.72256445733E+02  0.20000014360E+01 0.  0.
         13    1    3    3    0    0 -0.43153922332E+01  0.14787122298E+02  0.18185087105E+02  0.23832543990E+02  0.10566000000E+00 0. -1.
         13    1    4    4    0    0  0.22875694297E+00 -0.20615667288E+01 -0.77284152195E+01  0.80026216302E+01  0.10566000000E+00 0. -1.
        -13    1    4    4    0    0  0.11681827914E+01 -0.36652389564E+01 -0.15823074264E+02  0.16284332066E+02  0.10566000000E+00 0.  1.
         14    1    4    4    0    0  0.29184524988E+01 -0.90603166127E+01 -0.47015587460E+02  0.47969492037E+02  0.00000000000E+00 0. -1.
<mgrwt>
<rscale>  0 0.80555702E+02</rscale>
<asrwt>0</asrwt>
<pdfrwt beam="1">  1        1 0.33620770E-02 0.80555702E+02</pdfrwt>
<pdfrwt beam="2">  1       -2 0.11420844E-01 0.80555702E+02</pdfrwt>
<totfact> 0.11156020E+05</totfact>
</mgrwt>
</event>
<event>
 8    1  0.1372337E-020  0.8308086E+02  0.7818608E-02  0.1320529E+00
          1   -1    0    0  501    0  0.00000000000E+00  0.00000000000E+00  0.63151936482E+02  0.63151936683E+02  0.50400000000E-02 0. -1.
         -2   -1    0    0    0  501 -0.00000000000E+00 -0.00000000000E+00 -0.27324690831E+02  0.27324690950E+02  0.25500000000E-02 0.  1.
        -24    2    1    2    0    0 -0.71054273576E-14 -0.88817841970E-15  0.35827245651E+02  0.90476627633E+02  0.83080855899E+02 0.  0.
         66    2    3    3    0    0  0.38195559063E+02 -0.56528610843E+01  0.13098645494E+01  0.38685544108E+02  0.20000017881E+01 0.  0.
         13    1    3    3    0    0 -0.38195559063E+02  0.56528610843E+01  0.34517381102E+02  0.51791083526E+02  0.10566000000E+00 0. -1.
         13    1    4    4    0    0  0.34242858893E+01 -0.51284508631E+00 -0.19368395202E+00  0.34694987308E+01  0.10566000000E+00 0. -1.
        -13    1    4    4    0    0  0.93332841293E+01 -0.81674828810E+00  0.39086521666E-03  0.93695482598E+01  0.10566000000E+00 0.  1.
        -14    1    4    4    0    0  0.25437989045E+02 -0.43232677099E+01  0.15031576362E+01  0.25846497117E+02  0.00000000000E+00 0.  1.
<mgrwt>
<rscale>  0 0.83080856E+02</rscale>
<asrwt>0</asrwt>
<pdfrwt beam="1">  1        1 0.97156825E-02 0.83080856E+02</pdfrwt>
<pdfrwt beam="2">  1       -2 0.42037986E-02 0.83080856E+02</pdfrwt>
<totfact> 0.12296697E+05</totfact>
</mgrwt>
</event>
<event>
 8    1  0.1372337E-020  0.7509703E+02  0.7818608E-02  0.1343571E+00
          1   -1    0    0  501    0  0.00000000000E+00  0.00000000000E+00  0.49933469224E+01  0.49933494659E+01  0.50400000000E-02 0. -1.
         -2   -1    0    0    0  501 -0.00000000000E+00 -0.00000000000E+00 -0.28235382307E+03  0.28235382308E+03  0.25500000000E-02 0.  1.
        -24    2    1    2    0    0  0.00000000000E+00  0.00000000000E+00 -0.27736047614E+03  0.28734717254E+03  0.75097029516E+02 0.  0.
         66    2    3    3    0    0 -0.33794235576E+02 -0.68534193740E+01 -0.82170863246E+02  0.89135124821E+02  0.19999987310E+01 0.  0.
         13    1    3    3    0    0  0.33794235576E+02  0.68534193740E+01 -0.19518961290E+03  0.19821204772E+03  0.10566000000E+00 0. -1.
         13    1    4    4    0    0 -0.12497981161E+02 -0.17420071793E+01 -0.29828063320E+02  0.32387631089E+02  0.10566000000E+00 0. -1.
        -13    1    4    4    0    0 -0.16978742799E+02 -0.40967428046E+01 -0.40764618968E+02  0.44348915796E+02  0.10566000000E+00 0.  1.
         14    1    4    4    0    0 -0.43175116167E+01 -0.10146693900E+01 -0.11578180958E+02  0.12398577936E+02  0.00000000000E+00 0. -1.
<mgrwt>
<rscale>  0 0.75097030E+02</rscale>
<asrwt>0</asrwt>
<pdfrwt beam="1">  1        1 0.76820764E-03 0.75097030E+02</pdfrwt>
<pdfrwt beam="2">  1       -2 0.43439037E-01 0.75097030E+02</pdfrwt>
<totfact> 0.85422016E+04</totfact>
</mgrwt>
</event>
<event>
 8    1  0.1372337E-020  0.7970047E+02  0.7818608E-02  0.1329904E+00
         -2   -1    0    0    0  501 -0.00000000000E+00  0.00000000000E+00  0.11111603396E+02  0.11111603689E+02  0.25500000000E-02 0.  1.
          1   -1    0    0  501    0  0.00000000000E+00 -0.00000000000E+00 -0.14291738646E+03  0.14291738655E+03  0.50400000000E-02 0. -1.
        -24    2    1    2    0    0 -0.35527136788E-14  0.35527136788E-14 -0.13180578306E+03  0.15402899024E+03  0.79700472924E+02 0.  0.
         66    2    3    3    0    0  0.12529665142E+02 -0.25289790784E+02 -0.11643068218E+02  0.30596193828E+02  0.20000031881E+01 0.  0.
         13    1    3    3    0    0 -0.12529665142E+02  0.25289790784E+02 -0.12016271484E+03  0.12343279641E+03  0.10566000000E+00 0. -1.
         13    1    4    4    0    0  0.22058609600E+01 -0.42775655239E+01 -0.12442859283E+01  0.49722028210E+01  0.10566000000E+00 0. -1.
        -13    1    4    4    0    0  0.60059483404E+00 -0.14234815729E+01 -0.75646110867E+00  0.17234881455E+01  0.10566000000E+00 0.  1.
        -14    1    4    4    0    0  0.97232093477E+01 -0.19588743687E+02 -0.96423211815E+01  0.23900502861E+02  0.00000000000E+00 0.  1.
<mgrwt>
<rscale>  0 0.79700473E+02</rscale>
<asrwt>0</asrwt>
<pdfrwt beam="1">  1        1 0.21987289E-01 0.79700473E+02</pdfrwt>
<pdfrwt beam="2">  1       -2 0.17094776E-02 0.79700473E+02</pdfrwt>
<totfact> 0.15806644E+05</totfact>
</mgrwt>
</event>
<event>
 8    1  0.1372337E-020  0.7960592E+02  0.7818608E-02  0.1330174E+00
          1   -1    0    0  501    0  0.00000000000E+00  0.00000000000E+00  0.35738768453E+02  0.35738768809E+02  0.50400000000E-02 0. -1.
         -2   -1    0    0    0  501 -0.00000000000E+00 -0.00000000000E+00 -0.44329325124E+02  0.44329325197E+02  0.25500000000E-02 0.  1.
        -24    2    1    2    0    0  0.11102230246E-15  0.00000000000E+00 -0.85905566709E+01  0.80068094006E+02  0.79605916952E+02 0.  0.
         66    2    3    3    0    0  0.44762345868E+00 -0.36922849154E+02 -0.19174845954E+02  0.41655394282E+02  0.19999997676E+01 0.  0.
         13    1    3    3    0    0 -0.44762345868E+00  0.36922849154E+02  0.10584289283E+02  0.38412699724E+02  0.10566000000E+00 0. -1.
         13    1    4    4    0    0  0.34725144556E+00 -0.12423194846E+02 -0.68658844328E+01  0.14198869209E+02  0.10566000000E+00 0. -1.
        -13    1    4    4    0    0  0.59559546371E+00 -0.20355398267E+02 -0.10011830683E+02  0.22692397189E+02  0.10566000000E+00 0.  1.
         14    1    4    4    0    0 -0.49522345059E+00 -0.41442560411E+01 -0.22971308390E+01  0.47641278837E+01  0.00000000000E+00 0. -1.
<mgrwt>
<rscale>  0 0.79605917E+02</rscale>
<asrwt>0</asrwt>
<pdfrwt beam="1">  1        1 0.54982721E-02 0.79605917E+02</pdfrwt>
<pdfrwt beam="2">  1       -2 0.68198962E-02 0.79605917E+02</pdfrwt>
<totfact> 0.12639924E+05</totfact>
</mgrwt>
</event>
<event>
 8    1  0.1372337E-020  0.7965794E+02  0.7818608E-02  0.1330025E+00
          1   -1    0    0  501    0  0.00000000000E+00  0.00000000000E+00  0.29395316592E+02  0.29395317024E+02  0.50400000000E-02 0. -1.
         -2   -1    0    0    0  501 -0.00000000000E+00 -0.00000000000E+00 -0.53965965728E+02  0.53965965788E+02  0.25500000000E-02 0.  1.
        -24    2    1    2    0    0 -0.71054273576E-14  0.17763568394E-14 -0.24570649136E+02  0.83361282812E+02  0.79657935405E+02 0.  0.
         66    2    3    3    0    0 -0.37697192882E+02  0.89404717261E+01 -0.21846041109E+02  0.44522577390E+02  0.19999998656E+01 0.  0.
         13    1    3    3    0    0  0.37697192882E+02 -0.89404717261E+01 -0.27246080267E+01  0.38838705421E+02  0.10566000000E+00 0. -1.
         13    1    4    4    0    0 -0.27489430213E+02  0.66830855483E+01 -0.15042634596E+02  0.32040980408E+02  0.10566000000E+00 0. -1.
        -13    1    4    4    0    0 -0.24502195797E+01  0.69611837509E+00 -0.17616902019E+01  0.30988503004E+01  0.10566000000E+00 0.  1.
         14    1    4    4    0    0 -0.77575430896E+01  0.15612678027E+01 -0.50417163114E+01  0.93827466823E+01  0.00000000000E+00 0. -1.
<mgrwt>
<rscale>  0 0.79657935E+02</rscale>
<asrwt>0</asrwt>
<pdfrwt beam="1">  1        1 0.45223565E-02 0.79657935E+02</pdfrwt>
<pdfrwt beam="2">  1       -2 0.83024563E-02 0.79657935E+02</pdfrwt>
<totfact> 0.12200602E+05</totfact>
</mgrwt>
</event>
<event>
 8    1  0.1372337E-020  0.8006926E+02  0.7818608E-02  0.1328855E+00
         -2   -1    0    0    0  501 -0.00000000000E+00  0.00000000000E+00  0.43880220648E+02  0.43880220723E+02  0.25500000000E-02 0.  1.
          1   -1    0    0  501    0  0.00000000000E+00 -0.00000000000E+00 -0.36526058231E+02  0.36526058578E+02  0.50400000000E-02 0. -1.
        -24    2    1    2    0    0  0.00000000000E+00  0.00000000000E+00  0.73541624178E+01  0.80406279301E+02  0.80069257809E+02 0.  0.
         66    2    3    3    0    0  0.11294928851E+02 -0.16046247956E+02  0.38693148285E+02  0.43430602290E+02  0.19999999769E+01 0.  0.
         13    1    3    3    0    0 -0.11294928851E+02  0.16046247956E+02 -0.31338985867E+02  0.36975677011E+02  0.10566000000E+00 0. -1.
         13    1    4    4    0    0  0.26098267484E+01 -0.28070597457E+01  0.80591736186E+01  0.89248094391E+01  0.10566000000E+00 0. -1.
        -13    1    4    4    0    0  0.64008485719E+01 -0.95610863680E+01  0.23377452936E+02  0.26055742261E+02  0.10566000000E+00 0.  1.
        -14    1    4    4    0    0  0.22842535302E+01 -0.36781018424E+01  0.72565217301E+01  0.84500505900E+01  0.00000000000E+00 0.  1.
<mgrwt>
<rscale>  0 0.80069258E+02</rscale>
<asrwt>0</asrwt>
<pdfrwt beam="1">  1        1 0.56193936E-02 0.80069258E+02</pdfrwt>
<pdfrwt beam="2">  1       -2 0.67508032E-02 0.80069258E+02</pdfrwt>
<totfact> 0.12478781E+05</totfact>
</mgrwt>
</event>
<event>
 8    1  0.1372337E-020  0.7802426E+02  0.7818608E-02  0.1334754E+00
         -2   -1    0    0    0  501 -0.00000000000E+00  0.00000000000E+00  0.39728440729E+02  0.39728440811E+02  0.25500000000E-02 0.  1.
          1   -1    0    0  501    0  0.00000000000E+00 -0.00000000000E+00 -0.38308730972E+02  0.38308731304E+02  0.50400000000E-02 0. -1.
        -24    2    1    2    0    0 -0.17763568394E-14  0.00000000000E+00  0.14197097567E+01  0.78037172114E+02  0.78024256842E+02 0.  0.
         66    2    3    3    0    0 -0.15511020536E+02  0.35762150907E+02  0.13569884217E+01  0.39055916445E+02  0.19999990702E+01 0.  0.
         13    1    3    3    0    0  0.15511020536E+02 -0.35762150907E+02  0.62721334993E-01  0.38981255669E+02  0.10566000000E+00 0. -1.
         13    1    4    4    0    0 -0.12696957942E+01  0.19295913201E+01 -0.14339226387E+00  0.23167165233E+01  0.10566000000E+00 0. -1.
        -13    1    4    4    0    0 -0.11047731860E+02  0.26042167777E+02  0.11131298240E+01  0.28310724183E+02  0.10566000000E+00 0.  1.
         14    1    4    4    0    0 -0.31935928820E+01  0.77903918099E+01  0.38725086159E+00  0.84284757387E+01  0.00000000000E+00 0. -1.
<mgrwt>
<rscale>  0 0.78024257E+02</rscale>
<asrwt>0</asrwt>
<pdfrwt beam="1">  1        1 0.58936510E-02 0.78024257E+02</pdfrwt>
<pdfrwt beam="2">  1       -2 0.61120678E-02 0.78024257E+02</pdfrwt>
<totfact> 0.13529022E+05</totfact>
</mgrwt>
</event>
<event>
 8    1  0.1372337E-020  0.7772016E+02  0.7818608E-02  0.1335649E+00
          1   -1    0    0  501    0  0.00000000000E+00  0.00000000000E+00  0.70164616729E+01  0.70164634830E+01  0.50400000000E-02 0. -1.
         -2   -1    0    0    0  501 -0.00000000000E+00 -0.00000000000E+00 -0.21522326748E+03  0.21522326750E+03  0.25500000000E-02 0.  1.
        -24    2    1    2    0    0  0.00000000000E+00  0.00000000000E+00 -0.20820680581E+03  0.22223973098E+03  0.77720164957E+02 0.  0.
         66    2    3    3    0    0 -0.20012821124E+02 -0.21772069613E+02 -0.17614746741E+03  0.17862381225E+03  0.20000002552E+01 0.  0.
         13    1    3    3    0    0  0.20012821124E+02  0.21772069613E+02 -0.32059338399E+02  0.43615918736E+02  0.10566000000E+00 0. -1.
         13    1    4    4    0    0 -0.95417314260E+00 -0.13242764945E+01 -0.87534133033E+01  0.89049179173E+01  0.10566000000E+00 0. -1.
        -13    1    4    4    0    0 -0.17624841342E+02 -0.18266074064E+02 -0.15125151658E+03  0.15336660955E+03  0.10566000000E+00 0.  1.
        -14    1    4    4    0    0 -0.14338066400E+01 -0.21817190547E+01 -0.16142537533E+02  0.16352284780E+02  0.00000000000E+00 0.  1.
<mgrwt>
<rscale>  0 0.77720165E+02</rscale>
<asrwt>0</asrwt>
<pdfrwt beam="1">  1        1 0.10794560E-02 0.77720165E+02</pdfrwt>
<pdfrwt beam="2">  1       -2 0.33111267E-01 0.77720165E+02</pdfrwt>
<totfact> 0.88901133E+04</totfact>
</mgrwt>
</event>
<event>
 8    1  0.1372337E-020  0.8145083E+02  0.7818608E-02  0.1324984E+00
         -2   -1    0    0    0  501 -0.00000000000E+00  0.00000000000E+00  0.50164381725E+02  0.50164381790E+02  0.25500000000E-02 0.  1.
          1   -1    0    0  501    0  0.00000000000E+00 -0.00000000000E+00 -0.33062489081E+02  0.33062489465E+02  0.50400000000E-02 0. -1.
        -24    2    1    2    0    0 -0.35527136788E-14  0.00000000000E+00  0.17101892644E+02  0.83226871255E+02  0.81450827908E+02 0.  0.
         66    2    3    3    0    0 -0.17000810636E+02  0.25869155838E+02  0.35557924249E+02  0.47186934343E+02  0.20000024397E+01 0.  0.
         13    1    3    3    0    0  0.17000810636E+02 -0.25869155838E+02 -0.18456031604E+02  0.36039936912E+02  0.10566000000E+00 0. -1.
         13    1    4    4    0    0 -0.11194516102E+02  0.17742409181E+02  0.24747158633E+02  0.32442923709E+02  0.10566000000E+00 0. -1.
        -13    1    4    4    0    0 -0.28121968128E+01  0.41810979629E+01  0.60461822388E+01  0.78713095982E+01  0.10566000000E+00 0.  1.
         14    1    4    4    0    0 -0.29940977209E+01  0.39456486934E+01  0.47645833763E+01  0.68727010355E+01  0.00000000000E+00 0. -1.
<mgrwt>
<rscale>  0 0.81450828E+02</rscale>
<asrwt>0</asrwt>
<pdfrwt beam="1">  1        1 0.50865369E-02 0.81450828E+02</pdfrwt>
<pdfrwt beam="2">  1       -2 0.77175972E-02 0.81450828E+02</pdfrwt>
<totfact> 0.11684998E+05</totfact>
</mgrwt>
</event>
<event>
 8    1  0.1372337E-020  0.7930527E+02  0.7818608E-02  0.1331035E+00
          1   -1    0    0  501    0  0.00000000000E+00  0.00000000000E+00  0.12520591066E+02  0.12520592080E+02  0.50400000000E-02 0. -1.
         -2   -1    0    0    0  501 -0.00000000000E+00 -0.00000000000E+00 -0.12557963141E+03  0.12557963144E+03  0.25500000000E-02 0.  1.
        -24    2    1    2    0    0  0.00000000000E+00  0.00000000000E+00 -0.11305904035E+03  0.13810022352E+03  0.79305265472E+02 0.  0.
         66    2    3    3    0    0 -0.23900425617E+01 -0.13212875834E+02 -0.12148934136E+03  0.12224545986E+03  0.20000005539E+01 0.  0.
         13    1    3    3    0    0  0.23900425617E+01  0.13212875834E+02  0.84303010139E+01  0.15854763653E+02  0.10566000000E+00 0. -1.
         13    1    4    4    0    0 -0.71615628038E-01 -0.26287425759E+00 -0.11374024595E+01  0.11743423964E+01  0.10566000000E+00 0. -1.
        -13    1    4    4    0    0 -0.78350292579E+00 -0.60005665838E+01 -0.53297829023E+02  0.53640380487E+02  0.10566000000E+00 0.  1.
         14    1    4    4    0    0 -0.15349240078E+01 -0.69494349930E+01 -0.67054109877E+02  0.67430736981E+02  0.00000000000E+00 0. -1.
<mgrwt>
<rscale>  0 0.79305265E+02</rscale>
<asrwt>0</asrwt>
<pdfrwt beam="1">  1        1 0.19262450E-02 0.79305265E+02</pdfrwt>
<pdfrwt beam="2">  1       -2 0.19319942E-01 0.79305265E+02</pdfrwt>
<totfact> 0.10210375E+05</totfact>
</mgrwt>
</event>
<event>
 8    1  0.1372337E-020  0.8018681E+02  0.7818608E-02  0.1328522E+00
          1   -1    0    0  501    0  0.00000000000E+00  0.00000000000E+00  0.10385895368E+03  0.10385895381E+03  0.50400000000E-02 0. -1.
         -2   -1    0    0    0  501 -0.00000000000E+00 -0.00000000000E+00 -0.15477538061E+02  0.15477538271E+02  0.25500000000E-02 0.  1.
        -24    2    1    2    0    0 -0.17763568394E-14  0.71054273576E-14  0.88381415624E+02  0.11933649208E+03  0.80186805110E+02 0.  0.
         66    2    3    3    0    0  0.62862892851E+01 -0.28590110530E+02  0.35002697694E+01  0.29549344119E+02  0.19999990751E+01 0.  0.
         13    1    3    3    0    0 -0.62862892851E+01  0.28590110530E+02  0.84881145854E+02  0.89787147959E+02  0.10566000000E+00 0. -1.
         13    1    4    4    0    0  0.37285652628E+00 -0.23125450550E+01  0.38360188727E+00  0.23759631866E+01  0.10566000000E+00 0. -1.
        -13    1    4    4    0    0  0.43957957317E+01 -0.20891383403E+02  0.31308943826E+01  0.21577455463E+02  0.10566000000E+00 0.  1.
         14    1    4    4    0    0  0.15176370271E+01 -0.53861820718E+01 -0.14226500469E-01  0.55959254686E+01  0.00000000000E+00 0. -1.
<mgrwt>
<rscale>  0 0.80186805E+02</rscale>
<asrwt>0</asrwt>
<pdfrwt beam="1">  1        1 0.15978301E-01 0.80186805E+02</pdfrwt>
<pdfrwt beam="2">  1       -2 0.23811596E-02 0.80186805E+02</pdfrwt>
<totfact> 0.14700555E+05</totfact>
</mgrwt>
</event>
<event>
 8    1  0.1372337E-020  0.8327616E+02  0.7818608E-02  0.1320003E+00
         -2   -1    0    0    0  501 -0.00000000000E+00  0.00000000000E+00  0.23234714979E+02  0.23234715119E+02  0.25500000000E-02 0.  1.
          1   -1    0    0  501    0  0.00000000000E+00 -0.00000000000E+00 -0.74618078690E+02  0.74618078860E+02  0.50400000000E-02 0. -1.
        -24    2    1    2    0    0  0.71054273576E-14  0.00000000000E+00 -0.51383363711E+02  0.97852793979E+02  0.83276162395E+02 0.  0.
         66    2    3    3    0    0  0.38961562486E+02 -0.27396519541E+01 -0.88326380986E+01  0.40093946532E+02  0.20000021269E+01 0.  0.
         13    1    3    3    0    0 -0.38961562486E+02  0.27396519541E+01 -0.42550725613E+02  0.57758847447E+02  0.10566000000E+00 0. -1.
         13    1    4    4    0    0  0.24611430956E+01  0.18503465772E+00 -0.77964960643E+00  0.25904595550E+01  0.10566000000E+00 0. -1.
        -13    1    4    4    0    0  0.47762826068E+01 -0.63347887492E+00 -0.12126875165E+01  0.49695015920E+01  0.10566000000E+00 0.  1.
        -14    1    4    4    0    0  0.31724136784E+02 -0.22912077369E+01 -0.68403009757E+01  0.32533985385E+02  0.00000000000E+00 0.  1.
<mgrwt>
<rscale>  0 0.83276162E+02</rscale>
<asrwt>0</asrwt>
<pdfrwt beam="1">  1        1 0.11479704E-01 0.83276162E+02</pdfrwt>
<pdfrwt beam="2">  1       -2 0.35745716E-02 0.83276162E+02</pdfrwt>
<totfact> 0.12553299E+05</totfact>
</mgrwt>
</event>
<event>
 8    1  0.1372337E-020  0.8019943E+02  0.7818608E-02  0.1328486E+00
         -2   -1    0    0    0  501 -0.00000000000E+00  0.00000000000E+00  0.11069828268E+02  0.11069828561E+02  0.25500000000E-02 0.  1.
          1   -1    0    0  501    0  0.00000000000E+00 -0.00000000000E+00 -0.14525852588E+03  0.14525852597E+03  0.50400000000E-02 0. -1.
        -24    2    1    2    0    0  0.00000000000E+00  0.17763568394E-14 -0.13418869762E+03  0.15632835453E+03  0.80199425578E+02 0.  0.
         66    2    3    3    0    0  0.22595621657E+02 -0.13583417588E+02 -0.83052075544E+01  0.27713675800E+02  0.20000005932E+01 0.  0.
         13    1    3    3    0    0 -0.22595621657E+02  0.13583417588E+02 -0.12588349006E+03  0.12861467873E+03  0.10566000000E+00 0. -1.
         13    1    4    4    0    0  0.34761916766E+01 -0.16243497706E+01 -0.95820508358E+00  0.39562282249E+01  0.10566000000E+00 0. -1.
        -13    1    4    4    0    0  0.13206697788E+02 -0.82539836546E+01 -0.44074503457E+01  0.16185854788E+02  0.10566000000E+00 0.  1.
        -14    1    4    4    0    0  0.59127321929E+01 -0.37050841629E+01 -0.29395521251E+01  0.75715927872E+01  0.00000000000E+00 0.  1.
<mgrwt>
<rscale>  0 0.80199426E+02</rscale>
<asrwt>0</asrwt>
<pdfrwt beam="1">  1        1 0.22347464E-01 0.80199426E+02</pdfrwt>
<pdfrwt beam="2">  1       -2 0.17030506E-02 0.80199426E+02</pdfrwt>
<totfact> 0.15591284E+05</totfact>
</mgrwt>
</event>
<event>
 8    1  0.1372337E-020  0.7965516E+02  0.7818608E-02  0.1330033E+00
          1   -1    0    0  501    0  0.00000000000E+00  0.00000000000E+00  0.34103713977E+01  0.34103751219E+01  0.50400000000E-02 0. -1.
         -2   -1    0    0    0  501 -0.00000000000E+00 -0.00000000000E+00 -0.46512099815E+03  0.46512099816E+03  0.25500000000E-02 0.  1.
        -24    2    1    2    0    0  0.00000000000E+00  0.00000000000E+00 -0.46171062676E+03  0.46853137328E+03  0.79655162361E+02 0.  0.
         66    2    3    3    0    0 -0.23259389896E+02 -0.67790978944E+01 -0.41675197709E+03  0.41746037632E+03  0.20000013851E+01 0.  0.
         13    1    3    3    0    0  0.23259389896E+02  0.67790978944E+01 -0.44958649671E+02  0.51070996963E+02  0.10566000000E+00 0. -1.
         13    1    4    4    0    0 -0.13654711482E+02 -0.31881195992E+01 -0.23901822130E+03  0.23942918897E+03  0.10566000000E+00 0. -1.
        -13    1    4    4    0    0 -0.86205703076E+01 -0.33455465871E+01 -0.15611803368E+03  0.15639168302E+03  0.10566000000E+00 0.  1.
        -14    1    4    4    0    0 -0.98410810581E+00 -0.24543170810E+00 -0.21615722109E+02  0.21639504333E+02  0.00000000000E+00 0.  1.
<mgrwt>
<rscale>  0 0.79655162E+02</rscale>
<asrwt>0</asrwt>
<pdfrwt beam="1">  1        1 0.52467318E-03 0.79655162E+02</pdfrwt>
<pdfrwt beam="2">  1       -2 0.71557027E-01 0.79655162E+02</pdfrwt>
<totfact> 0.53791662E+04</totfact>
</mgrwt>
</event>
<event>
 8    1  0.1372337E-020  0.8095942E+02  0.7818608E-02  0.1326351E+00
          1   -1    0    0  501    0  0.00000000000E+00  0.00000000000E+00  0.99898326409E+01  0.99898339123E+01  0.50400000000E-02 0. -1.
         -2   -1    0    0    0  501 -0.00000000000E+00 -0.00000000000E+00 -0.16402745607E+03  0.16402745609E+03  0.25500000000E-02 0.  1.
        -24    2    1    2    0    0 -0.17763568394E-14  0.00000000000E+00 -0.15403762343E+03  0.17401729000E+03  0.80959420625E+02 0.  0.
         66    2    3    3    0    0  0.10992666621E+02  0.36605221242E+02 -0.10556670422E+03  0.11229029336E+03  0.20000002653E+01 0.  0.
         13    1    3    3    0    0 -0.10992666621E+02 -0.36605221242E+02 -0.48470919208E+02  0.61726996643E+02  0.10566000000E+00 0. -1.
         13    1    4    4    0    0  0.39218313713E-01  0.40729788455E+00 -0.86302795852E+00  0.96094273278E+00  0.10566000000E+00 0. -1.
        -13    1    4    4    0    0  0.86027625994E+01  0.29791638199E+02 -0.85621554053E+02  0.91063773881E+02  0.10566000000E+00 0.  1.
        -14    1    4    4    0    0  0.23506857075E+01  0.64062851584E+01 -0.19082122209E+02  0.20265576745E+02  0.00000000000E+00 0.  1.
<mgrwt>
<rscale>  0 0.80959421E+02</rscale>
<asrwt>0</asrwt>
<pdfrwt beam="1">  1        1 0.15368976E-02 0.80959421E+02</pdfrwt>
<pdfrwt beam="2">  1       -2 0.25234991E-01 0.80959421E+02</pdfrwt>
<totfact> 0.88912924E+04</totfact>
</mgrwt>
</event>
<event>
 8    1  0.1372337E-020  0.8029043E+02  0.7818608E-02  0.1328229E+00
          1   -1    0    0  501    0  0.00000000000E+00  0.00000000000E+00  0.43235261760E+01  0.43235291136E+01  0.50400000000E-02 0. -1.
         -2   -1    0    0    0  501 -0.00000000000E+00 -0.00000000000E+00 -0.37276007237E+03  0.37276007238E+03  0.25500000000E-02 0.  1.
        -24    2    1    2    0    0  0.00000000000E+00  0.00000000000E+00 -0.36843654619E+03  0.37708360149E+03  0.80290434941E+02 0.  0.
         66    2    3    3    0    0  0.32821415015E+02 -0.14151401611E+01 -0.29249301254E+03  0.29433893778E+03  0.20000005417E+01 0.  0.
         13    1    3    3    0    0 -0.32821415015E+02  0.14151401611E+01 -0.75943533650E+02  0.82744663711E+02  0.10566000000E+00 0. -1.
         13    1    4    4    0    0  0.22844383143E+02 -0.13410699362E+01 -0.20495079391E+03  0.20622440059E+03  0.10566000000E+00 0. -1.
        -13    1    4    4    0    0  0.66709316289E+01 -0.43727899921E+00 -0.56189100091E+02  0.56585498803E+02  0.10566000000E+00 0.  1.
         14    1    4    4    0    0  0.33061002429E+01  0.36320877428E+00 -0.31353118542E+02  0.31529038389E+02  0.00000000000E+00 0. -1.
<mgrwt>
<rscale>  0 0.80290435E+02</rscale>
<asrwt>0</asrwt>
<pdfrwt beam="1">  1        1 0.66515840E-03 0.80290435E+02</pdfrwt>
<pdfrwt beam="2">  1       -2 0.57347678E-01 0.80290435E+02</pdfrwt>
<totfact> 0.61276878E+04</totfact>
</mgrwt>
</event>
<event>
 8    1  0.1372337E-020  0.7952916E+02  0.7818608E-02  0.1330393E+00
          1   -1    0    0  501    0  0.00000000000E+00  0.00000000000E+00  0.17176385631E+02  0.17176386371E+02  0.50400000000E-02 0. -1.
         -2   -1    0    0    0  501 -0.00000000000E+00 -0.00000000000E+00 -0.92057890664E+02  0.92057890700E+02  0.25500000000E-02 0.  1.
        -24    2    1    2    0    0  0.71054273576E-14 -0.17763568394E-14 -0.74881505033E+02  0.10923427707E+03  0.79529161262E+02 0.  0.
         66    2    3    3    0    0  0.28966265058E+02 -0.80318680441E+01 -0.73166741202E+02  0.79126022476E+02  0.19999997794E+01 0.  0.
         13    1    3    3    0    0 -0.28966265058E+02  0.80318680441E+01 -0.17147638316E+01  0.30108254594E+02  0.10566000000E+00 0. -1.
         13    1    4    4    0    0  0.40251302285E+01 -0.10544720027E+01 -0.11163098043E+02  0.11913836767E+02  0.10566000000E+00 0. -1.
        -13    1    4    4    0    0  0.58201056525E+01 -0.21138647442E+01 -0.13715375085E+02  0.15048745188E+02  0.10566000000E+00 0.  1.
         14    1    4    4    0    0  0.19121029177E+02 -0.48635312972E+01 -0.48288268074E+02  0.52163440521E+02  0.00000000000E+00 0. -1.
<mgrwt>
<rscale>  0 0.79529161E+02</rscale>
<asrwt>0</asrwt>
<pdfrwt beam="1">  1        1 0.26425210E-02 0.79529161E+02</pdfrwt>
<pdfrwt beam="2">  1       -2 0.14162752E-01 0.79529161E+02</pdfrwt>
<totfact> 0.10991946E+05</totfact>
</mgrwt>
</event>
<event>
 8    1  0.1372337E-020  0.7841120E+02  0.7818608E-02  0.1333622E+00
         -2   -1    0    0    0  501 -0.00000000000E+00  0.00000000000E+00  0.92228311411E+02  0.92228311446E+02  0.25500000000E-02 0.  1.
          1   -1    0    0  501    0  0.00000000000E+00 -0.00000000000E+00 -0.16666023506E+02  0.16666024268E+02  0.50400000000E-02 0. -1.
        -24    2    1    2    0    0  0.00000000000E+00  0.00000000000E+00  0.75562287905E+02  0.10889433571E+03  0.78411204538E+02 0.  0.
         66    2    3    3    0    0 -0.11782291294E+02  0.13114670320E+02  0.86397515265E+02  0.88200610053E+02  0.20000010159E+01 0.  0.
         13    1    3    3    0    0  0.11782291294E+02 -0.13114670320E+02 -0.10835227360E+02  0.20693725661E+02  0.10566000000E+00 0. -1.
         13    1    4    4    0    0 -0.12023725993E+01  0.18212536986E+01  0.12296468024E+02  0.12489073417E+02  0.10566000000E+00 0. -1.
        -13    1    4    4    0    0 -0.17430282514E+01  0.13230632358E+01  0.11843021563E+02  0.12043959797E+02  0.10566000000E+00 0.  1.
        -14    1    4    4    0    0 -0.88368904431E+01  0.99703533860E+01  0.62258025678E+02  0.63667576840E+02  0.00000000000E+00 0.  1.
<mgrwt>
<rscale>  0 0.78411205E+02</rscale>
<asrwt>0</asrwt>
<pdfrwt beam="1">  1        1 0.25640037E-02 0.78411205E+02</pdfrwt>
<pdfrwt beam="2">  1       -2 0.14188971E-01 0.78411205E+02</pdfrwt>
<totfact> 0.11391761E+05</totfact>
</mgrwt>
</event>
<event>
 8    1  0.1372337E-020  0.8265635E+02  0.7818608E-02  0.1321678E+00
         -2   -1    0    0    0  501 -0.00000000000E+00  0.00000000000E+00  0.38664739198E+02  0.38664739282E+02  0.25500000000E-02 0.  1.
          1   -1    0    0  501    0  0.00000000000E+00 -0.00000000000E+00 -0.44175084381E+02  0.44175084668E+02  0.50400000000E-02 0. -1.
        -24    2    1    2    0    0  0.71054273576E-14 -0.35527136788E-14 -0.55103451825E+01  0.82839823950E+02  0.82656352013E+02 0.  0.
         66    2    3    3    0    0 -0.37265452003E+02 -0.17353135137E+02  0.12730794752E+01  0.41176036002E+02  0.19999993502E+01 0.  0.
         13    1    3    3    0    0  0.37265452003E+02  0.17353135137E+02 -0.67834246577E+01  0.41663787948E+02  0.10566000000E+00 0. -1.
         13    1    4    4    0    0 -0.23707221803E+02 -0.11980345794E+02  0.48189055590E+00  0.26566980136E+02  0.10566000000E+00 0. -1.
        -13    1    4    4    0    0 -0.29770502288E+01 -0.12679037320E+01  0.12163512407E+00  0.32398097285E+01  0.10566000000E+00 0.  1.
        -14    1    4    4    0    0 -0.10581179971E+02 -0.41048856109E+01  0.66955379522E+00  0.11369246138E+02  0.00000000000E+00 0.  1.
<mgrwt>
<rscale>  0 0.82656352E+02</rscale>
<asrwt>0</asrwt>
<pdfrwt beam="1">  1        1 0.67961669E-02 0.82656352E+02</pdfrwt>
<pdfrwt beam="2">  1       -2 0.59484214E-02 0.82656352E+02</pdfrwt>
<totfact> 0.11770721E+05</totfact>
</mgrwt>
</event>
<event>
 8    1  0.1372337E-020  0.7322821E+02  0.7818608E-02  0.1349447E+00
          1   -1    0    0  501    0  0.00000000000E+00  0.00000000000E+00  0.57944191775E+02  0.57944191995E+02  0.50400000000E-02 0. -1.
         -2   -1    0    0    0  501 -0.00000000000E+00 -0.00000000000E+00 -0.23135928881E+02  0.23135929022E+02  0.25500000000E-02 0.  1.
        -24    2    1    2    0    0 -0.71054273576E-14  0.17763568394E-14  0.34808262894E+02  0.81080121017E+02  0.73228210810E+02 0.  0.
         66    2    3    3    0    0 -0.31822786219E+02  0.11368377004E+02  0.18899207013E+01  0.33904299506E+02  0.20000015731E+01 0.  0.
         13    1    3    3    0    0  0.31822786219E+02 -0.11368377004E+02  0.32918342193E+02  0.47175821511E+02  0.10566000000E+00 0. -1.
         13    1    4    4    0    0 -0.67269926586E+00  0.53633085560E+00 -0.33983047186E-01  0.86746410419E+00  0.10566000000E+00 0. -1.
        -13    1    4    4    0    0 -0.21097268634E+02  0.73991017901E+01  0.13946905453E+01  0.22400843218E+02  0.10566000000E+00 0.  1.
         14    1    4    4    0    0 -0.10052818319E+02  0.34329443580E+01  0.52921320316E+00  0.10635992184E+02  0.00000000000E+00 0. -1.
<mgrwt>
<rscale>  0 0.73228211E+02</rscale>
<asrwt>0</asrwt>
<pdfrwt beam="1">  1        1 0.89144911E-02 0.73228211E+02</pdfrwt>
<pdfrwt beam="2">  1       -2 0.35593737E-02 0.73228211E+02</pdfrwt>
<totfact> 0.17156601E+05</totfact>
</mgrwt>
</event>
<event>
 8    1  0.1372337E-020  0.8254462E+02  0.7818608E-02  0.1321981E+00
         -2   -1    0    0    0  501 -0.00000000000E+00  0.00000000000E+00  0.31719370871E+03  0.31719370872E+03  0.25500000000E-02 0.  1.
          1   -1    0    0  501    0  0.00000000000E+00 -0.00000000000E+00 -0.53702303285E+01  0.53702326935E+01  0.50400000000E-02 0. -1.
        -24    2    1    2    0    0  0.00000000000E+00  0.00000000000E+00  0.31182347838E+03  0.32256394142E+03  0.82544622057E+02 0.  0.
         66    2    3    3    0    0  0.36979497573E+02  0.12522408990E+02  0.10399837629E+03  0.11110335835E+03  0.19999993417E+01 0.  0.
         13    1    3    3    0    0 -0.36979497573E+02 -0.12522408990E+02  0.20782510209E+03  0.21146058307E+03  0.10566000000E+00 0. -1.
         13    1    4    4    0    0  0.80445811420E+01  0.32651676982E+01  0.23572216839E+02  0.25120453351E+02  0.10566000000E+00 0. -1.
        -13    1    4    4    0    0  0.16601062792E+02  0.57701025047E+01  0.45130904984E+02  0.48432418043E+02  0.10566000000E+00 0.  1.
         14    1    4    4    0    0  0.12333853638E+02  0.34871387870E+01  0.35295254469E+02  0.37550486954E+02  0.00000000000E+00 0. -1.
<mgrwt>
<rscale>  0 0.82544622E+02</rscale>
<asrwt>0</asrwt>
<pdfrwt beam="1">  1        1 0.82618953E-03 0.82544622E+02</pdfrwt>
<pdfrwt beam="2">  1       -2 0.48799028E-01 0.82544622E+02</pdfrwt>
<totfact> 0.62829623E+04</totfact>
</mgrwt>
</event>
<event>
 8    1  0.1372337E-020  0.7826297E+02  0.7818608E-02  0.1334054E+00
         -2   -1    0    0    0  501 -0.00000000000E+00  0.00000000000E+00  0.28365717891E+02  0.28365718005E+02  0.25500000000E-02 0.  1.
          1   -1    0    0  501    0  0.00000000000E+00 -0.00000000000E+00 -0.53983232814E+02  0.53983233049E+02  0.50400000000E-02 0. -1.
        -24    2    1    2    0    0  0.00000000000E+00  0.00000000000E+00 -0.25617514923E+02  0.82348951054E+02  0.78262971250E+02 0.  0.
         66    2    3    3    0    0 -0.43240754110E+01  0.31090894992E+02  0.11722755883E+02  0.33567311399E+02  0.20000023665E+01 0.  0.
         13    1    3    3    0    0  0.43240754110E+01 -0.31090894992E+02 -0.37340270806E+02  0.48781639655E+02  0.10566000000E+00 0. -1.
         13    1    4    4    0    0 -0.23439917800E+01  0.16468775746E+02  0.63577739711E+01  0.17808630658E+02  0.10566000000E+00 0. -1.
        -13    1    4    4    0    0 -0.21421099568E+01  0.14103488186E+02  0.50656136433E+01  0.15138316276E+02  0.10566000000E+00 0.  1.
         14    1    4    4    0    0  0.16202632586E+00  0.51863106111E+00  0.29936826842E+00  0.62036446381E+00  0.00000000000E+00 0. -1.
<mgrwt>
<rscale>  0 0.78262971E+02</rscale>
<asrwt>0</asrwt>
<pdfrwt beam="1">  1        1 0.83051128E-02 0.78262971E+02</pdfrwt>
<pdfrwt beam="2">  1       -2 0.43639566E-02 0.78262971E+02</pdfrwt>
<totfact> 0.14149860E+05</totfact>
</mgrwt>
</event>
<event>
 8    1  0.1372337E-020  0.7918195E+02  0.7818608E-02  0.1331389E+00
         -2   -1    0    0    0  501 -0.00000000000E+00  0.00000000000E+00  0.63187467692E+01  0.63187472838E+01  0.25500000000E-02 0.  1.
          1   -1    0    0  501    0  0.00000000000E+00 -0.00000000000E+00 -0.24806266018E+03  0.24806266023E+03  0.50400000000E-02 0. -1.
        -24    2    1    2    0    0  0.17763568394E-14  0.71054273576E-14 -0.24174391341E+03  0.25438140752E+03  0.79181947552E+02 0.  0.
         66    2    3    3    0    0  0.12997026142E+02  0.35660004795E+02 -0.15685001403E+03  0.16138923609E+03  0.19999983697E+01 0.  0.
         13    1    3    3    0    0 -0.12997026142E+02 -0.35660004795E+02 -0.84893899382E+02  0.92992171428E+02  0.10566000000E+00 0. -1.
         13    1    4    4    0    0  0.30514962744E+00  0.72969515406E+00 -0.25020957416E+01  0.26262555947E+01  0.10566000000E+00 0. -1.
        -13    1    4    4    0    0  0.93635117141E+01  0.26536605320E+02 -0.11518501488E+03  0.11857261737E+03  0.10566000000E+00 0.  1.
        -14    1    4    4    0    0  0.33283648001E+01  0.83937043211E+01 -0.39162903407E+02  0.40190363120E+02  0.00000000000E+00 0.  1.
<mgrwt>
<rscale>  0 0.79181948E+02</rscale>
<asrwt>0</asrwt>
<pdfrwt beam="1">  1        1 0.38163479E-01 0.79181948E+02</pdfrwt>
<pdfrwt beam="2">  1       -2 0.97211512E-03 0.79181948E+02</pdfrwt>
<totfact> 0.17867776E+05</totfact>
</mgrwt>
</event>
<event>
 8    1  0.1372337E-020  0.7934988E+02  0.7818608E-02  0.1330907E+00
         -2   -1    0    0    0  501 -0.00000000000E+00  0.00000000000E+00  0.44463302810E+03  0.44463302811E+03  0.25500000000E-02 0.  1.
          1   -1    0    0  501    0  0.00000000000E+00 -0.00000000000E+00 -0.35402226400E+01  0.35402262276E+01  0.50400000000E-02 0. -1.
        -24    2    1    2    0    0  0.00000000000E+00  0.00000000000E+00  0.44109280546E+03  0.44817325434E+03  0.79349876324E+02 0.  0.
         66    2    3    3    0    0 -0.26850391842E+02  0.12038017460E+02  0.37078426907E+03  0.37195541613E+03  0.19999991417E+01 0.  0.
         13    1    3    3    0    0  0.26850391842E+02 -0.12038017460E+02  0.70308536394E+02  0.76217838203E+02  0.10566000000E+00 0. -1.
         13    1    4    4    0    0 -0.24722430504E+00  0.92074496782E-01  0.31076902209E+01  0.31206570005E+01  0.10566000000E+00 0.  1.
        -13    1    4    4    0    0 -0.82107384227E+01  0.40398789887E+01  0.12392660969E+03  0.12426404388E+03  0.10566000000E+00 0. -1.
        -14    1    4    4    0    0 -0.18392429115E+02  0.79060639742E+01  0.24374996916E+03  0.24457071525E+03  0.00000000000E+00 0.  1.
<mgrwt>
<rscale>  0 0.79349876E+02</rscale>
<asrwt>0</asrwt>
<pdfrwt beam="1">  1        1 0.54465024E-03 0.79349876E+02</pdfrwt>
<pdfrwt beam="2">  1       -2 0.68405040E-01 0.79349876E+02</pdfrwt>
<totfact> 0.56123144E+04</totfact>
</mgrwt>
</event>
<event>
 8    1  0.1372337E-020  0.8518414E+02  0.7818608E-02  0.1314952E+00
         -2   -1    0    0    0  501 -0.00000000000E+00  0.00000000000E+00  0.12144394658E+03  0.12144394661E+03  0.25500000000E-02 0.  1.
          1   -1    0    0  501    0  0.00000000000E+00 -0.00000000000E+00 -0.14937626895E+02  0.14937627745E+02  0.50400000000E-02 0. -1.
        -24    2    1    2    0    0  0.22204460493E-15  0.35527136788E-14  0.10650631969E+03  0.13638157435E+03  0.85184139897E+02 0.  0.
         66    2    3    3    0    0  0.19722300481E+01  0.25177372759E+02  0.10814606642E+03  0.11107367590E+03  0.20000013737E+01 0.  0.
         13    1    3    3    0    0 -0.19722300481E+01 -0.25177372759E+02 -0.16397467395E+01  0.25307898447E+02  0.10566000000E+00 0. -1.
         13    1    4    4    0    0  0.33945834492E+00  0.12484848859E+02  0.55480858366E+02  0.56869354595E+02  0.10566000000E+00 0. -1.
        -13    1    4    4    0    0  0.16218602123E+01  0.12187152980E+02  0.49831968119E+02  0.51326341570E+02  0.10566000000E+00 0.  1.
        -14    1    4    4    0    0  0.10911490847E-01  0.50537091994E+00  0.28332399393E+01  0.28779797395E+01  0.00000000000E+00 0.  1.
<mgrwt>
<rscale>  0 0.85184140E+02</rscale>
<asrwt>0</asrwt>
<pdfrwt beam="1">  1        1 0.22980966E-02 0.85184140E+02</pdfrwt>
<pdfrwt beam="2">  1       -2 0.18683683E-01 0.85184140E+02</pdfrwt>
<totfact> 0.85778591E+04</totfact>
</mgrwt>
</event>
<event>
 8    1  0.1372337E-020  0.7873151E+02  0.7818608E-02  0.1332690E+00
         -2   -1    0    0    0  501 -0.00000000000E+00  0.00000000000E+00  0.28705343640E+02  0.28705343753E+02  0.25500000000E-02 0.  1.
          1   -1    0    0  501    0  0.00000000000E+00 -0.00000000000E+00 -0.53985158103E+02  0.53985158339E+02  0.50400000000E-02 0. -1.
        -24    2    1    2    0    0  0.00000000000E+00 -0.44408920985E-15 -0.25279814464E+02  0.82690502091E+02  0.78731506507E+02 0.  0.
         66    2    3    3    0    0  0.13764993786E+02  0.22114869348E+01  0.25988906049E+02  0.29559921487E+02  0.19999980751E+01 0.  0.
         13    1    3    3    0    0 -0.13764993786E+02 -0.22114869348E+01 -0.51268720512E+02  0.53130580605E+02  0.10566000000E+00 0. -1.
         13    1    4    4    0    0  0.11435083886E+01 -0.56590321900E-01  0.18367952923E+01  0.21669782833E+01  0.10566000000E+00 0. -1.
        -13    1    4    4    0    0  0.87805079033E+01  0.86014848436E+00  0.15975922546E+02  0.18250436699E+02  0.10566000000E+00 0.  1.
        -14    1    4    4    0    0  0.38409774939E+01  0.14079287723E+01  0.81761882101E+01  0.91425065044E+01  0.00000000000E+00 0.  1.
<mgrwt>
<rscale>  0 0.78731507E+02</rscale>
<asrwt>0</asrwt>
<pdfrwt beam="1">  1        1 0.83054090E-02 0.78731507E+02</pdfrwt>
<pdfrwt beam="2">  1       -2 0.44162067E-02 0.78731507E+02</pdfrwt>
<totfact> 0.13918566E+05</totfact>
</mgrwt>
</event>
<event>
 8    1  0.1372337E-020  0.7940102E+02  0.7818608E-02  0.1330760E+00
         -2   -1    0    0    0  501 -0.00000000000E+00  0.00000000000E+00  0.14194951388E+02  0.14194951617E+02  0.25500000000E-02 0.  1.
          1   -1    0    0  501    0  0.00000000000E+00 -0.00000000000E+00 -0.11103458898E+03  0.11103458910E+03  0.50400000000E-02 0. -1.
        -24    2    1    2    0    0  0.00000000000E+00  0.00000000000E+00 -0.96839637593E+02  0.12522954071E+03  0.79401023028E+02 0.  0.
         66    2    3    3    0    0 -0.31305329435E+02 -0.22222522056E+02 -0.32658066110E+02  0.50442179350E+02  0.20000094958E+01 0.  0.
         13    1    3    3    0    0  0.31305329435E+02  0.22222522056E+02 -0.64181571483E+02  0.74787361362E+02  0.10566000000E+00 0. -1.
         13    1    4    4    0    0 -0.10787201572E+02 -0.86003711899E+01 -0.11112156814E+02  0.17715001989E+02  0.10566000000E+00 0. -1.
        -13    1    4    4    0    0 -0.11457845631E+02 -0.76739128424E+01 -0.12395354132E+02  0.18542576221E+02  0.10566000000E+00 0.  1.
         14    1    4    4    0    0 -0.90602822320E+01 -0.59482380232E+01 -0.91505551647E+01  0.14184601141E+02  0.00000000000E+00 0. -1.
<mgrwt>
<rscale>  0 0.79401023E+02</rscale>
<asrwt>0</asrwt>
<pdfrwt beam="1">  1        1 0.17082244E-01 0.79401023E+02</pdfrwt>
<pdfrwt beam="2">  1       -2 0.21838388E-02 0.79401023E+02</pdfrwt>
<totfact> 0.15269127E+05</totfact>
</mgrwt>
</event>
<event>
 8    1  0.1372337E-020  0.7858065E+02  0.7818608E-02  0.1333128E+00
          1   -1    0    0  501    0  0.00000000000E+00  0.00000000000E+00  0.45203423512E+01  0.45203451609E+01  0.50400000000E-02 0. -1.
         -2   -1    0    0    0  501 -0.00000000000E+00 -0.00000000000E+00 -0.34150716914E+03  0.34150716915E+03  0.25500000000E-02 0.  1.
        -24    2    1    2    0    0  0.00000000000E+00 -0.88817841970E-15 -0.33698682679E+03  0.34602751431E+03  0.78580654303E+02 0.  0.
         66    2    3    3    0    0  0.14339651968E+02  0.66283798750E+01 -0.32689236637E+03  0.32727997225E+03  0.20000002474E+01 0.  0.
         13    1    3    3    0    0 -0.14339651968E+02 -0.66283798750E+01 -0.10094460411E+02  0.18747542062E+02  0.10566000000E+00 0. -1.
         13    1    4    4    0    0  0.60802260570E+01  0.20626639975E+01 -0.14235424157E+03  0.14249899996E+03  0.10566000000E+00 0. -1.
        -13    1    4    4    0    0  0.59376340074E+01  0.29117723233E+01 -0.12596595084E+03  0.12613946984E+03  0.10566000000E+00 0.  1.
         14    1    4    4    0    0  0.23217919033E+01  0.16539435542E+01 -0.58572173959E+02  0.58641502447E+02  0.00000000000E+00 0. -1.
<mgrwt>
<rscale>  0 0.78580654E+02</rscale>
<asrwt>0</asrwt>
<pdfrwt beam="1">  1        1 0.69543777E-03 0.78580654E+02</pdfrwt>
<pdfrwt beam="2">  1       -2 0.52539544E-01 0.78580654E+02</pdfrwt>
<totfact> 0.68358958E+04</totfact>
</mgrwt>
</event>
<event>
 8    1  0.1372337E-020  0.7129328E+02  0.7818608E-02  0.1355750E+00
          1   -1    0    0  501    0  0.00000000000E+00  0.00000000000E+00  0.58253074749E+01  0.58253096552E+01  0.50400000000E-02 0. -1.
         -2   -1    0    0    0  501 -0.00000000000E+00 -0.00000000000E+00 -0.21813146833E+03  0.21813146835E+03  0.25500000000E-02 0.  1.
        -24    2    1    2    0    0  0.00000000000E+00  0.00000000000E+00 -0.21230616086E+03  0.22395677800E+03  0.71293284924E+02 0.  0.
         66    2    3    3    0    0 -0.94720442827E+01 -0.27125283866E+02 -0.17236730008E+03  0.17475693642E+03  0.20000104307E+01 0.  0.
         13    1    3    3    0    0  0.94720442827E+01  0.27125283866E+02 -0.39938860778E+02  0.49199841585E+02  0.10566000000E+00 0. -1.
         13    1    4    4    0    0 -0.35611451721E+00 -0.10856070963E+01 -0.53585511588E+01  0.54800177804E+01  0.10566000000E+00 0. -1.
        -13    1    4    4    0    0 -0.28114305223E+01 -0.96345147184E+01 -0.58989778775E+02  0.59837556596E+02  0.10566000000E+00 0.  1.
         14    1    4    4    0    0 -0.63044992433E+01 -0.16405162051E+02 -0.10801897015E+03  0.10943936204E+03  0.00000000000E+00 0. -1.
<mgrwt>
<rscale>  0 0.71293285E+02</rscale>
<asrwt>0</asrwt>
<pdfrwt beam="1">  1        1 0.89620149E-03 0.71293285E+02</pdfrwt>
<pdfrwt beam="2">  1       -2 0.33558681E-01 0.71293285E+02</pdfrwt>
<totfact> 0.11029715E+05</totfact>
</mgrwt>
</event>
<event>
 8    1  0.1372337E-020  0.8116619E+02  0.7818608E-02  0.1325774E+00
         -2   -1    0    0    0  501 -0.00000000000E+00  0.00000000000E+00  0.43771480277E+02  0.43771480352E+02  0.25500000000E-02 0.  1.
          1   -1    0    0  501    0  0.00000000000E+00 -0.00000000000E+00 -0.37626953361E+02  0.37626953698E+02  0.50400000000E-02 0. -1.
        -24    2    1    2    0    0  0.35527136788E-14 -0.35527136788E-14  0.61445269166E+01  0.81398434050E+02  0.81166186647E+02 0.  0.
         66    2    3    3    0    0  0.20865728520E+02 -0.30671989533E+02 -0.13368916982E+02  0.39482622888E+02  0.20000000797E+01 0.  0.
         13    1    3    3    0    0 -0.20865728520E+02  0.30671989533E+02  0.19513443899E+02  0.41915811162E+02  0.10566000000E+00 0. -1.
         13    1    4    4    0    0  0.79513696714E+01 -0.11642732098E+02 -0.52730658059E+01  0.15053035488E+02  0.10566000000E+00 0. -1.
        -13    1    4    4    0    0  0.80784796121E+01 -0.11033316530E+02 -0.54143511269E+01  0.14707898173E+02  0.10566000000E+00 0.  1.
         14    1    4    4    0    0  0.48358792361E+01 -0.79959409041E+01 -0.26815000492E+01  0.97216892278E+01  0.00000000000E+00 0. -1.
<mgrwt>
<rscale>  0 0.81166187E+02</rscale>
<asrwt>0</asrwt>
<pdfrwt beam="1">  1        1 0.57887621E-02 0.81166187E+02</pdfrwt>
<pdfrwt beam="2">  1       -2 0.67340739E-02 0.81166187E+02</pdfrwt>
<totfact> 0.12066128E+05</totfact>
</mgrwt>
</event>
<event>
 8    1  0.1372337E-020  0.8038609E+02  0.7818608E-02  0.1327959E+00
         -2   -1    0    0    0  501 -0.00000000000E+00  0.00000000000E+00  0.66261963072E+02  0.66261963121E+02  0.25500000000E-02 0.  1.
          1   -1    0    0  501    0  0.00000000000E+00 -0.00000000000E+00 -0.24380216034E+02  0.24380216555E+02  0.50400000000E-02 0. -1.
        -24    2    1    2    0    0  0.00000000000E+00  0.71054273576E-14  0.41881747038E+02  0.90642179676E+02  0.80386093334E+02 0.  0.
         66    2    3    3    0    0  0.58506830662E+01  0.36105889056E+02  0.39673425338E+02  0.53998577702E+02  0.19999997200E+01 0.  0.
         13    1    3    3    0    0 -0.58506830662E+01 -0.36105889056E+02  0.22083216995E+01  0.36643601974E+02  0.10566000000E+00 0. -1.
         13    1    4    4    0    0  0.39786797982E+01  0.20386238525E+02  0.21829905821E+02  0.30132782253E+02  0.10566000000E+00 0. -1.
        -13    1    4    4    0    0  0.18883007578E+01  0.14083305000E+02  0.16131640398E+02  0.21497584642E+02  0.10566000000E+00 0.  1.
         14    1    4    4    0    0 -0.16297489759E-01  0.16363455310E+01  0.17118791189E+01  0.23682108062E+01  0.00000000000E+00 0. -1.
<mgrwt>
<rscale>  0 0.80386093E+02</rscale>
<asrwt>0</asrwt>
<pdfrwt beam="1">  1        1 0.37508025E-02 0.80386093E+02</pdfrwt>
<pdfrwt beam="2">  1       -2 0.10194148E-01 0.80386093E+02</pdfrwt>
<totfact> 0.11475739E+05</totfact>
</mgrwt>
</event>
<event>
 8    1  0.1372337E-020  0.7984102E+02  0.7818608E-02  0.1329503E+00
         -2   -1    0    0    0  501 -0.00000000000E+00  0.00000000000E+00  0.25948775536E+03  0.25948775537E+03  0.25500000000E-02 0.  1.
          1   -1    0    0  501    0  0.00000000000E+00 -0.00000000000E+00 -0.61415104138E+01  0.61415124819E+01  0.50400000000E-02 0. -1.
        -24    2    1    2    0    0  0.00000000000E+00  0.35527136788E-14  0.25334624495E+03  0.26562926786E+03  0.79841017733E+02 0.  0.
         66    2    3    3    0    0  0.30554557042E+02 -0.25385047337E+02  0.13904892375E+03  0.14462567129E+03  0.20000040928E+01 0.  0.
         13    1    3    3    0    0 -0.30554557042E+02  0.25385047337E+02  0.11429732120E+03  0.12100359656E+03  0.10566000000E+00 0. -1.
         13    1    4    4    0    0  0.11644664405E+02 -0.10315103455E+02  0.55633686196E+02  0.57767791823E+02  0.10566000000E+00 0. -1.
        -13    1    4    4    0    0  0.65235242494E+01 -0.52247604330E+01  0.26798628449E+02  0.28071910177E+02  0.10566000000E+00 0.  1.
        -14    1    4    4    0    0  0.12386368388E+02 -0.98451834491E+01  0.56616609106E+02  0.58785969292E+02  0.00000000000E+00 0.  1.
<mgrwt>
<rscale>  0 0.79841018E+02</rscale>
<asrwt>0</asrwt>
<pdfrwt beam="1">  1        1 0.94484766E-03 0.79841018E+02</pdfrwt>
<pdfrwt beam="2">  1       -2 0.39921204E-01 0.79841018E+02</pdfrwt>
<totfact> 0.76129206E+04</totfact>
</mgrwt>
</event>
<event>
 8    1  0.1372337E-020  0.7946915E+02  0.7818608E-02  0.1330565E+00
         -2   -1    0    0    0  501 -0.00000000000E+00  0.00000000000E+00  0.28803500512E+02  0.28803500625E+02  0.25500000000E-02 0.  1.
          1   -1    0    0  501    0  0.00000000000E+00 -0.00000000000E+00 -0.54814051143E+02  0.54814051375E+02  0.50400000000E-02 0. -1.
        -24    2    1    2    0    0 -0.35527136788E-14  0.00000000000E+00 -0.26010550632E+02  0.83617552000E+02  0.79469152873E+02 0.  0.
         66    2    3    3    0    0  0.24908859047E+02  0.10510501706E+02  0.17589289682E+02  0.32315708519E+02  0.20000001048E+01 0.  0.
         13    1    3    3    0    0 -0.24908859047E+02 -0.10510501706E+02 -0.43599840313E+02  0.51301843481E+02  0.10566000000E+00 0. -1.
         13    1    4    4    0    0  0.39960029292E+01  0.23016848999E+01  0.29681163171E+01  0.54851318395E+01  0.10566000000E+00 0.  1.
        -13    1    4    4    0    0  0.28096634951E+01  0.13124648147E+01  0.24338562431E+01  0.39435508230E+01  0.10566000000E+00 0.  1.
         14    1    4    4    0    0  0.18103192623E+02  0.68963519912E+01  0.12187317122E+02  0.22887025856E+02  0.00000000000E+00 0. -1.
<mgrwt>
<rscale>  0 0.79469153E+02</rscale>
<asrwt>0</asrwt>
<pdfrwt beam="1">  1        1 0.84329310E-02 0.79469153E+02</pdfrwt>
<pdfrwt beam="2">  1       -2 0.44313078E-02 0.79469153E+02</pdfrwt>
<totfact> 0.13596414E+05</totfact>
</mgrwt>
</event>
<event>
 8    1  0.1372337E-020  0.8245972E+02  0.7818608E-02  0.1322213E+00
         -2   -1    0    0    0  501 -0.00000000000E+00  0.00000000000E+00  0.32232278236E+02  0.32232278337E+02  0.25500000000E-02 0.  1.
          1   -1    0    0  501    0  0.00000000000E+00 -0.00000000000E+00 -0.52739098031E+02  0.52739098272E+02  0.50400000000E-02 0. -1.
        -24    2    1    2    0    0  0.00000000000E+00  0.00000000000E+00 -0.20506819795E+02  0.84971376609E+02  0.82459718558E+02 0.  0.
         66    2    3    3    0    0 -0.23203103724E+02  0.29831600000E+02  0.66598217214E+01  0.38427354906E+02  0.19999996897E+01 0.  0.
         13    1    3    3    0    0  0.23203103724E+02 -0.29831600000E+02 -0.27166641516E+02  0.46544021703E+02  0.10566000000E+00 0. -1.
         13    1    4    4    0    0 -0.13145940533E+02  0.17359132821E+02  0.39266018906E+01  0.22126558956E+02  0.10566000000E+00 0. -1.
        -13    1    4    4    0    0 -0.88338875957E+01  0.10712840874E+02  0.27609482059E+01  0.14157560831E+02  0.10566000000E+00 0.  1.
         14    1    4    4    0    0 -0.12232755952E+01  0.17596263044E+01 -0.27728375082E-01  0.21432351191E+01  0.00000000000E+00 0. -1.
<mgrwt>
<rscale>  0 0.82459719E+02</rscale>
<asrwt>0</asrwt>
<pdfrwt beam="1">  1        1 0.81137074E-02 0.82459719E+02</pdfrwt>
<pdfrwt beam="2">  1       -2 0.49588120E-02 0.82459719E+02</pdfrwt>
<totfact> 0.12196081E+05</totfact>
</mgrwt>
</event>
<event>
 8    1  0.1508902E-020  0.7498882E+02  0.7818608E-02  0.1343906E+00
         -2   -1    0    0    0  501 -0.00000000000E+00  0.00000000000E+00  0.25404382914E+02  0.25404383042E+02  0.25500000000E-02 0.  1.
          1   -1    0    0  501    0  0.00000000000E+00 -0.00000000000E+00 -0.55338122272E+02  0.55338122501E+02  0.50400000000E-02 0. -1.
        -24    2    1    2    0    0  0.35527136788E-14  0.88817841970E-15 -0.29933739357E+02  0.80742505543E+02  0.74988822164E+02 0.  0.
         66    2    3    3    0    0 -0.18793179109E+02 -0.73019883467E+01  0.19026018974E+02  0.27793740546E+02  0.20000001771E+01 0.  0.
         13    1    3    3    0    0  0.18793179109E+02  0.73019883467E+01 -0.48959758331E+02  0.52948764997E+02  0.10566000000E+00 0. -1.
         13    1    4    4    0    0 -0.38243103811E+01 -0.95905150556E+00  0.35141054372E+01  0.52825401788E+01  0.10566000000E+00 0. -1.
        -13    1    4    4    0    0 -0.10184171524E+02 -0.38387560212E+01  0.97255629890E+01  0.14596271336E+02  0.10566000000E+00 0.  1.
         14    1    4    4    0    0 -0.47846972042E+01 -0.25041808199E+01  0.57863505479E+01  0.79149290318E+01  0.00000000000E+00 0. -1.
<mgrwt>
<rscale>  0 0.74988822E+02</rscale>
<asrwt>0</asrwt>
<pdfrwt beam="1">  1        1 0.85135573E-02 0.74988822E+02</pdfrwt>
<pdfrwt beam="2">  1       -2 0.39083666E-02 0.74988822E+02</pdfrwt>
<totfact> 0.15973003E+05</totfact>
</mgrwt>
</event>
<event>
 8    1  0.1372337E-020  0.8019350E+02  0.7818608E-02  0.1328503E+00
         -2   -1    0    0    0  501 -0.00000000000E+00  0.00000000000E+00  0.71314443609E+03  0.71314443609E+03  0.25500000000E-02 0.  1.
          1   -1    0    0  501    0  0.00000000000E+00 -0.00000000000E+00 -0.22544485333E+01  0.22544541669E+01  0.50400000000E-02 0. -1.
        -24    2    1    2    0    0 -0.35527136788E-14 -0.44408920985E-15  0.71088998755E+03  0.71539889026E+03  0.80193502099E+02 0.  0.
         66    2    3    3    0    0 -0.22205314872E+02 -0.27199463203E+01  0.65224647195E+03  0.65263307788E+03  0.20000153430E+01 0.  0.
         13    1    3    3    0    0  0.22205314872E+02  0.27199463203E+01  0.58643515605E+02  0.62765812375E+02  0.10566000000E+00 0. -1.
         13    1    4    4    0    0 -0.99466073677E+00 -0.34268562271E+00  0.36652137550E+02  0.36667385159E+02  0.10566000000E+00 0.  1.
        -13    1    4    4    0    0 -0.15687954761E+02 -0.18173108409E+01  0.43808540895E+03  0.43836999355E+03  0.10566000000E+00 0.  1.
        -14    1    4    4    0    0 -0.55226993743E+01 -0.55994985669E+00  0.17750892545E+03  0.17759569918E+03  0.00000000000E+00 0.  1.
<mgrwt>
<rscale>  0 0.80193502E+02</rscale>
<asrwt>0</asrwt>
<pdfrwt beam="1">  1        1 0.34683875E-03 0.80193502E+02</pdfrwt>
<pdfrwt beam="2">  1       -2 0.10971450E+00 0.80193502E+02</pdfrwt>
<totfact> 0.36952812E+04</totfact>
</mgrwt>
</event>
<event>
 8    1  0.1522329E-020  0.7885025E+02  0.7818608E-02  0.1332346E+00
         -2   -1    0    0    0  501 -0.00000000000E+00  0.00000000000E+00  0.19876696236E+02  0.19876696400E+02  0.25500000000E-02 0.  1.
          1   -1    0    0  501    0  0.00000000000E+00 -0.00000000000E+00 -0.78199140399E+02  0.78199140562E+02  0.50400000000E-02 0. -1.
        -24    2    1    2    0    0 -0.35527136788E-14  0.00000000000E+00 -0.58322444163E+02  0.98075836961E+02  0.78850252394E+02 0.  0.
         66    2    3    3    0    0 -0.20076562682E+02  0.20564188774E+02  0.43429470229E+01  0.29134436877E+02  0.19999985717E+01 0.  0.
         13    1    3    3    0    0  0.20076562682E+02 -0.20564188774E+02 -0.62665391186E+02  0.68941400084E+02  0.10566000000E+00 0. -1.
         13    1    4    4    0    0 -0.52823490642E+01  0.50137196009E+01  0.60614574270E+00  0.73088420813E+01  0.10566000000E+00 0. -1.
        -13    1    4    4    0    0 -0.11417907182E+02  0.11333268663E+02  0.24656534127E+01  0.16275816225E+02  0.10566000000E+00 0.  1.
         14    1    4    4    0    0 -0.33763064356E+01  0.42172005104E+01  0.12711478675E+01  0.55497785716E+01  0.00000000000E+00 0. -1.
<mgrwt>
<rscale>  0 0.78850252E+02</rscale>
<asrwt>0</asrwt>
<pdfrwt beam="1">  1        1 0.12030637E-01 0.78850252E+02</pdfrwt>
<pdfrwt beam="2">  1       -2 0.30579533E-02 0.78850252E+02</pdfrwt>
<totfact> 0.14685289E+05</totfact>
</mgrwt>
</event>
<event>
 8    1  0.1372337E-020  0.7610726E+02  0.7818608E-02  0.1340476E+00
         -2   -1    0    0    0  501 -0.00000000000E+00  0.00000000000E+00  0.10197437372E+02  0.10197437691E+02  0.25500000000E-02 0.  1.
          1   -1    0    0  501    0  0.00000000000E+00 -0.00000000000E+00 -0.14200416681E+03  0.14200416689E+03  0.50400000000E-02 0. -1.
        -24    2    1    2    0    0  0.17763568394E-14  0.00000000000E+00 -0.13180672943E+03  0.15220160459E+03  0.76107256649E+02 0.  0.
         66    2    3    3    0    0  0.15021385054E+02 -0.34933836645E+02 -0.65463857661E+02  0.75733292516E+02  0.19999959634E+01 0.  0.
         13    1    3    3    0    0 -0.15021385054E+02  0.34933836645E+02 -0.66342871773E+02  0.76468312070E+02  0.10566000000E+00 0. -1.
         13    1    4    4    0    0  0.10008946770E+02 -0.22088816550E+02 -0.41442870696E+02  0.48016846289E+02  0.10566000000E+00 0. -1.
        -13    1    4    4    0    0  0.50265301044E+01 -0.12443522133E+02 -0.23436980312E+02  0.27007600007E+02  0.10566000000E+00 0.  1.
         14    1    4    4    0    0 -0.14091819994E-01 -0.40149796177E+00 -0.58400665249E+00  0.70884621946E+00  0.00000000000E+00 0. -1.
<mgrwt>
<rscale>  0 0.76107257E+02</rscale>
<asrwt>0</asrwt>
<pdfrwt beam="1">  1        1 0.21846794E-01 0.76107257E+02</pdfrwt>
<pdfrwt beam="2">  1       -2 0.15688366E-02 0.76107257E+02</pdfrwt>
<totfact> 0.17855312E+05</totfact>
</mgrwt>
</event>
<event>
 8    1  0.1372337E-020  0.7976275E+02  0.7818608E-02  0.1329726E+00
          1   -1    0    0  501    0  0.00000000000E+00  0.00000000000E+00  0.10171945697E+03  0.10171945709E+03  0.50400000000E-02 0. -1.
         -2   -1    0    0    0  501 -0.00000000000E+00 -0.00000000000E+00 -0.15636380190E+02  0.15636380398E+02  0.25500000000E-02 0.  1.
        -24    2    1    2    0    0  0.00000000000E+00 -0.35527136788E-14  0.86083076779E+02  0.11735583749E+03  0.79762751243E+02 0.  0.
         66    2    3    3    0    0 -0.17342380666E+02  0.25566689255E+02  0.60187726579E+01  0.31537903906E+02  0.19999979633E+01 0.  0.
         13    1    3    3    0    0  0.17342380666E+02 -0.25566689255E+02  0.80064304121E+02  0.85817933586E+02  0.10566000000E+00 0. -1.
         13    1    4    4    0    0 -0.15659048220E+02  0.23477940274E+02  0.51839517480E+01  0.28693274307E+02  0.10566000000E+00 0. -1.
        -13    1    4    4    0    0 -0.59731554487E+00  0.81336767343E+00  0.11411257750E+00  0.10210477698E+01  0.10566000000E+00 0.  1.
         14    1    4    4    0    0 -0.10860169009E+01  0.12753813072E+01  0.72070833241E+00  0.18235818293E+01  0.00000000000E+00 0. -1.
<mgrwt>
<rscale>  0 0.79762751E+02</rscale>
<asrwt>0</asrwt>
<pdfrwt beam="1">  1        1 0.15649146E-01 0.79762751E+02</pdfrwt>
<pdfrwt beam="2">  1       -2 0.24055971E-02 0.79762751E+02</pdfrwt>
<totfact> 0.14860122E+05</totfact>
</mgrwt>
</event>
<event>
 8    1  0.1372337E-020  0.7935944E+02  0.7818608E-02  0.1330879E+00
         -2   -1    0    0    0  501 -0.00000000000E+00  0.00000000000E+00  0.44595360796E+03  0.44595360797E+03  0.25500000000E-02 0.  1.
          1   -1    0    0  501    0  0.00000000000E+00 -0.00000000000E+00 -0.35305904022E+01  0.35305939996E+01  0.50400000000E-02 0. -1.
        -24    2    1    2    0    0  0.00000000000E+00  0.00000000000E+00  0.44242301756E+03  0.44948420197E+03  0.79359444005E+02 0.  0.
         66    2    3    3    0    0 -0.32654160210E+02 -0.17129996793E+02  0.30396395087E+03  0.30619897844E+03  0.19999999795E+01 0.  0.
         13    1    3    3    0    0  0.32654160210E+02  0.17129996793E+02  0.13845906668E+03  0.14328522352E+03  0.10566000000E+00 0. -1.
         13    1    4    4    0    0 -0.13912675562E+02 -0.78429985926E+01  0.13391820017E+03  0.13486723349E+03  0.10566000000E+00 0. -1.
        -13    1    4    4    0    0 -0.75422186614E+00 -0.16712610039E+00  0.56146712031E+01  0.56685517119E+01  0.10566000000E+00 0.  1.
        -14    1    4    4    0    0 -0.17987262781E+02 -0.91198720996E+01  0.16443107950E+03  0.16566319325E+03  0.00000000000E+00 0.  1.
<mgrwt>
<rscale>  0 0.79359444E+02</rscale>
<asrwt>0</asrwt>
<pdfrwt beam="1">  1        1 0.54316832E-03 0.79359444E+02</pdfrwt>
<pdfrwt beam="2">  1       -2 0.68608211E-01 0.79359444E+02</pdfrwt>
<totfact> 0.55987351E+04</totfact>
</mgrwt>
</event>
<event>
 8    1  0.1372337E-020  0.7966351E+02  0.7818608E-02  0.1330009E+00
          1   -1    0    0  501    0  0.00000000000E+00  0.00000000000E+00  0.18249763058E+01  0.18249832652E+01  0.50400000000E-02 0. -1.
         -2   -1    0    0    0  501 -0.00000000000E+00 -0.00000000000E+00 -0.86936234274E+03  0.86936234274E+03  0.25500000000E-02 0.  1.
        -24    2    1    2    0    0  0.11102230246E-15  0.00000000000E+00 -0.86753736643E+03  0.87118732601E+03  0.79663510086E+02 0.  0.
         66    2    3    3    0    0 -0.65770618816E+00  0.23399629829E+02 -0.78613262868E+03  0.78648362038E+03  0.20000013130E+01 0.  0.
         13    1    3    3    0    0  0.65770618816E+00 -0.23399629829E+02 -0.81404737756E+02  0.84703705626E+02  0.10566000000E+00 0. -1.
         13    1    4    4    0    0 -0.25541676355E+00  0.24916520469E+01 -0.67020162725E+02  0.67067033208E+02  0.10566000000E+00 0. -1.
        -13    1    4    4    0    0 -0.37775921387E-01  0.72913564887E+01 -0.24549186453E+03  0.24560014663E+03  0.10566000000E+00 0.  1.
        -14    1    4    4    0    0 -0.36451350323E+00  0.13616621293E+02 -0.47362060142E+03  0.47381644055E+03  0.00000000000E+00 0.  1.
<mgrwt>
<rscale>  0 0.79663510E+02</rscale>
<asrwt>0</asrwt>
<pdfrwt beam="1">  1        1 0.28076682E-03 0.79663510E+02</pdfrwt>
<pdfrwt beam="2">  1       -2 0.13374772E+00 0.79663510E+02</pdfrwt>
<totfact> 0.30811247E+04</totfact>
</mgrwt>
</event>
<event>
 8    1  0.1372337E-020  0.8420795E+02  0.7818608E-02  0.1317517E+00
         -2   -1    0    0    0  501 -0.00000000000E+00  0.00000000000E+00  0.77558259418E+02  0.77558259460E+02  0.25500000000E-02 0.  1.
          1   -1    0    0  501    0  0.00000000000E+00 -0.00000000000E+00 -0.22856940271E+02  0.22856940827E+02  0.50400000000E-02 0. -1.
        -24    2    1    2    0    0  0.00000000000E+00  0.00000000000E+00  0.54701319147E+02  0.10041520029E+03  0.84207945778E+02 0.  0.
         66    2    3    3    0    0  0.18738659601E+02 -0.34889359718E+02  0.44328222431E+02  0.59476012646E+02  0.19999978053E+01 0.  0.
         13    1    3    3    0    0 -0.18738659601E+02  0.34889359718E+02  0.10373096716E+02  0.40939187641E+02  0.10566000000E+00 0. -1.
         13    1    4    4    0    0  0.65533677579E+01 -0.11023341980E+02  0.13781876147E+02  0.18825832559E+02  0.10566000000E+00 0. -1.
        -13    1    4    4    0    0  0.56756339156E+01 -0.10868721244E+02  0.14811110708E+02  0.19228158681E+02  0.10566000000E+00 0.  1.
        -14    1    4    4    0    0  0.65096579271E+01 -0.12997296494E+02  0.15735235577E+02  0.21422021406E+02  0.00000000000E+00 0.  1.
<mgrwt>
<rscale>  0 0.84207946E+02</rscale>
<asrwt>0</asrwt>
<pdfrwt beam="1">  1        1 0.35164524E-02 0.84207946E+02</pdfrwt>
<pdfrwt beam="2">  1       -2 0.11932040E-01 0.84207946E+02</pdfrwt>
<totfact> 0.98727582E+04</totfact>
</mgrwt>
</event>
<event>
 8    1  0.1372337E-020  0.8016075E+02  0.7818608E-02  0.1328596E+00
          1   -1    0    0  501    0  0.00000000000E+00  0.00000000000E+00  0.17421379241E+01  0.17421452145E+01  0.50400000000E-02 0. -1.
         -2   -1    0    0    0  501 -0.00000000000E+00 -0.00000000000E+00 -0.92210451845E+03  0.92210451845E+03  0.25500000000E-02 0.  1.
        -24    2    1    2    0    0 -0.17763568394E-14  0.20816681712E-16 -0.92036238052E+03  0.92384666366E+03  0.80160754009E+02 0.  0.
         66    2    3    3    0    0  0.11197496007E+02 -0.33759521195E-01 -0.90369673135E+03  0.90376831505E+03  0.19999970106E+01 0.  0.
         13    1    3    3    0    0 -0.11197496007E+02  0.33759521195E-01 -0.16665649176E+02  0.20078348613E+02  0.10566000000E+00 0. -1.
         13    1    4    4    0    0  0.71713781020E+01 -0.17136121471E+00 -0.62592617264E+03  0.62596728571E+03  0.10566000000E+00 0. -1.
        -13    1    4    4    0    0  0.35085299676E+00 -0.16115978145E+00 -0.38161395434E+02  0.38163494806E+02  0.10566000000E+00 0.  1.
         14    1    4    4    0    0  0.36752649086E+01  0.29876147496E+00 -0.23960916327E+03  0.23963753453E+03  0.00000000000E+00 0. -1.
<mgrwt>
<rscale>  0 0.80160754E+02</rscale>
<asrwt>0</asrwt>
<pdfrwt beam="1">  1        1 0.26802252E-03 0.80160754E+02</pdfrwt>
<pdfrwt beam="2">  1       -2 0.14186184E+00 0.80160754E+02</pdfrwt>
<totfact> 0.28443042E+04</totfact>
</mgrwt>
</event>
<event>
 8    1  0.1372337E-020  0.7890854E+02  0.7818608E-02  0.1332178E+00
         -2   -1    0    0    0  501 -0.00000000000E+00  0.00000000000E+00  0.24447884126E+03  0.24447884128E+03  0.25500000000E-02 0.  1.
          1   -1    0    0  501    0  0.00000000000E+00 -0.00000000000E+00 -0.63671738832E+01  0.63671758779E+01  0.50400000000E-02 0. -1.
        -24    2    1    2    0    0  0.00000000000E+00  0.00000000000E+00  0.23811166738E+03  0.25084601715E+03  0.78908543135E+02 0.  0.
         66    2    3    3    0    0 -0.24481818090E+02  0.21469704312E+02  0.18981109399E+03  0.19259428607E+03  0.20000013890E+01 0.  0.
         13    1    3    3    0    0  0.24481818090E+02 -0.21469704312E+02  0.48300573387E+02  0.58251731080E+02  0.10566000000E+00 0. -1.
         13    1    4    4    0    0 -0.67020656550E+01  0.64189998660E+01  0.50847457382E+02  0.51687487167E+02  0.10566000000E+00 0. -1.
        -13    1    4    4    0    0 -0.10023367518E+02  0.91399224642E+01  0.79712269670E+02  0.80858290725E+02  0.10566000000E+00 0.  1.
        -14    1    4    4    0    0 -0.77563849169E+01  0.59107819817E+01  0.59251366940E+02  0.60048508182E+02  0.00000000000E+00 0.  1.
<mgrwt>
<rscale>  0 0.78908543E+02</rscale>
<asrwt>0</asrwt>
<pdfrwt beam="1">  1        1 0.97956540E-03 0.78908543E+02</pdfrwt>
<pdfrwt beam="2">  1       -2 0.37612128E-01 0.78908543E+02</pdfrwt>
<totfact> 0.80746791E+04</totfact>
</mgrwt>
</event>
<event>
 8    1  0.1372337E-020  0.7952842E+02  0.7818608E-02  0.1330395E+00
         -2   -1    0    0    0  501 -0.00000000000E+00  0.00000000000E+00  0.24665550273E+03  0.24665550274E+03  0.25500000000E-02 0.  1.
          1   -1    0    0  501    0  0.00000000000E+00 -0.00000000000E+00 -0.64105289967E+01  0.64105309779E+01  0.50400000000E-02 0. -1.
        -24    2    1    2    0    0  0.35527136788E-14 -0.88817841970E-15  0.24024497373E+03  0.25306603372E+03  0.79528422712E+02 0.  0.
         66    2    3    3    0    0 -0.17745133165E+02  0.67176523067E+01  0.23130585087E+03  0.23209138985E+03  0.19999990076E+01 0.  0.
         13    1    3    3    0    0  0.17745133165E+02 -0.67176523067E+01  0.89391228626E+01  0.20974643862E+02  0.10566000000E+00 0. -1.
         13    1    4    4    0    0 -0.16496852639E+01  0.11958604649E+01  0.25660606020E+02  0.25741589094E+02  0.10566000000E+00 0.  1.
        -13    1    4    4    0    0 -0.34788113390E+01  0.14236156700E+01  0.48650185032E+02  0.48795291551E+02  0.10566000000E+00 0.  1.
         14    1    4    4    0    0 -0.12616636562E+02  0.40981761718E+01  0.15699505981E+03  0.15755450921E+03  0.00000000000E+00 0. -1.
<mgrwt>
<rscale>  0 0.79528423E+02</rscale>
<asrwt>0</asrwt>
<pdfrwt beam="1">  1        1 0.98623539E-03 0.79528423E+02</pdfrwt>
<pdfrwt beam="2">  1       -2 0.37947000E-01 0.79528423E+02</pdfrwt>
<totfact> 0.78803248E+04</totfact>
</mgrwt>
</event>
<event>
 8    1  0.1372337E-020  0.7972929E+02  0.7818608E-02  0.1329821E+00
          1   -1    0    0  501    0  0.00000000000E+00  0.00000000000E+00  0.27269370177E+02  0.27269370642E+02  0.50400000000E-02 0. -1.
         -2   -1    0    0    0  501 -0.00000000000E+00 -0.00000000000E+00 -0.58277465680E+02  0.58277465736E+02  0.25500000000E-02 0.  1.
        -24    2    1    2    0    0  0.00000000000E+00  0.00000000000E+00 -0.31008095503E+02  0.85546836378E+02  0.79729287138E+02 0.  0.
         66    2    3    3    0    0 -0.23466129408E+02  0.16339537936E+02 -0.45278586623E+02  0.53589085985E+02  0.20000001976E+01 0.  0.
         13    1    3    3    0    0  0.23466129408E+02 -0.16339537936E+02  0.14270491120E+02  0.31957750393E+02  0.10566000000E+00 0. -1.
         13    1    4    4    0    0 -0.16221544817E+01  0.12151340138E+01 -0.27464774857E+01  0.34150019691E+01  0.10566000000E+00 0. -1.
        -13    1    4    4    0    0 -0.37666735097E+01  0.30438637044E+01 -0.68513166121E+01  0.83907472215E+01  0.10566000000E+00 0.  1.
        -14    1    4    4    0    0 -0.18077301417E+02  0.12080540217E+02 -0.35680792525E+02  0.41783336794E+02  0.00000000000E+00 0.  1.
<mgrwt>
<rscale>  0 0.79729287E+02</rscale>
<asrwt>0</asrwt>
<pdfrwt beam="1">  1        1 0.41952878E-02 0.79729287E+02</pdfrwt>
<pdfrwt beam="2">  1       -2 0.89657639E-02 0.79729287E+02</pdfrwt>
<totfact> 0.12005417E+05</totfact>
</mgrwt>
</event>
<event>
 8    1  0.1372337E-020  0.7909200E+02  0.7818608E-02  0.1331648E+00
         -2   -1    0    0    0  501 -0.00000000000E+00  0.00000000000E+00  0.30611096485E+03  0.30611096486E+03  0.25500000000E-02 0.  1.
          1   -1    0    0  501    0  0.00000000000E+00 -0.00000000000E+00 -0.51088852736E+01  0.51088877597E+01  0.50400000000E-02 0. -1.
        -24    2    1    2    0    0  0.00000000000E+00  0.17763568394E-14  0.30100207958E+03  0.31121985262E+03  0.79092001845E+02 0.  0.
         66    2    3    3    0    0  0.20361350420E+02  0.12461834663E+02  0.27453099137E+03  0.27557421349E+03  0.20000013685E+01 0.  0.
         13    1    3    3    0    0 -0.20361350420E+02 -0.12461834663E+02  0.26471088214E+02  0.35645639135E+02  0.10566000000E+00 0. -1.
         13    1    4    4    0    0  0.49148714318E+01  0.37475723960E+01  0.68256482785E+02  0.68535821774E+02  0.10566000000E+00 0. -1.
        -13    1    4    4    0    0  0.78116533665E+01  0.44841913987E+01  0.98508018100E+02  0.98919010786E+02  0.10566000000E+00 0.  1.
         14    1    4    4    0    0  0.76348256213E+01  0.42300708687E+01  0.10776649048E+03  0.10811938093E+03  0.00000000000E+00 0. -1.
<mgrwt>
<rscale>  0 0.79092002E+02</rscale>
<asrwt>0</asrwt>
<pdfrwt beam="1">  1        1 0.78598243E-03 0.79092002E+02</pdfrwt>
<pdfrwt beam="2">  1       -2 0.47094002E-01 0.79092002E+02</pdfrwt>
<totfact> 0.71577180E+04</totfact>
</mgrwt>
</event>
<event>
 8    1  0.1372337E-020  0.8023761E+02  0.7818608E-02  0.1328378E+00
         -2   -1    0    0    0  501 -0.00000000000E+00  0.00000000000E+00  0.47223990639E+02  0.47223990708E+02  0.25500000000E-02 0.  1.
          1   -1    0    0  501    0  0.00000000000E+00 -0.00000000000E+00 -0.34082647597E+02  0.34082647970E+02  0.50400000000E-02 0. -1.
        -24    2    1    2    0    0  0.00000000000E+00 -0.35527136788E-14  0.13141343042E+02  0.81306638677E+02  0.80237613350E+02 0.  0.
         66    2    3    3    0    0 -0.31595255469E+02  0.18515320067E+02  0.23115097246E+02  0.43351873729E+02  0.19999974635E+01 0.  0.
         13    1    3    3    0    0  0.31595255469E+02 -0.18515320067E+02 -0.99737542042E+01  0.37954764948E+02  0.10566000000E+00 0. -1.
         13    1    4    4    0    0 -0.40918931700E+01  0.27351147817E+01  0.35205565581E+01  0.60522661126E+01  0.10566000000E+00 0. -1.
        -13    1    4    4    0    0 -0.15907299502E+02  0.94267957351E+01  0.12147806056E+02  0.22124353353E+02  0.10566000000E+00 0. -1.
        -14    1    4    4    0    0 -0.11596062797E+02  0.63534095500E+01  0.74467346323E+01  0.15175254264E+02  0.00000000000E+00 0.  1.
<mgrwt>
<rscale>  0 0.80237613E+02</rscale>
<asrwt>0</asrwt>
<pdfrwt beam="1">  1        1 0.52434843E-02 0.80237613E+02</pdfrwt>
<pdfrwt beam="2">  1       -2 0.72652293E-02 0.80237613E+02</pdfrwt>
<totfact> 0.12260927E+05</totfact>
</mgrwt>
</event>
<event>
 8    1  0.1372337E-020  0.7813785E+02  0.7818608E-02  0.1334421E+00
          1   -1    0    0  501    0  0.00000000000E+00  0.00000000000E+00  0.25240262155E+02  0.25240262658E+02  0.50400000000E-02 0. -1.
         -2   -1    0    0    0  501 -0.00000000000E+00 -0.00000000000E+00 -0.60474051530E+02  0.60474051583E+02  0.25500000000E-02 0.  1.
        -24    2    1    2    0    0  0.00000000000E+00  0.00000000000E+00 -0.35233789374E+02  0.85714314242E+02  0.78137850958E+02 0.  0.
         66    2    3    3    0    0 -0.27754034378E+02  0.11047505497E+02 -0.45206541527E+02  0.54221445978E+02  0.20000013013E+01 0.  0.
         13    1    3    3    0    0  0.27754034378E+02 -0.11047505497E+02  0.99727521524E+01  0.31492868264E+02  0.10566000000E+00 0. -1.
         13    1    4    4    0    0 -0.10552542592E+02  0.49112702350E+01 -0.16960712187E+02  0.20570698879E+02  0.10566000000E+00 0. -1.
        -13    1    4    4    0    0 -0.10948559625E+02  0.37317613268E+01 -0.18703159048E+02  0.21991278336E+02  0.10566000000E+00 0.  1.
        -14    1    4    4    0    0 -0.62529321616E+01  0.24044739348E+01 -0.95426702925E+01  0.11659468763E+02  0.00000000000E+00 0.  1.
<mgrwt>
<rscale>  0 0.78137851E+02</rscale>
<asrwt>0</asrwt>
<pdfrwt beam="1">  1        1 0.38831173E-02 0.78137851E+02</pdfrwt>
<pdfrwt beam="2">  1       -2 0.93037002E-02 0.78137851E+02</pdfrwt>
<totfact> 0.12547159E+05</totfact>
</mgrwt>
</event>
<event>
 8    1  0.1372337E-020  0.8091734E+02  0.7818608E-02  0.1326468E+00
         -2   -1    0    0    0  501 -0.00000000000E+00  0.00000000000E+00  0.25538841423E+03  0.25538841424E+03  0.25500000000E-02 0.  1.
          1   -1    0    0  501    0  0.00000000000E+00 -0.00000000000E+00 -0.64094672159E+01  0.64094691974E+01  0.50400000000E-02 0. -1.
        -24    2    1    2    0    0  0.00000000000E+00  0.88817841970E-15  0.24897894701E+03  0.26179788344E+03  0.80917338794E+02 0.  0.
         66    2    3    3    0    0 -0.25093809606E+02 -0.64564886601E+01  0.22499299205E+03  0.22648892245E+03  0.19999992424E+01 0.  0.
         13    1    3    3    0    0  0.25093809606E+02  0.64564886601E+01  0.23985954968E+02  0.35308960988E+02  0.10566000000E+00 0. -1.
         13    1    4    4    0    0 -0.79211426356E+01 -0.26205338129E+01  0.76012947524E+02  0.76469543306E+02  0.10566000000E+00 0. -1.
        -13    1    4    4    0    0 -0.15082949827E+02 -0.36899373522E+01  0.13002497005E+03  0.13094890230E+03  0.10566000000E+00 0.  1.
         14    1    4    4    0    0 -0.20897171430E+01 -0.14601749501E+00  0.18955074468E+02  0.19070476841E+02  0.00000000000E+00 0. -1.
<mgrwt>
<rscale>  0 0.80917339E+02</rscale>
<asrwt>0</asrwt>
<pdfrwt beam="1">  1        1 0.98607203E-03 0.80917339E+02</pdfrwt>
<pdfrwt beam="2">  1       -2 0.39290525E-01 0.80917339E+02</pdfrwt>
<totfact> 0.74113407E+04</totfact>
</mgrwt>
</event>
<event>
 8    1  0.1372337E-020  0.7955165E+02  0.7818608E-02  0.1330329E+00
         -2   -1    0    0    0  501 -0.00000000000E+00  0.00000000000E+00  0.58142318080E+01  0.58142323672E+01  0.25500000000E-02 0.  1.
          1   -1    0    0  501    0  0.00000000000E+00 -0.00000000000E+00 -0.27211098387E+03  0.27211098392E+03  0.50400000000E-02 0. -1.
        -24    2    1    2    0    0  0.71054273576E-14  0.35527136788E-14 -0.26629675206E+03  0.27792521629E+03  0.79551654211E+02 0.  0.
         66    2    3    3    0    0 -0.35324827645E+02 -0.16826192483E+02 -0.10874005755E+03  0.11558271614E+03  0.19999884802E+01 0.  0.
         13    1    3    3    0    0  0.35324827645E+02  0.16826192483E+02 -0.15755669451E+03  0.16234250014E+03  0.10566000000E+00 0. -1.
         13    1    4    4    0    0 -0.54626953041E+01 -0.30280775981E+01 -0.16471484236E+02  0.17616221244E+02  0.10566000000E+00 0. -1.
        -13    1    4    4    0    0 -0.12358890716E+02 -0.59447748605E+01 -0.36621630745E+02  0.39105466758E+02  0.10566000000E+00 0.  1.
        -14    1    4    4    0    0 -0.17503241625E+02 -0.78533400243E+01 -0.55646942568E+02  0.58861028143E+02  0.00000000000E+00 0.  1.
<mgrwt>
<rscale>  0 0.79551654E+02</rscale>
<asrwt>0</asrwt>
<pdfrwt beam="1">  1        1 0.41863219E-01 0.79551654E+02</pdfrwt>
<pdfrwt beam="2">  1       -2 0.89449746E-03 0.79551654E+02</pdfrwt>
<totfact> 0.17970221E+05</totfact>
</mgrwt>
</event>
<event>
 8    1  0.1372337E-020  0.7914848E+02  0.7818608E-02  0.1331485E+00
          1   -1    0    0  501    0  0.00000000000E+00  0.00000000000E+00  0.81585236753E+02  0.81585236909E+02  0.50400000000E-02 0. -1.
         -2   -1    0    0    0  501 -0.00000000000E+00 -0.00000000000E+00 -0.19196123872E+02  0.19196124041E+02  0.25500000000E-02 0.  1.
        -24    2    1    2    0    0  0.00000000000E+00  0.00000000000E+00  0.62389112881E+02  0.10078136095E+03  0.79148476352E+02 0.  0.
         66    2    3    3    0    0  0.11908319061E+02  0.37560509593E+02  0.26893482969E+02  0.47747872939E+02  0.20000000640E+01 0.  0.
         13    1    3    3    0    0 -0.11908319061E+02 -0.37560509593E+02  0.35495629912E+02  0.53033488011E+02  0.10566000000E+00 0. -1.
         13    1    4    4    0    0  0.56059211818E+01  0.15757726276E+02  0.12312321287E+02  0.20768647265E+02  0.10566000000E+00 0. -1.
        -13    1    4    4    0    0  0.31575026707E+01  0.10938172812E+02  0.75555367929E+01  0.13664214132E+02  0.10566000000E+00 0.  1.
         14    1    4    4    0    0  0.31448952084E+01  0.10864610504E+02  0.70256248895E+01  0.13315011542E+02  0.00000000000E+00 0. -1.
<mgrwt>
<rscale>  0 0.79148476E+02</rscale>
<asrwt>0</asrwt>
<pdfrwt beam="1">  1        1 0.12551575E-01 0.79148476E+02</pdfrwt>
<pdfrwt beam="2">  1       -2 0.29532499E-02 0.79148476E+02</pdfrwt>
<totfact> 0.14634122E+05</totfact>
</mgrwt>
</event>
<event>
 8    1  0.1372337E-020  0.7477102E+02  0.7818608E-02  0.1344582E+00
          1   -1    0    0  501    0  0.00000000000E+00  0.00000000000E+00  0.81370199566E+01  0.81370215175E+01  0.50400000000E-02 0. -1.
         -2   -1    0    0    0  501 -0.00000000000E+00 -0.00000000000E+00 -0.17176757812E+03  0.17176757813E+03  0.25500000000E-02 0.  1.
        -24    2    1    2    0    0 -0.44408920985E-15  0.00000000000E+00 -0.16363055816E+03  0.17990459965E+03  0.74771019871E+02 0.  0.
         66    2    3    3    0    0  0.25558453762E+01 -0.14582428817E+02 -0.16440205427E+03  0.16507942019E+03  0.19999869514E+01 0.  0.
         13    1    3    3    0    0 -0.25558453762E+01  0.14582428817E+02  0.77149610729E+00  0.14825179461E+02  0.10566000000E+00 0. -1.
         13    1    4    4    0    0  0.80391291976E-02 -0.48501746066E+01 -0.53337694779E+02  0.53557866898E+02  0.10566000000E+00 0. -1.
        -13    1    4    4    0    0  0.23844693222E+00 -0.17566001427E+01 -0.21400091015E+02  0.21473648048E+02  0.10566000000E+00 0.  1.
         14    1    4    4    0    0  0.23093593148E+01 -0.79756540673E+01 -0.89664268472E+02  0.90047905244E+02  0.00000000000E+00 0. -1.
<mgrwt>
<rscale>  0 0.74771020E+02</rscale>
<asrwt>0</asrwt>
<pdfrwt beam="1">  1        1 0.12518495E-02 0.74771020E+02</pdfrwt>
<pdfrwt beam="2">  1       -2 0.26425779E-01 0.74771020E+02</pdfrwt>
<totfact> 0.10731108E+05</totfact>
</mgrwt>
</event>
<event>
 8    1  0.1372337E-020  0.8048888E+02  0.7818608E-02  0.1327670E+00
          1   -1    0    0  501    0  0.00000000000E+00  0.00000000000E+00  0.79079906188E+02  0.79079906349E+02  0.50400000000E-02 0. -1.
         -2   -1    0    0    0  501 -0.00000000000E+00 -0.00000000000E+00 -0.20480739200E+02  0.20480739359E+02  0.25500000000E-02 0.  1.
        -24    2    1    2    0    0 -0.17763568394E-14  0.00000000000E+00  0.58599166988E+02  0.99560645707E+02  0.80488879989E+02 0.  0.
         66    2    3    3    0    0 -0.15387296371E+02  0.35299557836E+02  0.43678080713E+02  0.58263216578E+02  0.19999995491E+01 0.  0.
         13    1    3    3    0    0  0.15387296371E+02 -0.35299557836E+02  0.14921086275E+02  0.41297429129E+02  0.10566000000E+00 0. -1.
         13    1    4    4    0    0 -0.29632182043E+01  0.69377424704E+01  0.78615085733E+01  0.10896210983E+02  0.10566000000E+00 0. -1.
        -13    1    4    4    0    0 -0.12008201222E+02  0.27410092669E+02  0.34183420146E+02  0.45431568910E+02  0.10566000000E+00 0.  1.
         14    1    4    4    0    0 -0.41587694405E+00  0.95172269676E+00  0.16331519945E+01  0.19354366849E+01  0.00000000000E+00 0. -1.
<mgrwt>
<rscale>  0 0.80488880E+02</rscale>
<asrwt>0</asrwt>
<pdfrwt beam="1">  1        1 0.12166139E-01 0.80488880E+02</pdfrwt>
<pdfrwt beam="2">  1       -2 0.31508830E-02 0.80488880E+02</pdfrwt>
<totfact> 0.13910073E+05</totfact>
</mgrwt>
</event>
<event>
 8    1  0.1372337E-020  0.8117999E+02  0.7818608E-02  0.1325736E+00
         -2   -1    0    0    0  501 -0.00000000000E+00  0.00000000000E+00  0.18318626855E+03  0.18318626857E+03  0.25500000000E-02 0.  1.
          1   -1    0    0  501    0  0.00000000000E+00 -0.00000000000E+00 -0.89938375059E+01  0.89938389180E+01  0.50400000000E-02 0. -1.
        -24    2    1    2    0    0 -0.17763568394E-14 -0.17763568394E-14  0.17419243105E+03  0.19218010749E+03  0.81179989408E+02 0.  0.
         66    2    3    3    0    0  0.15873588906E+02  0.97726192736E+01  0.17244089843E+03  0.17345702166E+03  0.20000006108E+01 0.  0.
         13    1    3    3    0    0 -0.15873588906E+02 -0.97726192736E+01  0.17515326207E+01  0.18723085824E+02  0.10566000000E+00 0. -1.
         13    1    4    4    0    0  0.54091445936E+01  0.37114119570E+01  0.60247767120E+02  0.60603944022E+02  0.10566000000E+00 0. -1.
        -13    1    4    4    0    0  0.57343344714E+01  0.41492775614E+01  0.66946361183E+02  0.67319577656E+02  0.10566000000E+00 0.  1.
         14    1    4    4    0    0  0.47301098408E+01  0.19119297552E+01  0.45246770123E+02  0.45533499987E+02  0.00000000000E+00 0. -1.
<mgrwt>
<rscale>  0 0.81179989E+02</rscale>
<asrwt>0</asrwt>
<pdfrwt beam="1">  1        1 0.13836676E-02 0.81179989E+02</pdfrwt>
<pdfrwt beam="2">  1       -2 0.28182499E-01 0.81179989E+02</pdfrwt>
<totfact> 0.84799785E+04</totfact>
</mgrwt>
</event>
<event>
 8    1  0.1372337E-020  0.7216517E+02  0.7818608E-02  0.1352881E+00
         -2   -1    0    0    0  501 -0.00000000000E+00  0.00000000000E+00  0.25940119137E+02  0.25940119262E+02  0.25500000000E-02 0.  1.
          1   -1    0    0  501    0  0.00000000000E+00 -0.00000000000E+00 -0.50190700337E+02  0.50190700590E+02  0.50400000000E-02 0. -1.
        -24    2    1    2    0    0  0.00000000000E+00  0.00000000000E+00 -0.24250581200E+02  0.76130819853E+02  0.72165165024E+02 0.  0.
         66    2    3    3    0    0  0.77587711582E+01  0.18692610080E+02  0.19343616188E+02  0.28067555176E+02  0.19999912063E+01 0.  0.
         13    1    3    3    0    0 -0.77587711582E+01 -0.18692610080E+02 -0.43594197388E+02  0.48063264677E+02  0.10566000000E+00 0. -1.
         13    1    4    4    0    0  0.34186856556E+01  0.70090428024E+01  0.63408563385E+01  0.10051453415E+02  0.10566000000E+00 0. -1.
        -13    1    4    4    0    0  0.37743534081E+01  0.97807477578E+01  0.11010471663E+02  0.15203631824E+02  0.10566000000E+00 0.  1.
        -14    1    4    4    0    0  0.56573209452E+00  0.19028195197E+01  0.19922881860E+01  0.28124699365E+01  0.00000000000E+00 0.  1.
<mgrwt>
<rscale>  0 0.72165165E+02</rscale>
<asrwt>0</asrwt>
<pdfrwt beam="1">  1        1 0.77216463E-02 0.72165165E+02</pdfrwt>
<pdfrwt beam="2">  1       -2 0.39907876E-02 0.72165165E+02</pdfrwt>
<totfact> 0.17486935E+05</totfact>
</mgrwt>
</event>
<event>
 8    1  0.1372337E-020  0.8145454E+02  0.7818608E-02  0.1324974E+00
         -2   -1    0    0    0  501 -0.00000000000E+00  0.00000000000E+00  0.10357242383E+02  0.10357242697E+02  0.25500000000E-02 0.  1.
          1   -1    0    0  501    0  0.00000000000E+00 -0.00000000000E+00 -0.16014980167E+03  0.16014980175E+03  0.50400000000E-02 0. -1.
        -24    2    1    2    0    0 -0.35527136788E-14  0.71054273576E-14 -0.14979255928E+03  0.17050704444E+03  0.81454535711E+02 0.  0.
         66    2    3    3    0    0 -0.19447214698E+02  0.30146306654E+02 -0.34691993887E+02  0.49945254132E+02  0.20000015168E+01 0.  0.
         13    1    3    3    0    0  0.19447214698E+02 -0.30146306654E+02 -0.11510056540E+03  0.12056179031E+03  0.10566000000E+00 0. -1.
         13    1    4    4    0    0 -0.27358714367E+01  0.34900595390E+01 -0.44590892757E+01  0.62896859467E+01  0.10566000000E+00 0. -1.
        -13    1    4    4    0    0 -0.13439108627E+02  0.20388370844E+02 -0.23212546975E+02  0.33691672672E+02  0.10566000000E+00 0.  1.
         14    1    4    4    0    0 -0.32722346342E+01  0.62678762709E+01 -0.70203576365E+01  0.99638955129E+01  0.00000000000E+00 0. -1.
<mgrwt>
<rscale>  0 0.81454536E+02</rscale>
<asrwt>0</asrwt>
<pdfrwt beam="1">  1        1 0.24638429E-01 0.81454536E+02</pdfrwt>
<pdfrwt beam="2">  1       -2 0.15934220E-02 0.81454536E+02</pdfrwt>
<totfact> 0.15230727E+05</totfact>
</mgrwt>
</event>
<event>
 8    1  0.1372337E-020  0.6968024E+02  0.7818608E-02  0.1361184E+00
          1   -1    0    0  501    0  0.00000000000E+00  0.00000000000E+00  0.10044703250E+03  0.10044703263E+03  0.50400000000E-02 0. -1.
         -2   -1    0    0    0  501 -0.00000000000E+00 -0.00000000000E+00 -0.12084319287E+02  0.12084319557E+02  0.25500000000E-02 0.  1.
        -24    2    1    2    0    0  0.35527136788E-14  0.00000000000E+00  0.88362713211E+02  0.11253135218E+03  0.69680242091E+02 0.  0.
         66    2    3    3    0    0  0.22707417816E+02 -0.16199918700E+02  0.10582672623E+02  0.29900788419E+02  0.19999996318E+01 0.  0.
         13    1    3    3    0    0 -0.22707417816E+02  0.16199918700E+02  0.77780040588E+02  0.82630563762E+02  0.10566000000E+00 0. -1.
         13    1    4    4    0    0  0.20660572631E+01 -0.19446660260E+01  0.11443266858E+01  0.30612033854E+01  0.10566000000E+00 0. -1.
        -13    1    4    4    0    0  0.17721234359E+02 -0.11694224863E+02  0.77167716963E+01  0.22591077261E+02  0.10566000000E+00 0.  1.
        -14    1    4    4    0    0  0.29201261936E+01 -0.25610278102E+01  0.17215742409E+01  0.42485077731E+01  0.00000000000E+00 0.  1.
<mgrwt>
<rscale>  0 0.69680242E+02</rscale>
<asrwt>0</asrwt>
<pdfrwt beam="1">  1        1 0.15453390E-01 0.69680242E+02</pdfrwt>
<pdfrwt beam="2">  1       -2 0.18591261E-02 0.69680242E+02</pdfrwt>
<totfact> 0.21284301E+05</totfact>
</mgrwt>
</event>
<event>
 8    1  0.1372337E-020  0.7229745E+02  0.7818608E-02  0.1352450E+00
          1   -1    0    0  501    0  0.00000000000E+00  0.00000000000E+00  0.99594295347E+02  0.99594295474E+02  0.50400000000E-02 0. -1.
         -2   -1    0    0    0  501 -0.00000000000E+00 -0.00000000000E+00 -0.13120532452E+02  0.13120532699E+02  0.25500000000E-02 0.  1.
        -24    2    1    2    0    0  0.00000000000E+00 -0.11102230246E-15  0.86473762895E+02  0.11271482817E+03  0.72297446850E+02 0.  0.
         66    2    3    3    0    0  0.15538494294E+02 -0.96682326846E+00 -0.75450205572E+01  0.17415707726E+02  0.19999970601E+01 0.  0.
         13    1    3    3    0    0 -0.15538494294E+02  0.96682326846E+00  0.94018783452E+02  0.95299120447E+02  0.10566000000E+00 0. -1.
         13    1    4    4    0    0  0.75508686623E+01  0.10221346002E+00 -0.43161224843E+01  0.86986287702E+01  0.10566000000E+00 0. -1.
        -13    1    4    4    0    0  0.59564274632E+01 -0.11354582025E+01 -0.24395245662E+01  0.65368752167E+01  0.10566000000E+00 0.  1.
         14    1    4    4    0    0  0.20311981685E+01  0.66421474044E-01 -0.78937350661E+00  0.21802037393E+01  0.00000000000E+00 0. -1.
<mgrwt>
<rscale>  0 0.72297447E+02</rscale>
<asrwt>0</asrwt>
<pdfrwt beam="1">  1        1 0.15322200E-01 0.72297447E+02</pdfrwt>
<pdfrwt beam="2">  1       -2 0.20185434E-02 0.72297447E+02</pdfrwt>
<totfact> 0.19273104E+05</totfact>
</mgrwt>
</event>
<event>
 8    1  0.1509451E-020  0.7867613E+02  0.7818608E-02  0.1332851E+00
          1   -1    0    0  501    0  0.00000000000E+00  0.00000000000E+00  0.99592635706E+02  0.99592635834E+02  0.50400000000E-02 0. -1.
         -2   -1    0    0    0  501 -0.00000000000E+00 -0.00000000000E+00 -0.15538129983E+02  0.15538130192E+02  0.25500000000E-02 0.  1.
        -24    2    1    2    0    0 -0.11102230246E-15  0.00000000000E+00  0.84054505723E+02  0.11513076603E+03  0.78676129501E+02 0.  0.
         66    2    3    3    0    0  0.83080314029E+00 -0.33525841800E+02  0.12035805636E+02  0.35686592995E+02  0.20000000184E+01 0.  0.
         13    1    3    3    0    0 -0.83080314029E+00  0.33525841800E+02  0.72018700087E+02  0.79444173030E+02  0.10566000000E+00 0. -1.
         13    1    4    4    0    0  0.11254131118E+00 -0.86251903165E+01  0.25023106538E+01  0.89821654509E+01  0.10566000000E+00 0. -1.
        -13    1    4    4    0    0  0.36131792996E+00 -0.20242696475E+02  0.72553960671E+01  0.21506958115E+02  0.10566000000E+00 0.  1.
         14    1    4    4    0    0  0.35694389915E+00 -0.46579550079E+01  0.22780989155E+01  0.51974694296E+01  0.00000000000E+00 0. -1.
<mgrwt>
<rscale>  0 0.78676130E+02</rscale>
<asrwt>0</asrwt>
<pdfrwt beam="1">  1        1 0.15321944E-01 0.78676130E+02</pdfrwt>
<pdfrwt beam="2">  1       -2 0.23904815E-02 0.78676130E+02</pdfrwt>
<totfact> 0.15365977E+05</totfact>
</mgrwt>
</event>
<event>
 8    1  0.1372337E-020  0.8038472E+02  0.7818608E-02  0.1327963E+00
         -2   -1    0    0    0  501 -0.00000000000E+00  0.00000000000E+00  0.43763244493E+01  0.43763251923E+01  0.25500000000E-02 0.  1.
          1   -1    0    0  501    0  0.00000000000E+00 -0.00000000000E+00 -0.36912842463E+03  0.36912842467E+03  0.50400000000E-02 0. -1.
        -24    2    1    2    0    0  0.00000000000E+00  0.71054273576E-14 -0.36475210018E+03  0.37350474986E+03  0.80384722301E+02 0.  0.
         66    2    3    3    0    0 -0.17501734560E+02 -0.35940943978E+02 -0.20069824446E+03  0.20465054971E+03  0.20000000716E+01 0.  0.
         13    1    3    3    0    0  0.17501734560E+02  0.35940943978E+02 -0.16405385573E+03  0.16885420015E+03  0.10566000000E+00 0. -1.
         13    1    4    4    0    0 -0.49456432028E+01 -0.92361753432E+01 -0.49473074559E+02  0.50570372670E+02  0.10566000000E+00 0. -1.
        -13    1    4    4    0    0 -0.14948822751E+01 -0.35412420987E+01 -0.18430128248E+02  0.18826998164E+02  0.10566000000E+00 0.  1.
         14    1    4    4    0    0 -0.11061209082E+02 -0.23163526536E+02 -0.13279504165E+03  0.13525317887E+03  0.00000000000E+00 0. -1.
<mgrwt>
<rscale>  0 0.80384722E+02</rscale>
<asrwt>0</asrwt>
<pdfrwt beam="1">  1        1 0.56788964E-01 0.80384722E+02</pdfrwt>
<pdfrwt beam="2">  1       -2 0.67328103E-03 0.80384722E+02</pdfrwt>
<totfact> 0.18502620E+05</totfact>
</mgrwt>
</event>
<event>
 8    1  0.1372337E-020  0.8209296E+02  0.7818608E-02  0.1323215E+00
         -2   -1    0    0    0  501 -0.00000000000E+00  0.00000000000E+00  0.14684501162E+03  0.14684501164E+03  0.25500000000E-02 0.  1.
          1   -1    0    0  501    0  0.00000000000E+00 -0.00000000000E+00 -0.11473413519E+02  0.11473414626E+02  0.50400000000E-02 0. -1.
        -24    2    1    2    0    0  0.00000000000E+00 -0.17763568394E-14  0.13537159810E+03  0.15831842627E+03  0.82092962694E+02 0.  0.
         66    2    3    3    0    0  0.85925054022E+01 -0.13628360917E+02  0.14048129055E+03  0.14141625211E+03  0.19999992354E+01 0.  0.
         13    1    3    3    0    0 -0.85925054022E+01  0.13628360917E+02 -0.51096924450E+01  0.16902174159E+02  0.10566000000E+00 0. -1.
         13    1    4    4    0    0  0.62551957179E+01 -0.10173797555E+02  0.10318734331E+03  0.10387623700E+03  0.10566000000E+00 0. -1.
        -13    1    4    4    0    0  0.22250803716E+01 -0.26496780637E+01  0.28804455577E+02  0.29011714903E+02  0.10566000000E+00 0.  1.
         14    1    4    4    0    0  0.11222931282E+00 -0.80488529884E+00  0.84894916574E+01  0.85283002037E+01  0.00000000000E+00 0. -1.
<mgrwt>
<rscale>  0 0.82092963E+02</rscale>
<asrwt>0</asrwt>
<pdfrwt beam="1">  1        1 0.17651408E-02 0.82092963E+02</pdfrwt>
<pdfrwt beam="2">  1       -2 0.22591538E-01 0.82092963E+02</pdfrwt>
<totfact> 0.89045418E+04</totfact>
</mgrwt>
</event>
<event>
 8    1  0.1372337E-020  0.7984151E+02  0.7818608E-02  0.1329502E+00
         -2   -1    0    0    0  501 -0.00000000000E+00  0.00000000000E+00  0.12206835655E+02  0.12206835922E+02  0.25500000000E-02 0.  1.
          1   -1    0    0  501    0  0.00000000000E+00 -0.00000000000E+00 -0.13055524930E+03  0.13055524939E+03  0.50400000000E-02 0. -1.
        -24    2    1    2    0    0  0.00000000000E+00  0.00000000000E+00 -0.11834841364E+03  0.14276208532E+03  0.79841505448E+02 0.  0.
         66    2    3    3    0    0  0.20856088255E+02 -0.33801643044E+02 -0.52488940088E+02  0.65852990206E+02  0.19999994410E+01 0.  0.
         13    1    3    3    0    0 -0.20856088255E+02  0.33801643044E+02 -0.65859473554E+02  0.76909095110E+02  0.10566000000E+00 0. -1.
         13    1    4    4    0    0  0.11076685896E+02 -0.17348416899E+02 -0.26469185874E+02  0.33530426544E+02  0.10566000000E+00 0.  1.
        -13    1    4    4    0    0  0.80229760296E+00 -0.98716812037E+00 -0.14134601642E+01  0.19045251411E+01  0.10566000000E+00 0. -1.
         14    1    4    4    0    0  0.89771047562E+01 -0.15466058025E+02 -0.24606294050E+02  0.30418038521E+02  0.00000000000E+00 0. -1.
<mgrwt>
<rscale>  0 0.79841505E+02</rscale>
<asrwt>0</asrwt>
<pdfrwt beam="1">  1        1 0.20085422E-01 0.79841505E+02</pdfrwt>
<pdfrwt beam="2">  1       -2 0.18779748E-02 0.79841505E+02</pdfrwt>
<totfact> 0.15476893E+05</totfact>
</mgrwt>
</event>
<event>
 8    1  0.1372337E-020  0.7963232E+02  0.7818608E-02  0.1330098E+00
         -2   -1    0    0    0  501 -0.00000000000E+00  0.00000000000E+00  0.53495309179E+02  0.53495309240E+02  0.25500000000E-02 0.  1.
          1   -1    0    0  501    0  0.00000000000E+00 -0.00000000000E+00 -0.29634874436E+02  0.29634874864E+02  0.50400000000E-02 0. -1.
        -24    2    1    2    0    0 -0.35527136788E-14 -0.71054273576E-14  0.23860434744E+02  0.83130184105E+02  0.79632324863E+02 0.  0.
         66    2    3    3    0    0  0.14616795055E+02  0.28270917725E+02  0.36870411707E+02  0.48747540935E+02  0.20000002551E+01 0.  0.
         13    1    3    3    0    0 -0.14616795055E+02 -0.28270917725E+02 -0.13009976964E+02  0.34382643170E+02  0.10566000000E+00 0. -1.
         13    1    4    4    0    0  0.10025012097E+00  0.56914685710E+00  0.63429773572E+00  0.86456687702E+00  0.10566000000E+00 0.  1.
        -13    1    4    4    0    0  0.80503720390E+01  0.14951474123E+02  0.18757381504E+02  0.25302284350E+02  0.10566000000E+00 0.  1.
         14    1    4    4    0    0  0.64661728947E+01  0.12750296746E+02  0.17478732468E+02  0.22580689708E+02  0.00000000000E+00 0. -1.
<mgrwt>
<rscale>  0 0.79632325E+02</rscale>
<asrwt>0</asrwt>
<pdfrwt beam="1">  1        1 0.45592115E-02 0.79632325E+02</pdfrwt>
<pdfrwt beam="2">  1       -2 0.82300476E-02 0.79632325E+02</pdfrwt>
<totfact> 0.12229465E+05</totfact>
</mgrwt>
</event>
<event>
 8    1  0.1372337E-020  0.7729691E+02  0.7818608E-02  0.1336902E+00
         -2   -1    0    0    0  501 -0.00000000000E+00  0.00000000000E+00  0.23520700633E+03  0.23520700635E+03  0.25500000000E-02 0.  1.
          1   -1    0    0  501    0  0.00000000000E+00 -0.00000000000E+00 -0.63505886587E+01  0.63505906586E+01  0.50400000000E-02 0. -1.
        -24    2    1    2    0    0  0.88817841970E-15  0.00000000000E+00  0.22885641768E+03  0.24155759701E+03  0.77296913007E+02 0.  0.
         66    2    3    3    0    0 -0.42261030041E+01 -0.32027073057E+02  0.18065742853E+03  0.18353392017E+03  0.20000034760E+01 0.  0.
         13    1    3    3    0    0  0.42261030041E+01  0.32027073057E+02  0.48198989145E+02  0.58023676838E+02  0.10566000000E+00 0. -1.
         13    1    4    4    0    0 -0.81398741806E+00 -0.35017332728E+01  0.22246991185E+02  0.22535849047E+02  0.10566000000E+00 0. -1.
        -13    1    4    4    0    0 -0.14903523957E+01 -0.15860823337E+02  0.89758894494E+02  0.91161708914E+02  0.10566000000E+00 0.  1.
         14    1    4    4    0    0 -0.19217631903E+01 -0.12664516447E+02  0.68651542851E+02  0.69836362208E+02  0.00000000000E+00 0. -1.
<mgrwt>
<rscale>  0 0.77296913E+02</rscale>
<asrwt>0</asrwt>
<pdfrwt beam="1">  1        1 0.97701384E-03 0.77296913E+02</pdfrwt>
<pdfrwt beam="2">  1       -2 0.36185692E-01 0.77296913E+02</pdfrwt>
<totfact> 0.86694577E+04</totfact>
</mgrwt>
</event>
<event>
 8    1  0.1372337E-020  0.7939201E+02  0.7818608E-02  0.1330786E+00
         -2   -1    0    0    0  501 -0.00000000000E+00  0.00000000000E+00  0.31254367449E+02  0.31254367553E+02  0.25500000000E-02 0.  1.
          1   -1    0    0  501    0  0.00000000000E+00 -0.00000000000E+00 -0.50417687415E+02  0.50417687667E+02  0.50400000000E-02 0. -1.
        -24    2    1    2    0    0  0.00000000000E+00  0.00000000000E+00 -0.19163319966E+02  0.81672055220E+02  0.79392013274E+02 0.  0.
         66    2    3    3    0    0  0.17803183386E+02  0.90563985888E+01  0.25671922803E+02  0.32588637937E+02  0.20000020336E+01 0.  0.
         13    1    3    3    0    0 -0.17803183386E+02 -0.90563985888E+01 -0.44835242768E+02  0.49083417283E+02  0.10566000000E+00 0. -1.
         13    1    4    4    0    0  0.11213625697E+01  0.98197404950E+00  0.18155307511E+01  0.23513917135E+01  0.10566000000E+00 0. -1.
        -13    1    4    4    0    0  0.12260883658E+02  0.59059790800E+01  0.16562775742E+02  0.21437037139E+02  0.10566000000E+00 0.  1.
        -14    1    4    4    0    0  0.44209371580E+01  0.21684454593E+01  0.72936163090E+01  0.88002090843E+01  0.00000000000E+00 0.  1.
<mgrwt>
<rscale>  0 0.79392013E+02</rscale>
<asrwt>0</asrwt>
<pdfrwt beam="1">  1        1 0.77565674E-02 0.79392013E+02</pdfrwt>
<pdfrwt beam="2">  1       -2 0.48083642E-02 0.79392013E+02</pdfrwt>
<totfact> 0.13456577E+05</totfact>
</mgrwt>
</event>
<event>
 8    1  0.1372337E-020  0.7967646E+02  0.7818608E-02  0.1329972E+00
         -2   -1    0    0    0  501 -0.00000000000E+00  0.00000000000E+00  0.97185787866E+02  0.97185787899E+02  0.25500000000E-02 0.  1.
          1   -1    0    0  501    0  0.00000000000E+00 -0.00000000000E+00 -0.16330419047E+02  0.16330419824E+02  0.50400000000E-02 0. -1.
        -24    2    1    2    0    0  0.35527136788E-14  0.00000000000E+00  0.80855368819E+02  0.11351620772E+03  0.79676462956E+02 0.  0.
         66    2    3    3    0    0  0.29929335586E+02 -0.26041731604E+02  0.35697266719E+02  0.53406289550E+02  0.19999996733E+01 0.  0.
         13    1    3    3    0    0 -0.29929335586E+02  0.26041731604E+02  0.45158102100E+02  0.60109918174E+02  0.10566000000E+00 0. -1.
         13    1    4    4    0    0  0.54296824826E+01 -0.39042667334E+01  0.55734254579E+01  0.87062613077E+01  0.10566000000E+00 0. -1.
        -13    1    4    4    0    0  0.14619878168E+02 -0.13216445813E+02  0.17599052192E+02  0.26422586544E+02  0.10566000000E+00 0.  1.
         14    1    4    4    0    0  0.98797749356E+01 -0.89210190574E+01  0.12524789069E+02  0.18277441698E+02  0.00000000000E+00 0. -1.
<mgrwt>
<rscale>  0 0.79676463E+02</rscale>
<asrwt>0</asrwt>
<pdfrwt beam="1">  1        1 0.25123722E-02 0.79676463E+02</pdfrwt>
<pdfrwt beam="2">  1       -2 0.14951660E-01 0.79676463E+02</pdfrwt>
<totfact> 0.10798952E+05</totfact>
</mgrwt>
</event>
<event>
 8    1  0.1372337E-020  0.7923713E+02  0.7818608E-02  0.1331230E+00
          1   -1    0    0  501    0  0.00000000000E+00  0.00000000000E+00  0.11160388848E+03  0.11160388859E+03  0.50400000000E-02 0. -1.
         -2   -1    0    0    0  501 -0.00000000000E+00 -0.00000000000E+00 -0.14064301162E+02  0.14064301393E+02  0.25500000000E-02 0.  1.
        -24    2    1    2    0    0 -0.71054273576E-14 -0.17763568394E-14  0.97539587316E+02  0.12566818998E+03  0.79237130692E+02 0.  0.
         66    2    3    3    0    0  0.34455776841E+02  0.75010803483E+01  0.20246205246E+02  0.40710878116E+02  0.20000015044E+01 0.  0.
         13    1    3    3    0    0 -0.34455776841E+02 -0.75010803483E+01  0.77293382070E+02  0.84957311869E+02  0.10566000000E+00 0. -1.
         13    1    4    4    0    0  0.13961035809E+02  0.37776657209E+01  0.80978402287E+01  0.16576111111E+02  0.10566000000E+00 0. -1.
        -13    1    4    4    0    0  0.20387538829E+02  0.36848614378E+01  0.12155239216E+02  0.24020635873E+02  0.10566000000E+00 0.  1.
         14    1    4    4    0    0  0.10720220292E+00  0.38553189630E-01 -0.68741980490E-02  0.11413113222E+00  0.00000000000E+00 0. -1.
<mgrwt>
<rscale>  0 0.79237131E+02</rscale>
<asrwt>0</asrwt>
<pdfrwt beam="1">  1        1 0.17169829E-01 0.79237131E+02</pdfrwt>
<pdfrwt beam="2">  1       -2 0.21637386E-02 0.79237131E+02</pdfrwt>
<totfact> 0.15367736E+05</totfact>
</mgrwt>
</event>
<event>
 8    1  0.1372337E-020  0.7986124E+02  0.7818608E-02  0.1329446E+00
         -2   -1    0    0    0  501 -0.00000000000E+00  0.00000000000E+00  0.17179907644E+02  0.17179907833E+02  0.25500000000E-02 0.  1.
          1   -1    0    0  501    0  0.00000000000E+00 -0.00000000000E+00 -0.92809261022E+02  0.92809261159E+02  0.50400000000E-02 0. -1.
        -24    2    1    2    0    0  0.71054273576E-14 -0.88817841970E-15 -0.75629353378E+02  0.10998916899E+03  0.79861243436E+02 0.  0.
         66    2    3    3    0    0 -0.35523025413E+02  0.32524731586E+01 -0.13201820638E+02  0.38088738366E+02  0.20000014921E+01 0.  0.
         13    1    3    3    0    0  0.35523025413E+02 -0.32524731586E+01 -0.62427532741E+02  0.71900430627E+02  0.10566000000E+00 0. -1.
         13    1    4    4    0    0 -0.31556492210E+01  0.97719169267E-01 -0.96886407617E+00  0.33041689841E+01  0.10566000000E+00 0. -1.
        -13    1    4    4    0    0 -0.30443363072E+02  0.32938346874E+01 -0.11277689294E+02  0.32631965033E+02  0.10566000000E+00 0.  1.
         14    1    4    4    0    0 -0.19240131209E+01 -0.13908069799E+00 -0.95526726747E+00  0.21526043487E+01  0.00000000000E+00 0. -1.
<mgrwt>
<rscale>  0 0.79861243E+02</rscale>
<asrwt>0</asrwt>
<pdfrwt beam="1">  1        1 0.14278348E-01 0.79861243E+02</pdfrwt>
<pdfrwt beam="2">  1       -2 0.26430628E-02 0.79861243E+02</pdfrwt>
<totfact> 0.14585636E+05</totfact>
</mgrwt>
</event>
<event>
 8    1  0.1372337E-020  0.7952705E+02  0.7818608E-02  0.1330399E+00
          1   -1    0    0  501    0  0.00000000000E+00  0.00000000000E+00  0.89974326638E+02  0.89974326779E+02  0.50400000000E-02 0. -1.
         -2   -1    0    0    0  501 -0.00000000000E+00 -0.00000000000E+00 -0.17573211641E+02  0.17573211826E+02  0.25500000000E-02 0.  1.
        -24    2    1    2    0    0  0.00000000000E+00 -0.35527136788E-14  0.72401114997E+02  0.10754753860E+03  0.79527049531E+02 0.  0.
         66    2    3    3    0    0 -0.16969254149E+02  0.31796908554E+02  0.13589014700E+02  0.38570199678E+02  0.20000006935E+01 0.  0.
         13    1    3    3    0    0  0.16969254149E+02 -0.31796908554E+02  0.58812100297E+02  0.68977338926E+02  0.10566000000E+00 0. -1.
         13    1    4    4    0    0 -0.69098010378E+01  0.12086701861E+02  0.47165795538E+01  0.14700033979E+02  0.10566000000E+00 0. -1.
        -13    1    4    4    0    0 -0.77097555706E+01  0.14030689659E+02  0.62109434713E+01  0.17172290649E+02  0.10566000000E+00 0.  1.
         14    1    4    4    0    0 -0.23496975406E+01  0.56795170331E+01  0.26614916750E+01  0.66978750509E+01  0.00000000000E+00 0. -1.
<mgrwt>
<rscale>  0 0.79527050E+02</rscale>
<asrwt>0</asrwt>
<pdfrwt beam="1">  1        1 0.13842204E-01 0.79527050E+02</pdfrwt>
<pdfrwt beam="2">  1       -2 0.27035710E-02 0.79527050E+02</pdfrwt>
<totfact> 0.14677090E+05</totfact>
</mgrwt>
</event>
<event>
 8    1  0.1372337E-020  0.7929077E+02  0.7818608E-02  0.1331076E+00
         -2   -1    0    0    0  501 -0.00000000000E+00  0.00000000000E+00  0.17754720892E+02  0.17754721075E+02  0.25500000000E-02 0.  1.
          1   -1    0    0  501    0  0.00000000000E+00 -0.00000000000E+00 -0.88526124817E+02  0.88526124960E+02  0.50400000000E-02 0. -1.
        -24    2    1    2    0    0  0.00000000000E+00  0.00000000000E+00 -0.70771403925E+02  0.10628084603E+03  0.79290772605E+02 0.  0.
         66    2    3    3    0    0  0.21173676150E+02 -0.70500617423E+01  0.84725714283E+01  0.23954381723E+02  0.20000012143E+01 0.  0.
         13    1    3    3    0    0 -0.21173676150E+02  0.70500617423E+01 -0.79243975353E+02  0.82326464312E+02  0.10566000000E+00 0. -1.
         13    1    4    4    0    0  0.47524660808E+00 -0.21053789302E+00  0.35457076623E+00  0.63802038114E+00  0.10566000000E+00 0. -1.
        -13    1    4    4    0    0  0.68608407093E+01 -0.24999598576E+01  0.34880379413E+01  0.80931148049E+01  0.10566000000E+00 0. -1.
        -14    1    4    4    0    0  0.13837588832E+02 -0.43395639916E+01  0.46299627208E+01  0.15223246537E+02  0.00000000000E+00 0.  1.
<mgrwt>
<rscale>  0 0.79290773E+02</rscale>
<asrwt>0</asrwt>
<pdfrwt beam="1">  1        1 0.13619404E-01 0.79290773E+02</pdfrwt>
<pdfrwt beam="2">  1       -2 0.27314956E-02 0.79290773E+02</pdfrwt>
<totfact> 0.14756683E+05</totfact>
</mgrwt>
</event>
<event>
 8    1  0.1372337E-020  0.8081227E+02  0.7818608E-02  0.1326762E+00
          1   -1    0    0  501    0  0.00000000000E+00  0.00000000000E+00  0.19068845872E+02  0.19068846538E+02  0.50400000000E-02 0. -1.
         -2   -1    0    0    0  501 -0.00000000000E+00 -0.00000000000E+00 -0.85619015563E+02  0.85619015601E+02  0.25500000000E-02 0.  1.
        -24    2    1    2    0    0  0.00000000000E+00  0.35527136788E-14 -0.66550169691E+02  0.10468786214E+03  0.80812272541E+02 0.  0.
         66    2    3    3    0    0  0.10548348669E+02 -0.24662135673E+02 -0.72399021154E+02  0.77234104234E+02  0.19999992852E+01 0.  0.
         13    1    3    3    0    0 -0.10548348669E+02  0.24662135673E+02  0.58488514631E+01  0.27453757905E+02  0.10566000000E+00 0. -1.
         13    1    4    4    0    0  0.58821103587E+00 -0.17562532432E+01 -0.62447375560E+01  0.65144707272E+01  0.10566000000E+00 0. -1.
        -13    1    4    4    0    0  0.21632944315E+01 -0.60037377741E+01 -0.16580242133E+02  0.17766268693E+02  0.10566000000E+00 0.  1.
        -14    1    4    4    0    0  0.77968432021E+01 -0.16902144656E+02 -0.49574041466E+02  0.52953364814E+02  0.00000000000E+00 0.  1.
<mgrwt>
<rscale>  0 0.80812273E+02</rscale>
<asrwt>0</asrwt>
<pdfrwt beam="1">  1        1 0.29336687E-02 0.80812273E+02</pdfrwt>
<pdfrwt beam="2">  1       -2 0.13172156E-01 0.80812273E+02</pdfrwt>
<totfact> 0.10729687E+05</totfact>
</mgrwt>
</event>
<event>
 8    1  0.1372337E-020  0.7907378E+02  0.7818608E-02  0.1331701E+00
         -2   -1    0    0    0  501 -0.00000000000E+00  0.00000000000E+00  0.52314934395E+03  0.52314934396E+03  0.25500000000E-02 0.  1.
          1   -1    0    0  501    0  0.00000000000E+00 -0.00000000000E+00 -0.29879892213E+01  0.29879934719E+01  0.50400000000E-02 0. -1.
        -24    2    1    2    0    0  0.17763568394E-14 -0.71054273576E-14  0.52016135473E+03  0.52613733743E+03  0.79073781260E+02 0.  0.
         66    2    3    3    0    0  0.14882730092E+02 -0.33116156444E+02  0.36396518691E+03  0.36577702601E+03  0.20000005320E+01 0.  0.
         13    1    3    3    0    0 -0.14882730092E+02  0.33116156444E+02  0.15619616782E+03  0.16036031142E+03  0.10566000000E+00 0. -1.
         13    1    4    4    0    0  0.38091751634E+01 -0.82555444429E+01  0.95399993728E+02  0.95832321254E+02  0.10566000000E+00 0.  1.
        -13    1    4    4    0    0  0.24668313793E+01 -0.48066826667E+01  0.58466638070E+02  0.58715827394E+02  0.10566000000E+00 0. -1.
         14    1    4    4    0    0  0.86067235495E+01 -0.20053929334E+02  0.21009855511E+03  0.21122887736E+03  0.00000000000E+00 0. -1.
<mgrwt>
<rscale>  0 0.79073781E+02</rscale>
<asrwt>0</asrwt>
<pdfrwt beam="1">  1        1 0.45969111E-03 0.79073781E+02</pdfrwt>
<pdfrwt beam="2">  1       -2 0.80484492E-01 0.79073781E+02</pdfrwt>
<totfact> 0.50129349E+04</totfact>
</mgrwt>
</event>
<event>
 8    1  0.1372337E-020  0.7809051E+02  0.7818608E-02  0.1334559E+00
          1   -1    0    0  501    0  0.00000000000E+00  0.00000000000E+00  0.19340690232E+03  0.19340690238E+03  0.50400000000E-02 0. -1.
         -2   -1    0    0    0  501 -0.00000000000E+00 -0.00000000000E+00 -0.78825103096E+01  0.78825107221E+01  0.25500000000E-02 0.  1.
        -24    2    1    2    0    0  0.00000000000E+00  0.00000000000E+00  0.18552439201E+03  0.20128941310E+03  0.78090510296E+02 0.  0.
         66    2    3    3    0    0 -0.28404891070E+02  0.26296836521E+02  0.80151572362E+02  0.89031657329E+02  0.20000017495E+01 0.  0.
         13    1    3    3    0    0  0.28404891070E+02 -0.26296836521E+02  0.10537281965E+03  0.11225775578E+03  0.10566000000E+00 0. -1.
         13    1    4    4    0    0 -0.20246177717E+01  0.20534135293E+01  0.55660036615E+01  0.62695410549E+01  0.10566000000E+00 0. -1.
        -13    1    4    4    0    0 -0.16845352449E+02  0.15978556211E+02  0.49972591711E+02  0.55103096502E+02  0.10566000000E+00 0.  1.
        -14    1    4    4    0    0 -0.95349208495E+01  0.82648667806E+01  0.24612976989E+02  0.27659019772E+02  0.00000000000E+00 0.  1.
<mgrwt>
<rscale>  0 0.78090510E+02</rscale>
<asrwt>0</asrwt>
<pdfrwt beam="1">  1        1 0.29754908E-01 0.78090510E+02</pdfrwt>
<pdfrwt beam="2">  1       -2 0.12126939E-02 0.78090510E+02</pdfrwt>
<totfact> 0.17662572E+05</totfact>
</mgrwt>
</event>
<event>
 8    1  0.1372337E-020  0.8084189E+02  0.7818608E-02  0.1326679E+00
          1   -1    0    0  501    0  0.00000000000E+00  0.00000000000E+00  0.15017146661E+02  0.15017147507E+02  0.50400000000E-02 0. -1.
         -2   -1    0    0    0  501 -0.00000000000E+00 -0.00000000000E+00 -0.10879915977E+03  0.10879915980E+03  0.25500000000E-02 0.  1.
        -24    2    1    2    0    0  0.00000000000E+00 -0.17763568394E-14 -0.93782013106E+02  0.12381630730E+03  0.80841894906E+02 0.  0.
         66    2    3    3    0    0  0.36375425632E+02 -0.11966693566E+02 -0.66621481710E+02  0.76868687826E+02  0.19999994979E+01 0.  0.
         13    1    3    3    0    0 -0.36375425632E+02  0.11966693566E+02 -0.27160531395E+02  0.46947619477E+02  0.10566000000E+00 0. -1.
         13    1    4    4    0    0  0.65430862886E+01 -0.16745107633E+01 -0.11793742914E+02  0.13591155229E+02  0.10566000000E+00 0. -1.
        -13    1    4    4    0    0  0.22083692368E+02 -0.72164955668E+01 -0.39322270605E+02  0.45672961438E+02  0.10566000000E+00 0.  1.
         14    1    4    4    0    0  0.77486469759E+01 -0.30756872356E+01 -0.15505468190E+02  0.17604571160E+02  0.00000000000E+00 0. -1.
<mgrwt>
<rscale>  0 0.80841895E+02</rscale>
<asrwt>0</asrwt>
<pdfrwt beam="1">  1        1 0.23103304E-02 0.80841895E+02</pdfrwt>
<pdfrwt beam="2">  1       -2 0.16738332E-01 0.80841895E+02</pdfrwt>
<totfact> 0.10111749E+05</totfact>
</mgrwt>
</event>
<event>
 8    1  0.1372337E-020  0.7913538E+02  0.7818608E-02  0.1331523E+00
         -2   -1    0    0    0  501 -0.00000000000E+00  0.00000000000E+00  0.16737688446E+02  0.16737688640E+02  0.25500000000E-02 0.  1.
          1   -1    0    0  501    0  0.00000000000E+00 -0.00000000000E+00 -0.93537537157E+02  0.93537537293E+02  0.50400000000E-02 0. -1.
        -24    2    1    2    0    0 -0.88817841970E-15  0.00000000000E+00 -0.76799848711E+02  0.11027522593E+03  0.79135382052E+02 0.  0.
         66    2    3    3    0    0  0.49708599418E+01  0.17686283531E+02  0.10369705909E+02  0.21190679067E+02  0.20000012401E+01 0.  0.
         13    1    3    3    0    0 -0.49708599418E+01 -0.17686283531E+02 -0.87169554620E+02  0.89084546866E+02  0.10566000000E+00 0. -1.
         13    1    4    4    0    0  0.10794069762E+01  0.59805456096E+01  0.37204873446E+01  0.71263760303E+01  0.10566000000E+00 0. -1.
        -13    1    4    4    0    0  0.95052949584E+00  0.27421410615E+01  0.21452561836E+01  0.36105584129E+01  0.10566000000E+00 0.  1.
        -14    1    4    4    0    0  0.29409234697E+01  0.89635968601E+01  0.45039623805E+01  0.10453744623E+02  0.00000000000E+00 0.  1.
<mgrwt>
<rscale>  0 0.79135382E+02</rscale>
<asrwt>0</asrwt>
<pdfrwt beam="1">  1        1 0.14390390E-01 0.79135382E+02</pdfrwt>
<pdfrwt beam="2">  1       -2 0.25750291E-02 0.79135382E+02</pdfrwt>
<totfact> 0.14969884E+05</totfact>
</mgrwt>
</event>
<event>
 8    1  0.1372337E-020  0.8056547E+02  0.7818608E-02  0.1327454E+00
         -2   -1    0    0    0  501 -0.00000000000E+00  0.00000000000E+00  0.20633922439E+02  0.20633922596E+02  0.25500000000E-02 0.  1.
          1   -1    0    0  501    0  0.00000000000E+00 -0.00000000000E+00 -0.78642283520E+02  0.78642283681E+02  0.50400000000E-02 0. -1.
        -24    2    1    2    0    0  0.35527136788E-14 -0.88817841970E-15 -0.58008361081E+02  0.99276206277E+02  0.80565471373E+02 0.  0.
         66    2    3    3    0    0 -0.31603177991E+02 -0.54702778431E+01  0.95998055336E+00  0.32149748915E+02  0.19999984572E+01 0.  0.
         13    1    3    3    0    0  0.31603177991E+02  0.54702778431E+01 -0.58968341634E+02  0.67126457362E+02  0.10566000000E+00 0. -1.
         13    1    4    4    0    0 -0.54315425621E+01 -0.42794732034E+00  0.48820096795E+00  0.54712245186E+01  0.10566000000E+00 0. -1.
        -13    1    4    4    0    0 -0.11898384393E+02 -0.21448633719E+01  0.71990746074E+00  0.12112036196E+02  0.10566000000E+00 0.  1.
         14    1    4    4    0    0 -0.14273251037E+02 -0.28974671509E+01 -0.24812787532E+00  0.14566488200E+02  0.00000000000E+00 0. -1.
<mgrwt>
<rscale>  0 0.80565471E+02</rscale>
<asrwt>0</asrwt>
<pdfrwt beam="1">  1        1 0.12098813E-01 0.80565471E+02</pdfrwt>
<pdfrwt beam="2">  1       -2 0.31744497E-02 0.80565471E+02</pdfrwt>
<totfact> 0.13861605E+05</totfact>
</mgrwt>
</event>
<event>
 8    1  0.1372337E-020  0.7982409E+02  0.7818608E-02  0.1329551E+00
          1   -1    0    0  501    0  0.00000000000E+00  0.00000000000E+00  0.18698965442E+02  0.18698966122E+02  0.50400000000E-02 0. -1.
         -2   -1    0    0    0  501 -0.00000000000E+00 -0.00000000000E+00 -0.85190341146E+02  0.85190341185E+02  0.25500000000E-02 0.  1.
        -24    2    1    2    0    0 -0.17763568394E-14  0.00000000000E+00 -0.66491375704E+02  0.10388930731E+03  0.79824088654E+02 0.  0.
         66    2    3    3    0    0  0.14723997373E+02  0.36995593283E+02 -0.30215290162E+02  0.50024331977E+02  0.20000022784E+01 0.  0.
         13    1    3    3    0    0 -0.14723997373E+02 -0.36995593283E+02 -0.36276085542E+02  0.53864975330E+02  0.10566000000E+00 0. -1.
         13    1    4    4    0    0  0.76738805841E+01  0.17277146414E+02 -0.14004354017E+02  0.23527033959E+02  0.10566000000E+00 0. -1.
        -13    1    4    4    0    0  0.57723033890E+01  0.15361909819E+02 -0.12378331515E+02  0.20555826786E+02  0.10566000000E+00 0.  1.
         14    1    4    4    0    0  0.12778133998E+01  0.43565370496E+01 -0.38326046301E+01  0.59414712319E+01  0.00000000000E+00 0. -1.
<mgrwt>
<rscale>  0 0.79824089E+02</rscale>
<asrwt>0</asrwt>
<pdfrwt beam="1">  1        1 0.28767640E-02 0.79824089E+02</pdfrwt>
<pdfrwt beam="2">  1       -2 0.13106206E-01 0.79824089E+02</pdfrwt>
<totfact> 0.11084476E+05</totfact>
</mgrwt>
</event>
<event>
 8    1  0.1372337E-020  0.7699406E+02  0.7818608E-02  0.1337805E+00
         -2   -1    0    0    0  501 -0.00000000000E+00  0.00000000000E+00  0.74862436090E+02  0.74862436133E+02  0.25500000000E-02 0.  1.
          1   -1    0    0  501    0  0.00000000000E+00 -0.00000000000E+00 -0.19796596692E+02  0.19796597333E+02  0.50400000000E-02 0. -1.
        -24    2    1    2    0    0  0.00000000000E+00  0.71054273576E-14  0.55065839398E+02  0.94659033467E+02  0.76994064370E+02 0.  0.
         66    2    3    3    0    0  0.19966024509E+02  0.32812216082E+02  0.24876780315E+02  0.45805434712E+02  0.19999978612E+01 0.  0.
         13    1    3    3    0    0 -0.19966024509E+02 -0.32812216082E+02  0.30189059083E+02  0.48853598755E+02  0.10566000000E+00 0. -1.
         13    1    4    4    0    0  0.41407019050E+01  0.71084521148E+01  0.59046645493E+01  0.10126782866E+02  0.10566000000E+00 0. -1.
        -13    1    4    4    0    0  0.15445429763E+02  0.24853181919E+02  0.18131565277E+02  0.34423927369E+02  0.10566000000E+00 0.  1.
         14    1    4    4    0    0  0.37989284069E+00  0.85058204789E+00  0.84055048800E+00  0.12547244771E+01  0.00000000000E+00 0. -1.
<mgrwt>
<rscale>  0 0.76994064E+02</rscale>
<asrwt>0</asrwt>
<pdfrwt beam="1">  1        1 0.30456303E-02 0.76994064E+02</pdfrwt>
<pdfrwt beam="2">  1       -2 0.11517298E-01 0.76994064E+02</pdfrwt>
<totfact> 0.12493884E+05</totfact>
</mgrwt>
</event>
<event>
 8    1  0.1372337E-020  0.8047288E+02  0.7818608E-02  0.1327715E+00
         -2   -1    0    0    0  501 -0.00000000000E+00  0.00000000000E+00  0.30577914770E+03  0.30577914771E+03  0.25500000000E-02 0.  1.
          1   -1    0    0  501    0  0.00000000000E+00 -0.00000000000E+00 -0.52945755225E+01  0.52945779214E+01  0.50400000000E-02 0. -1.
        -24    2    1    2    0    0  0.00000000000E+00  0.44408920985E-15  0.30048457217E+03  0.31107372563E+03  0.80472881530E+02 0.  0.
         66    2    3    3    0    0  0.25472442386E+02 -0.13478659179E+01  0.27049780950E+03  0.27170522092E+03  0.20000160256E+01 0.  0.
         13    1    3    3    0    0 -0.25472442386E+02  0.13478659179E+01  0.29986762670E+02  0.39368504710E+02  0.10566000000E+00 0. -1.
         13    1    4    4    0    0  0.19794766308E+01 -0.42024018603E+00  0.20280305106E+02  0.20381287220E+02  0.10566000000E+00 0. -1.
        -13    1    4    4    0    0  0.87685692835E+01  0.79346653370E-01  0.99303430166E+02  0.99689901745E+02  0.10566000000E+00 0.  1.
        -14    1    4    4    0    0  0.14724396472E+02 -0.10069723853E+01  0.15091407423E+03  0.15163403195E+03  0.00000000000E+00 0.  1.
<mgrwt>
<rscale>  0 0.80472882E+02</rscale>
<asrwt>0</asrwt>
<pdfrwt beam="1">  1        1 0.81455015E-03 0.80472882E+02</pdfrwt>
<pdfrwt beam="2">  1       -2 0.47042953E-01 0.80472882E+02</pdfrwt>
<totfact> 0.68488268E+04</totfact>
</mgrwt>
</event>
<event>
 8    1  0.1372337E-020  0.8014295E+02  0.7818608E-02  0.1328646E+00
          1   -1    0    0  501    0  0.00000000000E+00  0.00000000000E+00  0.76160337382E+01  0.76160354059E+01  0.50400000000E-02 0. -1.
         -2   -1    0    0    0  501 -0.00000000000E+00 -0.00000000000E+00 -0.21083454893E+03  0.21083454895E+03  0.25500000000E-02 0.  1.
        -24    2    1    2    0    0  0.00000000000E+00 -0.71054273576E-14 -0.20321851519E+03  0.21845058435E+03  0.80142952820E+02 0.  0.
         66    2    3    3    0    0  0.10075472439E+01  0.39753621981E+02 -0.88785358286E+02  0.97304704621E+02  0.20000208464E+01 0.  0.
         13    1    3    3    0    0 -0.10075472439E+01 -0.39753621981E+02 -0.11443315691E+03  0.12114587973E+03  0.10566000000E+00 0. -1.
         13    1    4    4    0    0  0.84967954685E+00  0.11888803398E+02 -0.25785842451E+02  0.28407506692E+02  0.10566000000E+00 0. -1.
        -13    1    4    4    0    0  0.39034203944E+00  0.20465702766E+02 -0.47344980453E+02  0.51580574781E+02  0.10566000000E+00 0.  1.
        -14    1    4    4    0    0 -0.23247434241E+00  0.73991158180E+01 -0.15654535382E+02  0.17316623148E+02  0.00000000000E+00 0.  1.
<mgrwt>
<rscale>  0 0.80142953E+02</rscale>
<asrwt>0</asrwt>
<pdfrwt beam="1">  1        1 0.11716978E-02 0.80142953E+02</pdfrwt>
<pdfrwt beam="2">  1       -2 0.32436080E-01 0.80142953E+02</pdfrwt>
<totfact> 0.82857631E+04</totfact>
</mgrwt>
</event>
<event>
 8    1  0.1372337E-020  0.8584542E+02  0.7818608E-02  0.1313236E+00
         -2   -1    0    0    0  501 -0.00000000000E+00  0.00000000000E+00  0.26467666996E+03  0.26467666997E+03  0.25500000000E-02 0.  1.
          1   -1    0    0  501    0  0.00000000000E+00 -0.00000000000E+00 -0.69607910371E+01  0.69607928617E+01  0.50400000000E-02 0. -1.
        -24    2    1    2    0    0  0.00000000000E+00 -0.71054273576E-14  0.25771587893E+03  0.27163746284E+03  0.85845424840E+02 0.  0.
         66    2    3    3    0    0 -0.14486472051E+02 -0.38508730272E+02  0.90488209165E+02  0.99422815152E+02  0.19999987970E+01 0.  0.
         13    1    3    3    0    0  0.14486472051E+02  0.38508730272E+02  0.16722766976E+03  0.17221464768E+03  0.10566000000E+00 0. -1.
         13    1    4    4    0    0 -0.45202191814E+00 -0.77113929262E+00  0.18729209232E+01  0.20779741200E+01  0.10566000000E+00 0. -1.
        -13    1    4    4    0    0 -0.12838945406E+02 -0.34038124082E+02  0.79027981706E+02  0.86999226817E+02  0.10566000000E+00 0.  1.
        -14    1    4    4    0    0 -0.11955047268E+01 -0.36994668975E+01  0.95873065355E+01  0.10345614215E+02  0.00000000000E+00 0.  1.
<mgrwt>
<rscale>  0 0.85845425E+02</rscale>
<asrwt>0</asrwt>
<pdfrwt beam="1">  1        1 0.10708912E-02 0.85845425E+02</pdfrwt>
<pdfrwt beam="2">  1       -2 0.40719483E-01 0.85845425E+02</pdfrwt>
<totfact> 0.62485300E+04</totfact>
</mgrwt>
</event>
<event>
 8    1  0.1372337E-020  0.7622070E+02  0.7818608E-02  0.1340132E+00
         -2   -1    0    0    0  501 -0.00000000000E+00  0.00000000000E+00  0.74805524405E+02  0.74805524449E+02  0.25500000000E-02 0.  1.
          1   -1    0    0  501    0  0.00000000000E+00 -0.00000000000E+00 -0.19415661723E+02  0.19415662377E+02  0.50400000000E-02 0. -1.
        -24    2    1    2    0    0  0.00000000000E+00  0.00000000000E+00  0.55389862682E+02  0.94221186825E+02  0.76220700330E+02 0.  0.
         66    2    3    3    0    0  0.78234573639E+01  0.34344839676E+02  0.45611405146E+02  0.57664328463E+02  0.20000000475E+01 0.  0.
         13    1    3    3    0    0 -0.78234573639E+01 -0.34344839676E+02  0.97784575365E+01  0.36556858363E+02  0.10566000000E+00 0. -1.
         13    1    4    4    0    0  0.40465658668E+01  0.17876168286E+02  0.22978384052E+02  0.29393015932E+02  0.10566000000E+00 0. -1.
        -13    1    4    4    0    0  0.37782644679E+01  0.15683994370E+02  0.21871421728E+02  0.27177807384E+02  0.10566000000E+00 0.  1.
         14    1    4    4    0    0 -0.13729708090E-02  0.78467702016E+00  0.76159936542E+00  0.10935051460E+01  0.00000000000E+00 0. -1.
<mgrwt>
<rscale>  0 0.76220700E+02</rscale>
<asrwt>0</asrwt>
<pdfrwt beam="1">  1        1 0.29870249E-02 0.76220700E+02</pdfrwt>
<pdfrwt beam="2">  1       -2 0.11508542E-01 0.76220700E+02</pdfrwt>
<totfact> 0.12820560E+05</totfact>
</mgrwt>
</event>
<event>
 8    1  0.1372337E-020  0.8181428E+02  0.7818608E-02  0.1323980E+00
         -2   -1    0    0    0  501 -0.00000000000E+00  0.00000000000E+00  0.70536900366E+02  0.70536900412E+02  0.25500000000E-02 0.  1.
          1   -1    0    0  501    0  0.00000000000E+00 -0.00000000000E+00 -0.23723670901E+02  0.23723671437E+02  0.50400000000E-02 0. -1.
        -24    2    1    2    0    0 -0.35527136788E-14 -0.71054273576E-14  0.46813229465E+02  0.94260571849E+02  0.81814283303E+02 0.  0.
         66    2    3    3    0    0  0.15639378744E+02  0.32073370573E+02  0.46408283785E+02  0.58574910688E+02  0.20000227193E+01 0.  0.
         13    1    3    3    0    0 -0.15639378744E+02 -0.32073370573E+02  0.40494568012E+00  0.35685661161E+02  0.10566000000E+00 0. -1.
         13    1    4    4    0    0  0.57032702114E+01  0.10315582460E+02  0.15778508528E+02  0.19695457040E+02  0.10566000000E+00 0. -1.
        -13    1    4    4    0    0  0.88815575407E+01  0.18688092270E+02  0.26834990759E+02  0.33885907840E+02  0.10566000000E+00 0.  1.
         14    1    4    4    0    0  0.10545509924E+01  0.30696958433E+01  0.37947844971E+01  0.49935458089E+01  0.00000000000E+00 0. -1.
<mgrwt>
<rscale>  0 0.81814283E+02</rscale>
<asrwt>0</asrwt>
<pdfrwt beam="1">  1        1 0.36497956E-02 0.81814283E+02</pdfrwt>
<pdfrwt beam="2">  1       -2 0.10851831E-01 0.81814283E+02</pdfrwt>
<totfact> 0.10837899E+05</totfact>
</mgrwt>
</event>
<event>
 8    1  0.1372337E-020  0.8120069E+02  0.7818608E-02  0.1325678E+00
         -2   -1    0    0    0  501 -0.00000000000E+00  0.00000000000E+00  0.51448420119E+02  0.51448420182E+02  0.25500000000E-02 0.  1.
          1   -1    0    0  501    0  0.00000000000E+00 -0.00000000000E+00 -0.32039622978E+02  0.32039623375E+02  0.50400000000E-02 0. -1.
        -24    2    1    2    0    0  0.35527136788E-14  0.00000000000E+00  0.19408797141E+02  0.83488043557E+02  0.81200689717E+02 0.  0.
         66    2    3    3    0    0 -0.22843633110E+02  0.32337586848E+02  0.58142834906E+00  0.39647057294E+02  0.19999990886E+01 0.  0.
         13    1    3    3    0    0  0.22843633110E+02 -0.32337586848E+02  0.18827368792E+02  0.43840986263E+02  0.10566000000E+00 0. -1.
         13    1    4    4    0    0 -0.11200151410E+02  0.14982900327E+02 -0.40149725740E+00  0.18711041069E+02  0.10566000000E+00 0.  1.
        -13    1    4    4    0    0 -0.88040629903E+01  0.13019908696E+02  0.10631743697E+01  0.15753445698E+02  0.10566000000E+00 0. -1.
         14    1    4    4    0    0 -0.28394187102E+01  0.43347778245E+01 -0.80248763204E-01  0.51825705266E+01  0.00000000000E+00 0. -1.
<mgrwt>
<rscale>  0 0.81200690E+02</rscale>
<asrwt>0</asrwt>
<pdfrwt beam="1">  1        1 0.49291729E-02 0.81200690E+02</pdfrwt>
<pdfrwt beam="2">  1       -2 0.79151415E-02 0.81200690E+02</pdfrwt>
<totfact> 0.11723673E+05</totfact>
</mgrwt>
</event>
<event>
 8    1  0.1372337E-020  0.7964195E+02  0.7818608E-02  0.1330071E+00
          1   -1    0    0  501    0  0.00000000000E+00  0.00000000000E+00  0.29606619440E+03  0.29606619444E+03  0.50400000000E-02 0. -1.
         -2   -1    0    0    0  501 -0.00000000000E+00 -0.00000000000E+00 -0.53559298889E+01  0.53559304959E+01  0.25500000000E-02 0.  1.
        -24    2    1    2    0    0 -0.35527136788E-14 -0.35527136788E-14  0.29071026451E+03  0.30142212494E+03  0.79641945673E+02 0.  0.
         66    2    3    3    0    0 -0.16249592331E+02  0.31785349798E+02  0.78879944038E+02  0.86604868769E+02  0.20000025728E+01 0.  0.
         13    1    3    3    0    0  0.16249592331E+02 -0.31785349798E+02  0.21183032047E+03  0.21481725617E+03  0.10566000000E+00 0. -1.
         13    1    4    4    0    0 -0.77083184703E+00  0.87515672321E+00  0.29409949838E+01  0.31655483817E+01  0.10566000000E+00 0.  1.
        -13    1    4    4    0    0 -0.45164086693E+01  0.96049820609E+01  0.23241396101E+02  0.25550485014E+02  0.10566000000E+00 0. -1.
        -14    1    4    4    0    0 -0.10962351814E+02  0.21305211014E+02  0.52697552953E+02  0.57888835374E+02  0.00000000000E+00 0.  1.
<mgrwt>
<rscale>  0 0.79641946E+02</rscale>
<asrwt>0</asrwt>
<pdfrwt beam="1">  1        1 0.45548651E-01 0.79641946E+02</pdfrwt>
<pdfrwt beam="2">  1       -2 0.82398916E-03 0.79641946E+02</pdfrwt>
<totfact> 0.18210327E+05</totfact>
</mgrwt>
</event>
<event>
 8    1  0.1372337E-020  0.8115195E+02  0.7818608E-02  0.1325814E+00
         -2   -1    0    0    0  501 -0.00000000000E+00  0.00000000000E+00  0.28424619247E+02  0.28424619362E+02  0.25500000000E-02 0.  1.
          1   -1    0    0  501    0  0.00000000000E+00 -0.00000000000E+00 -0.57921961213E+02  0.57921961432E+02  0.50400000000E-02 0. -1.
        -24    2    1    2    0    0  0.00000000000E+00  0.00000000000E+00 -0.29497341966E+02  0.86346580794E+02  0.81151949033E+02 0.  0.
         66    2    3    3    0    0 -0.10321983335E+02 -0.34586689150E+02  0.49085442546E+01  0.36481176183E+02  0.20000006653E+01 0.  0.
         13    1    3    3    0    0  0.10321983335E+02  0.34586689150E+02 -0.34405886221E+02  0.49865404611E+02  0.10566000000E+00 0. -1.
         13    1    4    4    0    0 -0.37455890222E+01 -0.13815530962E+02  0.27692839381E+01  0.14580069631E+02  0.10566000000E+00 0. -1.
        -13    1    4    4    0    0 -0.26853190626E+01 -0.87945476084E+01  0.11876340727E+01  0.92723591836E+01  0.10566000000E+00 0.  1.
         14    1    4    4    0    0 -0.38910752502E+01 -0.11976610580E+02  0.95162624383E+00  0.12628747368E+02  0.00000000000E+00 0. -1.
<mgrwt>
<rscale>  0 0.81151949E+02</rscale>
<asrwt>0</asrwt>
<pdfrwt beam="1">  1        1 0.89110709E-02 0.81151949E+02</pdfrwt>
<pdfrwt beam="2">  1       -2 0.43730184E-02 0.81151949E+02</pdfrwt>
<totfact> 0.12942216E+05</totfact>
</mgrwt>
</event>
<event>
 8    1  0.1372337E-020  0.8065502E+02  0.7818608E-02  0.1327203E+00
          1   -1    0    0  501    0  0.00000000000E+00  0.00000000000E+00  0.19018828589E+02  0.19018829257E+02  0.50400000000E-02 0. -1.
         -2   -1    0    0    0  501 -0.00000000000E+00 -0.00000000000E+00 -0.85510415711E+02  0.85510415749E+02  0.25500000000E-02 0.  1.
        -24    2    1    2    0    0 -0.17763568394E-14  0.71054273576E-14 -0.66491587122E+02  0.10452924501E+03  0.80655017845E+02 0.  0.
         66    2    3    3    0    0 -0.12787696970E+02  0.38217399775E+02 -0.33857489080E+02  0.52672805113E+02  0.19999980749E+01 0.  0.
         13    1    3    3    0    0  0.12787696970E+02 -0.38217399775E+02 -0.32634098042E+02  0.51856439893E+02  0.10566000000E+00 0. -1.
         13    1    4    4    0    0 -0.82965133505E-01  0.86273445139E+00 -0.71199973659E+00  0.11266328628E+01  0.10566000000E+00 0. -1.
        -13    1    4    4    0    0 -0.69283626707E+01  0.21771938019E+02 -0.19745125930E+02  0.30197692899E+02  0.10566000000E+00 0.  1.
         14    1    4    4    0    0 -0.57763691658E+01  0.15582727305E+02 -0.13400363413E+02  0.21348479351E+02  0.00000000000E+00 0. -1.
<mgrwt>
<rscale>  0 0.80655018E+02</rscale>
<asrwt>0</asrwt>
<pdfrwt beam="1">  1        1 0.29259737E-02 0.80655018E+02</pdfrwt>
<pdfrwt beam="2">  1       -2 0.13155448E-01 0.80655018E+02</pdfrwt>
<totfact> 0.10786263E+05</totfact>
</mgrwt>
</event>
<event>
 8    1  0.1372337E-020  0.8476315E+02  0.7818608E-02  0.1316053E+00
         -2   -1    0    0    0  501 -0.00000000000E+00  0.00000000000E+00  0.47749284394E+02  0.47749284462E+02  0.25500000000E-02 0.  1.
          1   -1    0    0  501    0  0.00000000000E+00 -0.00000000000E+00 -0.37617271144E+02  0.37617271481E+02  0.50400000000E-02 0. -1.
        -24    2    1    2    0    0 -0.35527136788E-14  0.00000000000E+00  0.10132013250E+02  0.85366555944E+02  0.84763147542E+02 0.  0.
         66    2    3    3    0    0 -0.24276337007E+02  0.87592314751E+01  0.38895539225E+02  0.46721811604E+02  0.20000083507E+01 0.  0.
         13    1    3    3    0    0  0.24276337007E+02 -0.87592314751E+01 -0.28763525975E+02  0.38644744340E+02  0.10566000000E+00 0. -1.
         13    1    4    4    0    0 -0.35339597695E+01  0.17334304952E+01  0.66051431765E+01  0.76897810991E+01  0.10566000000E+00 0. -1.
        -13    1    4    4    0    0 -0.18426368359E+02  0.58787200967E+01  0.28635166755E+02  0.34555380768E+02  0.10566000000E+00 0.  1.
        -14    1    4    4    0    0 -0.23160088783E+01  0.11470808832E+01  0.36552292940E+01  0.44766497370E+01  0.00000000000E+00 0.  1.
<mgrwt>
<rscale>  0 0.84763148E+02</rscale>
<asrwt>0</asrwt>
<pdfrwt beam="1">  1        1 0.57872725E-02 0.84763148E+02</pdfrwt>
<pdfrwt beam="2">  1       -2 0.73460438E-02 0.84763148E+02</pdfrwt>
<totfact> 0.10663355E+05</totfact>
</mgrwt>
</event>
<event>
 8    1  0.1372337E-020  0.7889182E+02  0.7818608E-02  0.1332226E+00
         -2   -1    0    0    0  501 -0.00000000000E+00  0.00000000000E+00  0.21594688222E+02  0.21594688372E+02  0.25500000000E-02 0.  1.
          1   -1    0    0  501    0  0.00000000000E+00 -0.00000000000E+00 -0.72053817724E+02  0.72053817900E+02  0.50400000000E-02 0. -1.
        -24    2    1    2    0    0  0.17763568394E-14  0.00000000000E+00 -0.50459129502E+02  0.93648506272E+02  0.78891818187E+02 0.  0.
         66    2    3    3    0    0  0.15597839328E+02  0.34024590529E+02 -0.10562287249E+02  0.38942615015E+02  0.19999999797E+01 0.  0.
         13    1    3    3    0    0 -0.15597839328E+02 -0.34024590529E+02 -0.39896842253E+02  0.54705891257E+02  0.10566000000E+00 0. -1.
         13    1    4    4    0    0  0.10555916028E+01  0.23891389918E+01 -0.61871014339E+00  0.26863032277E+01  0.10566000000E+00 0. -1.
        -13    1    4    4    0    0  0.11473398598E+02  0.26286542318E+02 -0.77384433911E+01  0.29707168371E+02  0.10566000000E+00 0.  1.
        -14    1    4    4    0    0  0.30688491268E+01  0.53489092193E+01 -0.22051337145E+01  0.65491434172E+01  0.00000000000E+00 0.  1.
<mgrwt>
<rscale>  0 0.78891818E+02</rscale>
<asrwt>0</asrwt>
<pdfrwt beam="1">  1        1 0.11085203E-01 0.78891818E+02</pdfrwt>
<pdfrwt beam="2">  1       -2 0.33222598E-02 0.78891818E+02</pdfrwt>
<totfact> 0.14475645E+05</totfact>
</mgrwt>
</event>
<event>
 8    1  0.1372337E-020  0.7837203E+02  0.7818608E-02  0.1333736E+00
          1   -1    0    0  501    0  0.00000000000E+00  0.00000000000E+00  0.53318799412E+02  0.53318799650E+02  0.50400000000E-02 0. -1.
         -2   -1    0    0    0  501 -0.00000000000E+00 -0.00000000000E+00 -0.28799292064E+02  0.28799292176E+02  0.25500000000E-02 0.  1.
        -24    2    1    2    0    0  0.00000000000E+00  0.71054273576E-14  0.24519507348E+02  0.82118091826E+02  0.78372027947E+02 0.  0.
         66    2    3    3    0    0 -0.10707895001E+02 -0.34955996347E+02 -0.24372715661E+01  0.36694972279E+02  0.20000004640E+01 0.  0.
         13    1    3    3    0    0  0.10707895001E+02  0.34955996347E+02  0.26956778914E+02  0.45423119548E+02  0.10566000000E+00 0. -1.
         13    1    4    4    0    0 -0.35268606086E+01 -0.97174524307E+01 -0.57673480969E-01  0.10338380809E+02  0.10566000000E+00 0. -1.
        -13    1    4    4    0    0 -0.49799854463E+01 -0.17223022336E+02 -0.19256538788E+01  0.18031973278E+02  0.10566000000E+00 0.  1.
        -14    1    4    4    0    0 -0.22010489462E+01 -0.80155215809E+01 -0.45394420625E+00  0.83246181907E+01  0.00000000000E+00 0.  1.
<mgrwt>
<rscale>  0 0.78372028E+02</rscale>
<asrwt>0</asrwt>
<pdfrwt beam="1">  1        1 0.82028922E-02 0.78372028E+02</pdfrwt>
<pdfrwt beam="2">  1       -2 0.44306604E-02 0.78372028E+02</pdfrwt>
<totfact> 0.14068720E+05</totfact>
</mgrwt>
</event>
<event>
 8    1  0.1372337E-020  0.7944297E+02  0.7818608E-02  0.1330640E+00
         -2   -1    0    0    0  501 -0.00000000000E+00  0.00000000000E+00  0.11655534075E+03  0.11655534078E+03  0.25500000000E-02 0.  1.
          1   -1    0    0  501    0  0.00000000000E+00 -0.00000000000E+00 -0.13536886012E+02  0.13536886950E+02  0.50400000000E-02 0. -1.
        -24    2    1    2    0    0 -0.14210854715E-13 -0.22204460493E-15  0.10301845474E+03  0.13009222773E+03  0.79442971360E+02 0.  0.
         66    2    3    3    0    0  0.38596953286E+02  0.18838606577E+01  0.36666352373E+02  0.53307552263E+02  0.19999994873E+01 0.  0.
         13    1    3    3    0    0 -0.38596953286E+02 -0.18838606577E+01  0.66352102365E+02  0.76784675465E+02  0.10566000000E+00 0. -1.
         13    1    4    4    0    0  0.24125448662E+01  0.61429974608E-02  0.25033772844E+01  0.34782858324E+01  0.10566000000E+00 0. -1.
        -13    1    4    4    0    0  0.13875568566E+01 -0.17925778642E+00  0.10670611248E+01  0.17627339175E+01  0.10566000000E+00 0.  1.
        -14    1    4    4    0    0  0.34796851563E+02  0.20569754466E+01  0.33095913964E+02  0.48066532513E+02  0.00000000000E+00 0.  1.
<mgrwt>
<rscale>  0 0.79442971E+02</rscale>
<asrwt>0</asrwt>
<pdfrwt beam="1">  1        1 0.20825979E-02 0.79442971E+02</pdfrwt>
<pdfrwt beam="2">  1       -2 0.17931591E-01 0.79442971E+02</pdfrwt>
<totfact> 0.10381010E+05</totfact>
</mgrwt>
</event>
<event>
 8    1  0.1372337E-020  0.8009238E+02  0.7818608E-02  0.1328789E+00
         -2   -1    0    0    0  501 -0.00000000000E+00  0.00000000000E+00  0.12408186424E+03  0.12408186426E+03  0.25500000000E-02 0.  1.
          1   -1    0    0  501    0  0.00000000000E+00 -0.00000000000E+00 -0.12924510679E+02  0.12924511662E+02  0.50400000000E-02 0. -1.
        -24    2    1    2    0    0  0.00000000000E+00  0.00000000000E+00  0.11115735356E+03  0.13700637592E+03  0.80092382871E+02 0.  0.
         66    2    3    3    0    0  0.67275331010E+01  0.35621659743E+02  0.84619464499E+02  0.92079401129E+02  0.19999989537E+01 0.  0.
         13    1    3    3    0    0 -0.67275331010E+01 -0.35621659743E+02  0.26537889058E+02  0.44926974794E+02  0.10566000000E+00 0. -1.
         13    1    4    4    0    0  0.17944280990E+01  0.86367495523E+01  0.22336244382E+02  0.24015253323E+02  0.10566000000E+00 0. -1.
        -13    1    4    4    0    0  0.31007060385E+00  0.18740293125E+01  0.49235144823E+01  0.52782846206E+01  0.10566000000E+00 0.  1.
        -14    1    4    4    0    0  0.46230343981E+01  0.25110880878E+02  0.57359705634E+02  0.62785863186E+02  0.00000000000E+00 0.  1.
<mgrwt>
<rscale>  0 0.80092383E+02</rscale>
<asrwt>0</asrwt>
<pdfrwt beam="1">  1        1 0.19883863E-02 0.80092383E+02</pdfrwt>
<pdfrwt beam="2">  1       -2 0.19089518E-01 0.80092383E+02</pdfrwt>
<totfact> 0.99892743E+04</totfact>
</mgrwt>
</event>
<event>
 8    1  0.1372337E-020  0.8001218E+02  0.7818608E-02  0.1329017E+00
         -2   -1    0    0    0  501 -0.00000000000E+00  0.00000000000E+00  0.24991063721E+01  0.24991076731E+01  0.25500000000E-02 0.  1.
          1   -1    0    0  501    0  0.00000000000E+00 -0.00000000000E+00 -0.64042371224E+03  0.64042371226E+03  0.50400000000E-02 0. -1.
        -24    2    1    2    0    0  0.00000000000E+00  0.00000000000E+00 -0.63792460587E+03  0.64292281994E+03  0.80012184190E+02 0.  0.
         66    2    3    3    0    0 -0.21385677556E+02 -0.31376637503E+02 -0.41972830050E+03  0.42144713408E+03  0.19999986914E+01 0.  0.
         13    1    3    3    0    0  0.21385677556E+02  0.31376637503E+02 -0.21819630537E+03  0.22147568586E+03  0.10566000000E+00 0. -1.
         13    1    4    4    0    0 -0.31442308959E+01 -0.53380965930E+01 -0.68379068646E+02  0.68659228484E+02  0.10566000000E+00 0. -1.
        -13    1    4    4    0    0 -0.14580398702E+01 -0.15220579478E+01 -0.21563251123E+02  0.21666275723E+02  0.10566000000E+00 0.  1.
        -14    1    4    4    0    0 -0.16783406790E+02 -0.24516482962E+02 -0.32978598073E+03  0.33112162987E+03  0.00000000000E+00 0.  1.
<mgrwt>
<rscale>  0 0.80012184E+02</rscale>
<asrwt>0</asrwt>
<pdfrwt beam="1">  1        1 0.98526595E-01 0.80012184E+02</pdfrwt>
<pdfrwt beam="2">  1       -2 0.38447851E-03 0.80012184E+02</pdfrwt>
<totfact> 0.19988955E+05</totfact>
</mgrwt>
</event>
<event>
 8    1  0.1372337E-020  0.7796952E+02  0.7818608E-02  0.1334914E+00
          1   -1    0    0  501    0  0.00000000000E+00  0.00000000000E+00  0.24488131543E+03  0.24488131548E+03  0.50400000000E-02 0. -1.
         -2   -1    0    0    0  501 -0.00000000000E+00 -0.00000000000E+00 -0.62063180703E+01  0.62063185942E+01  0.25500000000E-02 0.  1.
        -24    2    1    2    0    0  0.00000000000E+00  0.35527136788E-14  0.23867499736E+03  0.25108763408E+03  0.77969517257E+02 0.  0.
         66    2    3    3    0    0 -0.25999640512E+02 -0.29004937462E+02  0.12177956794E+03  0.12787310455E+03  0.19999987088E+01 0.  0.
         13    1    3    3    0    0  0.25999640512E+02  0.29004937462E+02  0.11689542942E+03  0.12321452953E+03  0.10566000000E+00 0. -1.
         13    1    4    4    0    0 -0.25650728314E+01 -0.24233642265E+01  0.12606313646E+02  0.13091317756E+02  0.10566000000E+00 0. -1.
        -13    1    4    4    0    0 -0.14439774831E+02 -0.15987104622E+02  0.66342115623E+02  0.69752290864E+02  0.10566000000E+00 0.  1.
         14    1    4    4    0    0 -0.89947928490E+01 -0.10594468613E+02  0.42831138670E+02  0.45029495926E+02  0.00000000000E+00 0. -1.
<mgrwt>
<rscale>  0 0.77969517E+02</rscale>
<asrwt>0</asrwt>
<pdfrwt beam="1">  1        1 0.37674052E-01 0.77969517E+02</pdfrwt>
<pdfrwt beam="2">  1       -2 0.95481812E-03 0.77969517E+02</pdfrwt>
<totfact> 0.18564026E+05</totfact>
</mgrwt>
</event>
<event>
 8    1  0.1372337E-020  0.8107293E+02  0.7818608E-02  0.1326034E+00
          1   -1    0    0  501    0  0.00000000000E+00  0.00000000000E+00  0.16302031462E+02  0.16302032241E+02  0.50400000000E-02 0. -1.
         -2   -1    0    0    0  501 -0.00000000000E+00 -0.00000000000E+00 -0.10079756170E+03  0.10079756173E+03  0.25500000000E-02 0.  1.
        -24    2    1    2    0    0 -0.35527136788E-14  0.00000000000E+00 -0.84495530234E+02  0.11709959397E+03  0.81072931846E+02 0.  0.
         66    2    3    3    0    0  0.30131902722E+02 -0.16115503733E+02 -0.73705011194E+02  0.81265427488E+02  0.20000018610E+01 0.  0.
         13    1    3    3    0    0 -0.30131902722E+02  0.16115503733E+02 -0.10790519040E+02  0.35834166481E+02  0.10566000000E+00 0. -1.
         13    1    4    4    0    0  0.18273861253E+01 -0.96889816822E+00 -0.35713457246E+01  0.41284110783E+01  0.10566000000E+00 0. -1.
        -13    1    4    4    0    0  0.14143073685E+02 -0.75305373952E+01 -0.33933939215E+02  0.37526776059E+02  0.10566000000E+00 0.  1.
        -14    1    4    4    0    0  0.14161442912E+02 -0.76160681700E+01 -0.36199726254E+02  0.39610240350E+02  0.00000000000E+00 0.  1.
<mgrwt>
<rscale>  0 0.81072932E+02</rscale>
<asrwt>0</asrwt>
<pdfrwt beam="1">  1        1 0.25080050E-02 0.81072932E+02</pdfrwt>
<pdfrwt beam="2">  1       -2 0.15507317E-01 0.81072932E+02</pdfrwt>
<totfact> 0.10236593E+05</totfact>
</mgrwt>
</event>
<event>
 8    1  0.1372337E-020  0.7894160E+02  0.7818608E-02  0.1332082E+00
         -2   -1    0    0    0  501 -0.00000000000E+00  0.00000000000E+00  0.46185876198E+01  0.46185883237E+01  0.25500000000E-02 0.  1.
          1   -1    0    0  501    0  0.00000000000E+00 -0.00000000000E+00 -0.33732042837E+03  0.33732042841E+03  0.50400000000E-02 0. -1.
        -24    2    1    2    0    0 -0.17763568394E-14  0.00000000000E+00 -0.33270184075E+03  0.34193901673E+03  0.78941600722E+02 0.  0.
         66    2    3    3    0    0 -0.10768414425E+02 -0.32910659169E+02 -0.24828448328E+03  0.25069554221E+03  0.20000027684E+01 0.  0.
         13    1    3    3    0    0  0.10768414425E+02  0.32910659169E+02 -0.84417357471E+02  0.91243474521E+02  0.10566000000E+00 0. -1.
         13    1    4    4    0    0 -0.30899678226E+01 -0.10876891137E+02 -0.77616634650E+02  0.78436010865E+02  0.10566000000E+00 0. -1.
        -13    1    4    4    0    0 -0.35882875377E+01 -0.11438781286E+02 -0.90934076068E+02  0.91720983854E+02  0.10566000000E+00 0.  1.
         14    1    4    4    0    0 -0.40901590642E+01 -0.10594986745E+02 -0.79733772560E+02  0.80538547491E+02  0.00000000000E+00 0. -1.
<mgrwt>
<rscale>  0 0.78941601E+02</rscale>
<asrwt>0</asrwt>
<pdfrwt beam="1">  1        1 0.51895431E-01 0.78941601E+02</pdfrwt>
<pdfrwt beam="2">  1       -2 0.71055226E-03 0.78941601E+02</pdfrwt>
<totfact> 0.19097761E+05</totfact>
</mgrwt>
</event>
<event>
 8    1  0.1372337E-020  0.7968057E+02  0.7818608E-02  0.1329960E+00
         -2   -1    0    0    0  501 -0.00000000000E+00  0.00000000000E+00  0.27119705287E+02  0.27119705407E+02  0.25500000000E-02 0.  1.
          1   -1    0    0  501    0  0.00000000000E+00 -0.00000000000E+00 -0.58527490601E+02  0.58527490818E+02  0.50400000000E-02 0. -1.
        -24    2    1    2    0    0  0.00000000000E+00 -0.35527136788E-14 -0.31407785313E+02  0.85647196225E+02  0.79680570046E+02 0.  0.
         66    2    3    3    0    0 -0.27033490154E+02 -0.27446981845E+02 -0.49061465804E+01  0.38887230208E+02  0.19999991581E+01 0.  0.
         13    1    3    3    0    0  0.27033490154E+02  0.27446981845E+02 -0.26501638733E+02  0.46759966017E+02  0.10566000000E+00 0. -1.
         13    1    4    4    0    0 -0.97299535715E-01 -0.20409092174E+00  0.14056388389E-01  0.24996384067E+00  0.10566000000E+00 0. -1.
        -13    1    4    4    0    0 -0.16969512964E+02 -0.16531646418E+02 -0.29386608244E+01  0.23872716540E+02  0.10566000000E+00 0.  1.
         14    1    4    4    0    0 -0.99666776546E+01 -0.10711244506E+02 -0.19815421443E+01  0.14764549827E+02  0.00000000000E+00 0. -1.
<mgrwt>
<rscale>  0 0.79680570E+02</rscale>
<asrwt>0</asrwt>
<pdfrwt beam="1">  1        1 0.90042293E-02 0.79680570E+02</pdfrwt>
<pdfrwt beam="2">  1       -2 0.41722624E-02 0.79680570E+02</pdfrwt>
<totfact> 0.13635595E+05</totfact>
</mgrwt>
</event>
<event>
 8    1  0.1372337E-020  0.7917067E+02  0.7818608E-02  0.1331422E+00
         -2   -1    0    0    0  501 -0.00000000000E+00  0.00000000000E+00  0.16031235698E+03  0.16031235700E+03  0.25500000000E-02 0.  1.
          1   -1    0    0  501    0  0.00000000000E+00 -0.00000000000E+00 -0.97746591515E+01  0.97746604508E+01  0.50400000000E-02 0. -1.
        -24    2    1    2    0    0  0.88817841970E-15 -0.35527136788E-14  0.15053769783E+03  0.17008701745E+03  0.79170670313E+02 0.  0.
         66    2    3    3    0    0  0.76138844394E+01 -0.29931765268E+02  0.12842564228E+03  0.13210233668E+03  0.19999884994E+01 0.  0.
         13    1    3    3    0    0 -0.76138844394E+01  0.29931765268E+02  0.22112055547E+02  0.37984680766E+02  0.10566000000E+00 0. -1.
         13    1    4    4    0    0  0.41552900378E+01 -0.17475410114E+02  0.76614470191E+02  0.78692087281E+02  0.10566000000E+00 0.  1.
        -13    1    4    4    0    0  0.90917276136E+00 -0.49844037224E+01  0.21219963670E+02  0.21816711433E+02  0.10566000000E+00 0. -1.
         14    1    4    4    0    0  0.25494216402E+01 -0.74719514314E+01  0.30591208419E+02  0.31593537970E+02  0.00000000000E+00 0. -1.
<mgrwt>
<rscale>  0 0.79170670E+02</rscale>
<asrwt>0</asrwt>
<pdfrwt beam="1">  1        1 0.15037939E-02 0.79170670E+02</pdfrwt>
<pdfrwt beam="2">  1       -2 0.24663439E-01 0.79170670E+02</pdfrwt>
<totfact> 0.94932236E+04</totfact>
</mgrwt>
</event>
<event>
 8    1  0.1372337E-020  0.7889279E+02  0.7818608E-02  0.1332223E+00
          1   -1    0    0  501    0  0.00000000000E+00  0.00000000000E+00  0.21863293947E+03  0.21863293953E+03  0.50400000000E-02 0. -1.
         -2   -1    0    0    0  501 -0.00000000000E+00 -0.00000000000E+00 -0.71170337709E+01  0.71170342277E+01  0.25500000000E-02 0.  1.
        -24    2    1    2    0    0  0.17763568394E-14 -0.71054273576E-14  0.21151590570E+03  0.22574997376E+03  0.78892789830E+02 0.  0.
         66    2    3    3    0    0 -0.81172659076E+01  0.38433694116E+02  0.11530507741E+03  0.12182897736E+03  0.19999993155E+01 0.  0.
         13    1    3    3    0    0  0.81172659076E+01 -0.38433694116E+02  0.96210828290E+02  0.10392099640E+03  0.10566000000E+00 0. -1.
         13    1    4    4    0    0 -0.34641678400E+01  0.16607372510E+02  0.50280697570E+02  0.53065666797E+02  0.10566000000E+00 0. -1.
        -13    1    4    4    0    0 -0.16916568721E+01  0.11417250024E+02  0.33905723434E+02  0.35816540127E+02  0.10566000000E+00 0.  1.
         14    1    4    4    0    0 -0.29614411955E+01  0.10409071582E+02  0.31118656410E+02  0.32946770432E+02  0.00000000000E+00 0. -1.
<mgrwt>
<rscale>  0 0.78892790E+02</rscale>
<asrwt>0</asrwt>
<pdfrwt beam="1">  1        1 0.33635838E-01 0.78892790E+02</pdfrwt>
<pdfrwt beam="2">  1       -2 0.10949283E-02 0.78892790E+02</pdfrwt>
<totfact> 0.17603515E+05</totfact>
</mgrwt>
</event>
<event>
 8    1  0.1372337E-020  0.7988351E+02  0.7818608E-02  0.1329382E+00
          1   -1    0    0  501    0  0.00000000000E+00  0.00000000000E+00  0.51130312320E+03  0.51130312322E+03  0.50400000000E-02 0. -1.
         -2   -1    0    0    0  501 -0.00000000000E+00 -0.00000000000E+00 -0.31201518711E+01  0.31201529131E+01  0.25500000000E-02 0.  1.
        -24    2    1    2    0    0 -0.35527136788E-14  0.71054273576E-14  0.50818297133E+03  0.51442327614E+03  0.79883506957E+02 0.  0.
         66    2    3    3    0    0  0.30757273106E+02 -0.24849523489E+02  0.28942177668E+03  0.29211722558E+03  0.19999993028E+01 0.  0.
         13    1    3    3    0    0 -0.30757273106E+02  0.24849523489E+02  0.21876119465E+03  0.22230605056E+03  0.10566000000E+00 0. -1.
         13    1    4    4    0    0  0.31124775171E+01 -0.22772890836E+01  0.25186840559E+02  0.25480613479E+02  0.10566000000E+00 0. -1.
        -13    1    4    4    0    0  0.56868905204E+01 -0.49162186852E+01  0.52789683000E+02  0.53322337957E+02  0.10566000000E+00 0.  1.
        -14    1    4    4    0    0  0.21957905069E+02 -0.17656015720E+02  0.21144525312E+03  0.21331427414E+03  0.00000000000E+00 0.  1.
<mgrwt>
<rscale>  0 0.79883507E+02</rscale>
<asrwt>0</asrwt>
<pdfrwt beam="1">  1        1 0.78662064E-01 0.79883507E+02</pdfrwt>
<pdfrwt beam="2">  1       -2 0.48002317E-03 0.79883507E+02</pdfrwt>
<totfact> 0.19734161E+05</totfact>
</mgrwt>
</event>
<event>
 8    1  0.1372337E-020  0.7760847E+02  0.7818608E-02  0.1335979E+00
         -2   -1    0    0    0  501 -0.00000000000E+00  0.00000000000E+00  0.51666465703E+02  0.51666465766E+02  0.25500000000E-02 0.  1.
          1   -1    0    0  501    0  0.00000000000E+00 -0.00000000000E+00 -0.29144024883E+02  0.29144025318E+02  0.50400000000E-02 0. -1.
        -24    2    1    2    0    0  0.00000000000E+00  0.00000000000E+00  0.22522440821E+02  0.80810491085E+02  0.77608473306E+02 0.  0.
         66    2    3    3    0    0  0.23228805916E+02  0.29677182809E+02  0.20780748277E+02  0.43083083796E+02  0.20000016550E+01 0.  0.
         13    1    3    3    0    0 -0.23228805916E+02 -0.29677182809E+02  0.17416925436E+01  0.37727407289E+02  0.10566000000E+00 0. -1.
         13    1    4    4    0    0  0.44036529243E+01  0.60000902317E+01  0.38812378653E+01  0.83945466386E+01  0.10566000000E+00 0. -1.
        -13    1    4    4    0    0  0.64099033279E+01  0.92113233425E+01  0.58779049375E+01  0.12668712203E+02  0.10566000000E+00 0.  1.
         14    1    4    4    0    0  0.12415249664E+02  0.14465769235E+02  0.11021605474E+02  0.22019824954E+02  0.00000000000E+00 0. -1.
<mgrwt>
<rscale>  0 0.77608473E+02</rscale>
<asrwt>0</asrwt>
<pdfrwt beam="1">  1        1 0.44836962E-02 0.77608473E+02</pdfrwt>
<pdfrwt beam="2">  1       -2 0.79486870E-02 0.77608473E+02</pdfrwt>
<totfact> 0.13128116E+05</totfact>
</mgrwt>
</event>
<event>
 8    1  0.1372337E-020  0.8052104E+02  0.7818608E-02  0.1327579E+00
          1   -1    0    0  501    0  0.00000000000E+00  0.00000000000E+00  0.11768765010E+03  0.11768765020E+03  0.50400000000E-02 0. -1.
         -2   -1    0    0    0  501 -0.00000000000E+00 -0.00000000000E+00 -0.13772977380E+02  0.13772977616E+02  0.25500000000E-02 0.  1.
        -24    2    1    2    0    0  0.00000000000E+00 -0.17763568394E-14  0.10391467272E+03  0.13146062782E+03  0.80521037383E+02 0.  0.
         66    2    3    3    0    0 -0.23191920213E+02  0.10724133335E+02  0.12456001483E+01  0.25659768537E+02  0.20000006690E+01 0.  0.
         13    1    3    3    0    0  0.23191920213E+02 -0.10724133335E+02  0.10266907257E+03  0.10580085928E+03  0.10566000000E+00 0. -1.
         13    1    4    4    0    0 -0.22283451586E+01  0.86751003625E+00  0.29645097450E+00  0.24118754165E+01  0.10566000000E+00 0. -1.
        -13    1    4    4    0    0 -0.15159628076E+02  0.77791603299E+01  0.11688331030E+01  0.17079431890E+02  0.10566000000E+00 0.  1.
         14    1    4    4    0    0 -0.58039469792E+01  0.20774629693E+01 -0.21968392916E+00  0.61684612307E+01  0.00000000000E+00 0. -1.
<mgrwt>
<rscale>  0 0.80521037E+02</rscale>
<asrwt>0</asrwt>
<pdfrwt beam="1">  1        1 0.18105792E-01 0.80521037E+02</pdfrwt>
<pdfrwt beam="2">  1       -2 0.21189196E-02 0.80521037E+02</pdfrwt>
<totfact> 0.14853182E+05</totfact>
</mgrwt>
</event>
<event>
 8    1  0.1372337E-020  0.8118346E+02  0.7818608E-02  0.1325726E+00
         -2   -1    0    0    0  501 -0.00000000000E+00  0.00000000000E+00  0.46779151895E+03  0.46779151896E+03  0.25500000000E-02 0.  1.
          1   -1    0    0  501    0  0.00000000000E+00 -0.00000000000E+00 -0.35222694063E+01  0.35222730122E+01  0.50400000000E-02 0. -1.
        -24    2    1    2    0    0  0.35527136788E-14  0.00000000000E+00  0.46426924954E+03  0.47131379197E+03  0.81183461545E+02 0.  0.
         66    2    3    3    0    0  0.19343117389E+02 -0.23829781928E+02  0.38627726220E+03  0.38749985547E+03  0.20000005035E+01 0.  0.
         13    1    3    3    0    0 -0.19343117389E+02  0.23829781928E+02  0.77991987345E+02  0.83813936497E+02  0.10566000000E+00 0. -1.
         13    1    4    4    0    0  0.13651909136E+02 -0.16275211564E+02  0.27134587391E+03  0.27217614074E+03  0.10566000000E+00 0. -1.
        -13    1    4    4    0    0  0.11313495184E+00 -0.18383968007E+00  0.19321703721E+01  0.19470600730E+01  0.10566000000E+00 0.  1.
        -14    1    4    4    0    0  0.55780733008E+01 -0.73707306843E+01  0.11299921792E+03  0.11337665466E+03  0.00000000000E+00 0.  1.
<mgrwt>
<rscale>  0 0.81183462E+02</rscale>
<asrwt>0</asrwt>
<pdfrwt beam="1">  1        1 0.54188828E-03 0.81183462E+02</pdfrwt>
<pdfrwt beam="2">  1       -2 0.71967873E-01 0.81183462E+02</pdfrwt>
<totfact> 0.50998470E+04</totfact>
</mgrwt>
</event>
<event>
 8    1  0.1372337E-020  0.7980250E+02  0.7818608E-02  0.1329613E+00
          1   -1    0    0  501    0  0.00000000000E+00  0.00000000000E+00  0.48997548867E+02  0.48997549126E+02  0.50400000000E-02 0. -1.
         -2   -1    0    0    0  501 -0.00000000000E+00 -0.00000000000E+00 -0.32493664097E+02  0.32493664197E+02  0.25500000000E-02 0.  1.
        -24    2    1    2    0    0 -0.17763568394E-14  0.00000000000E+00  0.16503884770E+02  0.81491213323E+02  0.79802503948E+02 0.  0.
         66    2    3    3    0    0 -0.13172049297E+02 -0.18406485236E+02 -0.25267521916E+02  0.33981602065E+02  0.20000084281E+01 0.  0.
         13    1    3    3    0    0  0.13172049297E+02  0.18406485236E+02  0.41771406686E+02  0.47509611258E+02  0.10566000000E+00 0. -1.
         13    1    4    4    0    0 -0.23931116282E+01 -0.27249877702E+01 -0.35852091049E+01  0.51007283768E+01  0.10566000000E+00 0. -1.
        -13    1    4    4    0    0 -0.77544535070E+01 -0.11876975027E+02 -0.15385343941E+02  0.20926396183E+02  0.10566000000E+00 0.  1.
         14    1    4    4    0    0 -0.30244841613E+01 -0.38045224381E+01 -0.62969688703E+01  0.79544775050E+01  0.00000000000E+00 0. -1.
<mgrwt>
<rscale>  0 0.79802504E+02</rscale>
<asrwt>0</asrwt>
<pdfrwt beam="1">  1        1 0.75380845E-02 0.79802504E+02</pdfrwt>
<pdfrwt beam="2">  1       -2 0.49990253E-02 0.79802504E+02</pdfrwt>
<totfact> 0.13205806E+05</totfact>
</mgrwt>
</event>
<event>
 8    1  0.1372337E-020  0.8017596E+02  0.7818608E-02  0.1328553E+00
         -2   -1    0    0    0  501 -0.00000000000E+00  0.00000000000E+00  0.75690700456E+01  0.75690704751E+01  0.25500000000E-02 0.  1.
          1   -1    0    0  501    0  0.00000000000E+00 -0.00000000000E+00 -0.21231748133E+03  0.21231748139E+03  0.50400000000E-02 0. -1.
        -24    2    1    2    0    0  0.00000000000E+00  0.00000000000E+00 -0.20474841129E+03  0.21988655187E+03  0.80175955047E+02 0.  0.
         66    2    3    3    0    0 -0.10712867534E+02  0.30889900202E+02 -0.16593765197E+03  0.16913975229E+03  0.19999988848E+01 0.  0.
         13    1    3    3    0    0  0.10712867534E+02 -0.30889900202E+02 -0.38810759313E+02  0.50746799581E+02  0.10566000000E+00 0. -1.
         13    1    4    4    0    0 -0.81667546124E+00  0.29981599606E+01 -0.16651886699E+02  0.16939669910E+02  0.10566000000E+00 0. -1.
        -13    1    4    4    0    0 -0.98114019653E+01  0.27703174628E+02 -0.14875558756E+03  0.15163101756E+03  0.10566000000E+00 0.  1.
        -14    1    4    4    0    0 -0.84790107101E-01  0.18856561263E+00 -0.53017771609E+00  0.56906481456E+00  0.00000000000E+00 0.  1.
<mgrwt>
<rscale>  0 0.80175955E+02</rscale>
<asrwt>0</asrwt>
<pdfrwt beam="1">  1        1 0.32664224E-01 0.80175955E+02</pdfrwt>
<pdfrwt beam="2">  1       -2 0.11644725E-02 0.80175955E+02</pdfrwt>
<totfact> 0.16770879E+05</totfact>
</mgrwt>
</event>
<event>
 8    1  0.1474865E-020  0.7283626E+02  0.7818608E-02  0.1350705E+00
         -2   -1    0    0    0  501 -0.00000000000E+00  0.00000000000E+00  0.26932614252E+02  0.26932614372E+02  0.25500000000E-02 0.  1.
          1   -1    0    0  501    0  0.00000000000E+00 -0.00000000000E+00 -0.49244393313E+02  0.49244393571E+02  0.50400000000E-02 0. -1.
        -24    2    1    2    0    0  0.00000000000E+00 -0.88817841970E-15 -0.22311779062E+02  0.76177007944E+02  0.72836261946E+02 0.  0.
         66    2    3    3    0    0  0.22018349982E+02  0.49157579671E+01  0.18698884203E+02  0.29370405014E+02  0.20000019881E+01 0.  0.
         13    1    3    3    0    0 -0.22018349982E+02 -0.49157579671E+01 -0.41010663264E+02  0.46806602929E+02  0.10566000000E+00 0. -1.
         13    1    4    4    0    0  0.67266327506E+01  0.10629541382E+01  0.55384808936E+01  0.87785758700E+01  0.10566000000E+00 0. -1.
        -13    1    4    4    0    0  0.14971633799E+02  0.37969087681E+01  0.12555685613E+02  0.19905344509E+02  0.10566000000E+00 0.  1.
         14    1    4    4    0    0  0.32008343320E+00  0.55895060801E-01  0.60471769647E+00  0.68648463526E+00  0.00000000000E+00 0. -1.
<mgrwt>
<rscale>  0 0.72836262E+02</rscale>
<asrwt>0</asrwt>
<pdfrwt beam="1">  1        1 0.75760606E-02 0.72836262E+02</pdfrwt>
<pdfrwt beam="2">  1       -2 0.41434791E-02 0.72836262E+02</pdfrwt>
<totfact> 0.17003897E+05</totfact>
</mgrwt>
</event>
<event>
 8    1  0.1372337E-020  0.7939528E+02  0.7818608E-02  0.1330776E+00
         -2   -1    0    0    0  501 -0.00000000000E+00  0.00000000000E+00  0.78609868123E+01  0.78609872259E+01  0.25500000000E-02 0.  1.
          1   -1    0    0  501    0  0.00000000000E+00 -0.00000000000E+00 -0.20047131684E+03  0.20047131691E+03  0.50400000000E-02 0. -1.
        -24    2    1    2    0    0  0.00000000000E+00  0.71054273576E-14 -0.19261033003E+03  0.20833230413E+03  0.79395275115E+02 0.  0.
         66    2    3    3    0    0  0.22178881697E+02  0.32849747065E+02 -0.91906242393E+02  0.10010877108E+03  0.19999951247E+01 0.  0.
         13    1    3    3    0    0 -0.22178881697E+02 -0.32849747065E+02 -0.10070408764E+03  0.10822353305E+03  0.10566000000E+00 0. -1.
         13    1    4    4    0    0  0.82236791014E+01  0.11802651644E+02 -0.34069395635E+02  0.36981973538E+02  0.10566000000E+00 0. -1.
        -13    1    4    4    0    0  0.13459220355E+02  0.20664765293E+02 -0.56135383291E+02  0.61313746896E+02  0.10566000000E+00 0.  1.
         14    1    4    4    0    0  0.49598224112E+00  0.38233012771E+00 -0.17014634669E+01  0.18130506445E+01  0.00000000000E+00 0. -1.
<mgrwt>
<rscale>  0 0.79395275E+02</rscale>
<asrwt>0</asrwt>
<pdfrwt beam="1">  1        1 0.30841737E-01 0.79395275E+02</pdfrwt>
<pdfrwt beam="2">  1       -2 0.12093828E-02 0.79395275E+02</pdfrwt>
<totfact> 0.17020850E+05</totfact>
</mgrwt>
</event>
<event>
 8    1  0.1372337E-020  0.7954259E+02  0.7818608E-02  0.1330355E+00
         -2   -1    0    0    0  501 -0.00000000000E+00  0.00000000000E+00  0.20483757445E+02  0.20483757604E+02  0.25500000000E-02 0.  1.
          1   -1    0    0  501    0  0.00000000000E+00 -0.00000000000E+00 -0.77220012103E+02  0.77220012268E+02  0.50400000000E-02 0. -1.
        -24    2    1    2    0    0  0.00000000000E+00  0.00000000000E+00 -0.56736254658E+02  0.97703769871E+02  0.79542592706E+02 0.  0.
         66    2    3    3    0    0 -0.25682218557E+02 -0.28135009041E+02 -0.14456840866E+02  0.40794059993E+02  0.19999997899E+01 0.  0.
         13    1    3    3    0    0  0.25682218557E+02  0.28135009041E+02 -0.42279413792E+02  0.56909709878E+02  0.10566000000E+00 0. -1.
         13    1    4    4    0    0 -0.35968525446E+01 -0.30834345037E+01 -0.19295905590E+01  0.51165809216E+01  0.10566000000E+00 0. -1.
        -13    1    4    4    0    0 -0.16751005126E+02 -0.18535232489E+02 -0.92312765007E+01  0.26634163137E+02  0.10566000000E+00 0.  1.
         14    1    4    4    0    0 -0.53343608857E+01 -0.65163420492E+01 -0.32959738061E+01  0.90433159345E+01  0.00000000000E+00 0. -1.
<mgrwt>
<rscale>  0 0.79542593E+02</rscale>
<asrwt>0</asrwt>
<pdfrwt beam="1">  1        1 0.11880002E-01 0.79542593E+02</pdfrwt>
<pdfrwt beam="2">  1       -2 0.31513474E-02 0.79542593E+02</pdfrwt>
<totfact> 0.14311087E+05</totfact>
</mgrwt>
</event>
<event>
 8    1  0.1372337E-020  0.8043704E+02  0.7818608E-02  0.1327816E+00
          1   -1    0    0  501    0  0.00000000000E+00  0.00000000000E+00  0.88167188161E+03  0.88167188162E+03  0.50400000000E-02 0. -1.
         -2   -1    0    0    0  501 -0.00000000000E+00 -0.00000000000E+00 -0.18346152667E+01  0.18346170388E+01  0.25500000000E-02 0.  1.
        -24    2    1    2    0    0 -0.35527136788E-14 -0.35527136788E-14  0.87983726634E+03  0.88350649866E+03  0.80437043292E+02 0.  0.
         66    2    3    3    0    0  0.15546613724E+02  0.24933721772E+02  0.74142251926E+03  0.74200723699E+03  0.20000003036E+01 0.  0.
         13    1    3    3    0    0 -0.15546613724E+02 -0.24933721772E+02  0.13841474708E+03  0.14149926167E+03  0.10566000000E+00 0. -1.
         13    1    4    4    0    0  0.24634705113E+01  0.29556997004E+01  0.10361197484E+03  0.10368344777E+03  0.10566000000E+00 0. -1.
        -13    1    4    4    0    0  0.29978866074E+01  0.56286266844E+01  0.15384877109E+03  0.15398092184E+03  0.10566000000E+00 0.  1.
        -14    1    4    4    0    0  0.10085256605E+02  0.16349395387E+02  0.48396177333E+03  0.48434286737E+03  0.00000000000E+00 0.  1.
<mgrwt>
<rscale>  0 0.80437043E+02</rscale>
<asrwt>0</asrwt>
<pdfrwt beam="1">  1        1 0.13564184E+00 0.80437043E+02</pdfrwt>
<pdfrwt beam="2">  1       -2 0.28224861E-03 0.80437043E+02</pdfrwt>
<totfact> 0.19389558E+05</totfact>
</mgrwt>
</event>
<event>
 8    1  0.1372337E-020  0.7946502E+02  0.7818608E-02  0.1330577E+00
         -2   -1    0    0    0  501 -0.00000000000E+00  0.00000000000E+00  0.10246781706E+03  0.10246781709E+03  0.25500000000E-02 0.  1.
          1   -1    0    0  501    0  0.00000000000E+00 -0.00000000000E+00 -0.15406517025E+02  0.15406517849E+02  0.50400000000E-02 0. -1.
        -24    2    1    2    0    0 -0.17763568394E-14  0.00000000000E+00  0.87061300037E+02  0.11787433494E+03  0.79465016668E+02 0.  0.
         66    2    3    3    0    0  0.10801658240E+02  0.24999325812E+02  0.86422182711E+02  0.90633524625E+02  0.20000023969E+01 0.  0.
         13    1    3    3    0    0 -0.10801658240E+02 -0.24999325812E+02  0.63911732583E+00  0.27240810318E+02  0.10566000000E+00 0. -1.
         13    1    4    4    0    0  0.25754553241E+00  0.41413258092E+00  0.19384632779E+01  0.20016591646E+01  0.10566000000E+00 0.  1.
        -13    1    4    4    0    0  0.12203249099E+01  0.18539648556E+01  0.64905712450E+01  0.68603977796E+01  0.10566000000E+00 0.  1.
        -14    1    4    4    0    0  0.93237877981E+01  0.22731228375E+02  0.77993148188E+02  0.81771467681E+02  0.00000000000E+00 0.  1.
<mgrwt>
<rscale>  0 0.79465017E+02</rscale>
<asrwt>0</asrwt>
<pdfrwt beam="1">  1        1 0.23702335E-02 0.79465017E+02</pdfrwt>
<pdfrwt beam="2">  1       -2 0.15764279E-01 0.79465017E+02</pdfrwt>
<totfact> 0.10730996E+05</totfact>
</mgrwt>
</event>
<event>
 8    1  0.1372337E-020  0.8104737E+02  0.7818608E-02  0.1326105E+00
         -2   -1    0    0    0  501 -0.00000000000E+00  0.00000000000E+00  0.24827426799E+03  0.24827426800E+03  0.25500000000E-02 0.  1.
          1   -1    0    0  501    0  0.00000000000E+00 -0.00000000000E+00 -0.66143329879E+01  0.66143349081E+01  0.50400000000E-02 0. -1.
        -24    2    1    2    0    0  0.00000000000E+00 -0.71054273576E-14  0.24165993500E+03  0.25488860291E+03  0.81047367068E+02 0.  0.
         66    2    3    3    0    0 -0.66584859003E+01 -0.39237553924E+02  0.14448885138E+03  0.14988311863E+03  0.20000013152E+01 0.  0.
         13    1    3    3    0    0  0.66584859003E+01  0.39237553924E+02  0.97171083618E+02  0.10500548428E+03  0.10566000000E+00 0. -1.
         13    1    4    4    0    0 -0.19150320719E+00 -0.23243456341E+01  0.79087799008E+01  0.82461639361E+01  0.10566000000E+00 0. -1.
        -13    1    4    4    0    0 -0.27922688494E+01 -0.12149056998E+02  0.46722397767E+02  0.48356901973E+02  0.10566000000E+00 0.  1.
        -14    1    4    4    0    0 -0.36747138438E+01 -0.24764151292E+02  0.89857673711E+02  0.93280052722E+02  0.00000000000E+00 0.  1.
<mgrwt>
<rscale>  0 0.81047367E+02</rscale>
<asrwt>0</asrwt>
<pdfrwt beam="1">  1        1 0.10175899E-02 0.81047367E+02</pdfrwt>
<pdfrwt beam="2">  1       -2 0.38196041E-01 0.81047367E+02</pdfrwt>
<totfact> 0.74812834E+04</totfact>
</mgrwt>
</event>
<event>
 8    1  0.1372337E-020  0.7964163E+02  0.7818608E-02  0.1330072E+00
         -2   -1    0    0    0  501 -0.00000000000E+00  0.00000000000E+00  0.10167234916E+04  0.10167234916E+04  0.25500000000E-02 0.  1.
          1   -1    0    0  501    0  0.00000000000E+00 -0.00000000000E+00 -0.15596110004E+01  0.15596191439E+01  0.50400000000E-02 0. -1.
        -24    2    1    2    0    0  0.35527136788E-14  0.00000000000E+00  0.10151638806E+04  0.10182831107E+04  0.79641629558E+02 0.  0.
         66    2    3    3    0    0  0.12702336561E+02  0.25731600046E+02  0.86043453893E+03  0.86091524576E+03  0.19999979805E+01 0.  0.
         13    1    3    3    0    0 -0.12702336561E+02 -0.25731600046E+02  0.15472934166E+03  0.15736786498E+03  0.10566000000E+00 0. -1.
         13    1    4    4    0    0  0.15832092021E+01  0.24391208151E+01  0.79122937454E+02  0.79176424882E+02  0.10566000000E+00 0.  1.
        -13    1    4    4    0    0  0.65718677587E+01  0.13685406980E+02  0.44076866974E+03  0.44103005702E+03  0.10566000000E+00 0.  1.
        -14    1    4    4    0    0  0.45472596005E+01  0.96070722517E+01  0.34054293174E+03  0.34070876385E+03  0.00000000000E+00 0.  1.
<mgrwt>
<rscale>  0 0.79641630E+02</rscale>
<asrwt>0</asrwt>
<pdfrwt beam="1">  1        1 0.23994069E-03 0.79641630E+02</pdfrwt>
<pdfrwt beam="2">  1       -2 0.15641906E+00 0.79641630E+02</pdfrwt>
<totfact> 0.25874135E+04</totfact>
</mgrwt>
</event>
<event>
 8    1  0.1372337E-020  0.7908733E+02  0.7818608E-02  0.1331662E+00
         -2   -1    0    0    0  501 -0.00000000000E+00  0.00000000000E+00  0.29030994638E+02  0.29030994750E+02  0.25500000000E-02 0.  1.
          1   -1    0    0  501    0  0.00000000000E+00 -0.00000000000E+00 -0.53863169034E+02  0.53863169270E+02  0.50400000000E-02 0. -1.
        -24    2    1    2    0    0  0.35527136788E-14  0.35527136788E-14 -0.24832174396E+02  0.82894164020E+02  0.79087328589E+02 0.  0.
         66    2    3    3    0    0 -0.20883651205E+02 -0.22061663163E+02  0.14068154651E+02  0.33537395151E+02  0.20000072736E+01 0.  0.
         13    1    3    3    0    0  0.20883651205E+02  0.22061663163E+02 -0.38900329046E+02  0.49356768868E+02  0.10566000000E+00 0. -1.
         13    1    4    4    0    0 -0.58600587276E+01 -0.71658502531E+01  0.43860411251E+01  0.10243935715E+02  0.10566000000E+00 0. -1.
        -13    1    4    4    0    0 -0.14135383832E+02 -0.13730713974E+02  0.92231647362E+01  0.21758205672E+02  0.10566000000E+00 0.  1.
         14    1    4    4    0    0 -0.88820864597E+00 -0.11650989361E+01  0.45894878958E+00  0.15352537644E+01  0.00000000000E+00 0. -1.
<mgrwt>
<rscale>  0 0.79087329E+02</rscale>
<asrwt>0</asrwt>
<pdfrwt beam="1">  1        1 0.82866414E-02 0.79087329E+02</pdfrwt>
<pdfrwt beam="2">  1       -2 0.44663069E-02 0.79087329E+02</pdfrwt>
<totfact> 0.13741314E+05</totfact>
</mgrwt>
</event>
<event>
 8    1  0.1372337E-020  0.7763673E+02  0.7818608E-02  0.1335895E+00
          1   -1    0    0  501    0  0.00000000000E+00  0.00000000000E+00  0.37538165504E+02  0.37538165843E+02  0.50400000000E-02 0. -1.
         -2   -1    0    0    0  501 -0.00000000000E+00 -0.00000000000E+00 -0.40142220403E+02  0.40142220484E+02  0.25500000000E-02 0.  1.
        -24    2    1    2    0    0  0.00000000000E+00  0.00000000000E+00 -0.26040548988E+01  0.77680386327E+02  0.77636726605E+02 0.  0.
         66    2    3    3    0    0  0.27158737127E+02 -0.39173173319E+01 -0.28739433234E+02  0.39785643391E+02  0.20000049931E+01 0.  0.
         13    1    3    3    0    0 -0.27158737127E+02  0.39173173319E+01  0.26135378335E+02  0.37894742936E+02  0.10566000000E+00 0. -1.
         13    1    4    4    0    0  0.18094270309E+02 -0.33932932881E+01 -0.19508569148E+02  0.26823730009E+02  0.10566000000E+00 0. -1.
        -13    1    4    4    0    0  0.56908562234E+01 -0.49890926716E+00 -0.54762958484E+01  0.79142741465E+01  0.10566000000E+00 0.  1.
         14    1    4    4    0    0  0.33736105946E+01 -0.25114776696E-01 -0.37545682374E+01  0.50476392349E+01  0.00000000000E+00 0. -1.
<mgrwt>
<rscale>  0 0.77636727E+02</rscale>
<asrwt>0</asrwt>
<pdfrwt beam="1">  1        1 0.57751024E-02 0.77636727E+02</pdfrwt>
<pdfrwt beam="2">  1       -2 0.61757262E-02 0.77636727E+02</pdfrwt>
<totfact> 0.13675372E+05</totfact>
</mgrwt>
</event>
<event>
 8    1  0.1372337E-020  0.8083477E+02  0.7818608E-02  0.1326699E+00
          1   -1    0    0  501    0  0.00000000000E+00  0.00000000000E+00  0.57381422074E+01  0.57381444208E+01  0.50400000000E-02 0. -1.
         -2   -1    0    0    0  501 -0.00000000000E+00 -0.00000000000E+00 -0.28468525894E+03  0.28468525895E+03  0.25500000000E-02 0.  1.
        -24    2    1    2    0    0  0.00000000000E+00  0.35527136788E-14 -0.27894711673E+03  0.29042340337E+03  0.80834765373E+02 0.  0.
         66    2    3    3    0    0 -0.13958371708E+02  0.24090309881E+02 -0.24469843000E+03  0.24628540526E+03  0.20000063757E+01 0.  0.
         13    1    3    3    0    0  0.13958371708E+02 -0.24090309881E+02 -0.34248686727E+02  0.44137998114E+02  0.10566000000E+00 0. -1.
         13    1    4    4    0    0 -0.56914810311E+01  0.88465076684E+01 -0.88878656507E+02  0.89499052514E+02  0.10566000000E+00 0. -1.
        -13    1    4    4    0    0 -0.68980914466E+01  0.12589999921E+02 -0.12471244271E+03  0.12553603584E+03  0.10566000000E+00 0.  1.
         14    1    4    4    0    0 -0.13687992301E+01  0.26538022914E+01 -0.31107330788E+02  0.31250316906E+02  0.00000000000E+00 0. -1.
<mgrwt>
<rscale>  0 0.80834765E+02</rscale>
<asrwt>0</asrwt>
<pdfrwt beam="1">  1        1 0.88279151E-03 0.80834765E+02</pdfrwt>
<pdfrwt beam="2">  1       -2 0.43797721E-01 0.80834765E+02</pdfrwt>
<totfact> 0.70350381E+04</totfact>
</mgrwt>
</event>
<event>
 8    1  0.1372337E-020  0.8500483E+02  0.7818608E-02  0.1315420E+00
          1   -1    0    0  501    0  0.00000000000E+00  0.00000000000E+00  0.13478564226E+03  0.13478564235E+03  0.50400000000E-02 0. -1.
         -2   -1    0    0    0  501 -0.00000000000E+00 -0.00000000000E+00 -0.13402430004E+02  0.13402430247E+02  0.25500000000E-02 0.  1.
        -24    2    1    2    0    0  0.00000000000E+00  0.00000000000E+00  0.12138321226E+03  0.14818807260E+03  0.85004827179E+02 0.  0.
         66    2    3    3    0    0 -0.18692177027E+02 -0.36482164520E+02  0.41304488603E+02  0.58227198017E+02  0.19999999969E+01 0.  0.
         13    1    3    3    0    0  0.18692177027E+02  0.36482164520E+02  0.80078723653E+02  0.89960874585E+02  0.10566000000E+00 0. -1.
         13    1    4    4    0    0 -0.69590511026E+00 -0.17283852476E+01  0.20307978386E+01  0.27580615264E+01  0.10566000000E+00 0. -1.
        -13    1    4    4    0    0 -0.68488256300E+01 -0.14500240194E+02  0.15304927504E+02  0.22167890025E+02  0.10566000000E+00 0.  1.
         14    1    4    4    0    0 -0.11147446287E+02 -0.20253539078E+02  0.23968763260E+02  0.33301246466E+02  0.00000000000E+00 0. -1.
<mgrwt>
<rscale>  0 0.85004827E+02</rscale>
<asrwt>0</asrwt>
<pdfrwt beam="1">  1        1 0.20736252E-01 0.85004827E+02</pdfrwt>
<pdfrwt beam="2">  1       -2 0.20619124E-02 0.85004827E+02</pdfrwt>
<totfact> 0.13152044E+05</totfact>
</mgrwt>
</event>
<event>
 8    1  0.1372337E-020  0.8182046E+02  0.7818608E-02  0.1323963E+00
          1   -1    0    0  501    0  0.00000000000E+00  0.00000000000E+00  0.64829353933E+02  0.64829354129E+02  0.50400000000E-02 0. -1.
         -2   -1    0    0    0  501 -0.00000000000E+00 -0.00000000000E+00 -0.25816190902E+02  0.25816191028E+02  0.25500000000E-02 0.  1.
        -24    2    1    2    0    0  0.00000000000E+00  0.00000000000E+00  0.39013163031E+02  0.90645545158E+02  0.81820461788E+02 0.  0.
         66    2    3    3    0    0 -0.19966113366E+02  0.45403455147E+01 -0.19687826630E+02  0.28475795508E+02  0.19999980169E+01 0.  0.
         13    1    3    3    0    0  0.19966113366E+02 -0.45403455147E+01  0.58700989660E+02  0.62169749650E+02  0.10566000000E+00 0. -1.
         13    1    4    4    0    0 -0.96067828201E+00  0.10995517745E+00 -0.65376436986E+00  0.11719918044E+01  0.10566000000E+00 0. -1.
        -13    1    4    4    0    0 -0.12564947544E+02  0.28935512100E+01 -0.13569033775E+02  0.18718450443E+02  0.10566000000E+00 0.  1.
        -14    1    4    4    0    0 -0.64404875409E+01  0.15368391272E+01 -0.54650284850E+01  0.85853532606E+01  0.00000000000E+00 0.  1.
<mgrwt>
<rscale>  0 0.81820462E+02</rscale>
<asrwt>0</asrwt>
<pdfrwt beam="1">  1        1 0.99737468E-02 0.81820462E+02</pdfrwt>
<pdfrwt beam="2">  1       -2 0.39717217E-02 0.81820462E+02</pdfrwt>
<totfact> 0.12881072E+05</totfact>
</mgrwt>
</event>
<event>
 8    1  0.1372337E-020  0.8480270E+02  0.7818608E-02  0.1315949E+00
          1   -1    0    0  501    0  0.00000000000E+00  0.00000000000E+00  0.23211372348E+02  0.23211372895E+02  0.50400000000E-02 0. -1.
         -2   -1    0    0    0  501 -0.00000000000E+00 -0.00000000000E+00 -0.77456611376E+02  0.77456611417E+02  0.25500000000E-02 0.  1.
        -24    2    1    2    0    0  0.71054273576E-14  0.17763568394E-14 -0.54245239028E+02  0.10066798431E+03  0.84802695171E+02 0.  0.
         66    2    3    3    0    0  0.35957249069E+02  0.81268385648E+01 -0.51950290534E+02  0.63732266933E+02  0.19999740607E+01 0.  0.
         13    1    3    3    0    0 -0.35957249069E+02 -0.81268385648E+01 -0.22949484944E+01  0.36935717379E+02  0.10566000000E+00 0. -1.
         13    1    4    4    0    0  0.10916191561E+02  0.30056606368E+01 -0.16861509734E+02  0.20310561504E+02  0.10566000000E+00 0. -1.
        -13    1    4    4    0    0  0.11842179654E+02  0.24299687904E+01 -0.17409427392E+02  0.21195313006E+02  0.10566000000E+00 0.  1.
        -14    1    4    4    0    0  0.13198877854E+02  0.26912091376E+01 -0.17679353407E+02  0.22226392423E+02  0.00000000000E+00 0.  1.
<mgrwt>
<rscale>  0 0.84802695E+02</rscale>
<asrwt>0</asrwt>
<pdfrwt beam="1">  1        1 0.35709804E-02 0.84802695E+02</pdfrwt>
<pdfrwt beam="2">  1       -2 0.11916402E-01 0.84802695E+02</pdfrwt>
<totfact> 0.96999036E+04</totfact>
</mgrwt>
</event>
<event>
 8    1  0.1372337E-020  0.7916981E+02  0.7818608E-02  0.1331424E+00
         -2   -1    0    0    0  501 -0.00000000000E+00  0.00000000000E+00  0.27513529007E+02  0.27513529125E+02  0.25500000000E-02 0.  1.
          1   -1    0    0  501    0  0.00000000000E+00 -0.00000000000E+00 -0.56952515782E+02  0.56952516005E+02  0.50400000000E-02 0. -1.
        -24    2    1    2    0    0  0.44408920985E-15  0.00000000000E+00 -0.29438986775E+02  0.84466045130E+02  0.79169810140E+02 0.  0.
         66    2    3    3    0    0 -0.30977410398E+01  0.33459145666E+02  0.75447564173E+01  0.34496866102E+02  0.19999983028E+01 0.  0.
         13    1    3    3    0    0  0.30977410398E+01 -0.33459145666E+02 -0.36983743192E+02  0.49969179028E+02  0.10566000000E+00 0. -1.
         13    1    4    4    0    0 -0.70386142009E+00  0.10062816214E+02  0.14493596584E+01  0.10191540537E+02  0.10566000000E+00 0. -1.
        -13    1    4    4    0    0 -0.18335751435E+01  0.16423183337E+02  0.40027230120E+01  0.17003408608E+02  0.10566000000E+00 0.  1.
         14    1    4    4    0    0 -0.56030447621E+00  0.69731461147E+01  0.20926737470E+01  0.73019169575E+01  0.00000000000E+00 0. -1.
<mgrwt>
<rscale>  0 0.79169810E+02</rscale>
<asrwt>0</asrwt>
<pdfrwt beam="1">  1        1 0.87619255E-02 0.79169810E+02</pdfrwt>
<pdfrwt beam="2">  1       -2 0.42328506E-02 0.79169810E+02</pdfrwt>
<totfact> 0.13820871E+05</totfact>
</mgrwt>
</event>
<event>
 8    1  0.1372337E-020  0.8015245E+02  0.7818608E-02  0.1328619E+00
         -2   -1    0    0    0  501 -0.00000000000E+00  0.00000000000E+00  0.20447246606E+02  0.20447246765E+02  0.25500000000E-02 0.  1.
          1   -1    0    0  501    0  0.00000000000E+00 -0.00000000000E+00 -0.78548659866E+02  0.78548660027E+02  0.50400000000E-02 0. -1.
        -24    2    1    2    0    0  0.35527136788E-14 -0.35527136788E-14 -0.58101413260E+02  0.98995906792E+02  0.80152450611E+02 0.  0.
         66    2    3    3    0    0  0.29717817799E+02 -0.24024098662E+02 -0.14258265153E+02  0.40836309036E+02  0.19999998153E+01 0.  0.
         13    1    3    3    0    0 -0.29717817799E+02  0.24024098662E+02 -0.43843148107E+02  0.58159597757E+02  0.10566000000E+00 0. -1.
         13    1    4    4    0    0  0.32837163786E+01 -0.33936307485E+01 -0.19500169916E+01  0.51101128378E+01  0.10566000000E+00 0. -1.
        -13    1    4    4    0    0  0.21452062730E+02 -0.16653364320E+02 -0.96881274079E+01  0.28833947271E+02  0.10566000000E+00 0.  1.
         14    1    4    4    0    0  0.49820386904E+01 -0.39771035933E+01 -0.26201207532E+01  0.68922489266E+01  0.00000000000E+00 0. -1.
<mgrwt>
<rscale>  0 0.80152451E+02</rscale>
<asrwt>0</asrwt>
<pdfrwt beam="1">  1        1 0.12084409E-01 0.80152451E+02</pdfrwt>
<pdfrwt beam="2">  1       -2 0.31457303E-02 0.80152451E+02</pdfrwt>
<totfact> 0.14054589E+05</totfact>
</mgrwt>
</event>
<event>
 8    1  0.1372337E-020  0.8091242E+02  0.7818608E-02  0.1326482E+00
          1   -1    0    0  501    0  0.00000000000E+00  0.00000000000E+00  0.25114775273E+01  0.25114825844E+01  0.50400000000E-02 0. -1.
         -2   -1    0    0    0  501 -0.00000000000E+00 -0.00000000000E+00 -0.65168935130E+03  0.65168935131E+03  0.25500000000E-02 0.  1.
        -24    2    1    2    0    0  0.00000000000E+00  0.00000000000E+00 -0.64917787377E+03  0.65420083389E+03  0.80912417253E+02 0.  0.
         66    2    3    3    0    0  0.99238616170E+01 -0.35746502957E+02 -0.45475750978E+03  0.45627260295E+03  0.19999999853E+01 0.  0.
         13    1    3    3    0    0 -0.99238616170E+01  0.35746502957E+02 -0.19442036399E+03  0.19792823094E+03  0.10566000000E+00 0. -1.
         13    1    4    4    0    0  0.17082866636E+01 -0.56395172886E+01 -0.67979674165E+02  0.68234666133E+02  0.10566000000E+00 0. -1.
        -13    1    4    4    0    0  0.63721913689E+01 -0.21255739894E+02 -0.26932045545E+03  0.27023310343E+03  0.10566000000E+00 0.  1.
         14    1    4    4    0    0  0.18433835845E+01 -0.88512457749E+01 -0.11745738016E+03  0.11780483339E+03  0.00000000000E+00 0. -1.
<mgrwt>
<rscale>  0 0.80912417E+02</rscale>
<asrwt>0</asrwt>
<pdfrwt beam="1">  1        1 0.38638207E-03 0.80912417E+02</pdfrwt>
<pdfrwt beam="2">  1       -2 0.10025977E+00 0.80912417E+02</pdfrwt>
<totfact> 0.39259917E+04</totfact>
</mgrwt>
</event>
<event>
 8    1  0.1372337E-020  0.8120332E+02  0.7818608E-02  0.1325671E+00
         -2   -1    0    0    0  501 -0.00000000000E+00  0.00000000000E+00  0.70726839029E+01  0.70726843626E+01  0.25500000000E-02 0.  1.
          1   -1    0    0  501    0  0.00000000000E+00 -0.00000000000E+00 -0.23307911252E+03  0.23307911257E+03  0.50400000000E-02 0. -1.
        -24    2    1    2    0    0  0.35527136788E-14 -0.71054273576E-14 -0.22600642862E+03  0.24015179694E+03  0.81203323798E+02 0.  0.
         66    2    3    3    0    0  0.16381970936E+02 -0.37045135489E+02 -0.12018101017E+03  0.12683921427E+03  0.20000095521E+01 0.  0.
         13    1    3    3    0    0 -0.16381970936E+02  0.37045135489E+02 -0.10582541845E+03  0.11331258266E+03  0.10566000000E+00 0. -1.
         13    1    4    4    0    0  0.12388993801E+02 -0.27124956713E+02 -0.86573312374E+02  0.91565277390E+02  0.10566000000E+00 0. -1.
        -13    1    4    4    0    0  0.36817730109E+01 -0.94836688605E+01 -0.32107901468E+02  0.33681210315E+02  0.10566000000E+00 0.  1.
         14    1    4    4    0    0  0.31120412376E+00 -0.43650991564E+00 -0.14997963230E+01  0.15927265690E+01  0.00000000000E+00 0. -1.
<mgrwt>
<rscale>  0 0.81203324E+02</rscale>
<asrwt>0</asrwt>
<pdfrwt beam="1">  1        1 0.35858319E-01 0.81203324E+02</pdfrwt>
<pdfrwt beam="2">  1       -2 0.10881054E-02 0.81203324E+02</pdfrwt>
<totfact> 0.16512582E+05</totfact>
</mgrwt>
</event>
<event>
 8    1  0.1372337E-020  0.7918060E+02  0.7818608E-02  0.1331393E+00
         -2   -1    0    0    0  501 -0.00000000000E+00  0.00000000000E+00  0.37192828796E+02  0.37192828883E+02  0.25500000000E-02 0.  1.
          1   -1    0    0  501    0  0.00000000000E+00 -0.00000000000E+00 -0.42142317625E+02  0.42142317926E+02  0.50400000000E-02 0. -1.
        -24    2    1    2    0    0  0.00000000000E+00  0.00000000000E+00 -0.49494888291E+01  0.79335146810E+02  0.79180604188E+02 0.  0.
         66    2    3    3    0    0 -0.17693028738E+02  0.12853069708E+02  0.30559877307E+02  0.37631778669E+02  0.19999994787E+01 0.  0.
         13    1    3    3    0    0  0.17693028738E+02 -0.12853069708E+02 -0.35509366137E+02  0.41703368141E+02  0.10566000000E+00 0. -1.
         13    1    4    4    0    0 -0.82194198889E+01  0.67180852498E+01  0.16010059952E+02  0.19210016045E+02  0.10566000000E+00 0. -1.
        -13    1    4    4    0    0 -0.50635347795E+01  0.35748232769E+01  0.79120468176E+01  0.10051387705E+02  0.10566000000E+00 0.  1.
         14    1    4    4    0    0 -0.44100740693E+01  0.25601611809E+01  0.66377705380E+01  0.83703749189E+01  0.00000000000E+00 0. -1.
<mgrwt>
<rscale>  0 0.79180604E+02</rscale>
<asrwt>0</asrwt>
<pdfrwt beam="1">  1        1 0.64834335E-02 0.79180604E+02</pdfrwt>
<pdfrwt beam="2">  1       -2 0.57219737E-02 0.79180604E+02</pdfrwt>
<totfact> 0.13180213E+05</totfact>
</mgrwt>
</event>
<event>
 8    1  0.1372337E-020  0.8032584E+02  0.7818608E-02  0.1328129E+00
         -2   -1    0    0    0  501 -0.00000000000E+00  0.00000000000E+00  0.93110739882E+01  0.93110743374E+01  0.25500000000E-02 0.  1.
          1   -1    0    0  501    0  0.00000000000E+00 -0.00000000000E+00 -0.17324102649E+03  0.17324102657E+03  0.50400000000E-02 0. -1.
        -24    2    1    2    0    0  0.00000000000E+00  0.00000000000E+00 -0.16392995251E+03  0.18255210091E+03  0.80325837787E+02 0.  0.
         66    2    3    3    0    0  0.97055529545E+01  0.32757122535E+02 -0.34137311998E+02  0.48338213662E+02  0.19999986605E+01 0.  0.
         13    1    3    3    0    0 -0.97055529545E+01 -0.32757122535E+02 -0.12979264051E+03  0.13421388724E+03  0.10566000000E+00 0. -1.
         13    1    4    4    0    0  0.57306260555E+01  0.20400226027E+02 -0.21229231717E+02  0.29995011924E+02  0.10566000000E+00 0. -1.
        -13    1    4    4    0    0  0.31369526031E+01  0.10636393374E+02 -0.11424197192E+02  0.15921582244E+02  0.10566000000E+00 0.  1.
         14    1    4    4    0    0  0.83797429585E+00  0.17205031329E+01 -0.14838830893E+01  0.24216194940E+01  0.00000000000E+00 0. -1.
<mgrwt>
<rscale>  0 0.80325838E+02</rscale>
<asrwt>0</asrwt>
<pdfrwt beam="1">  1        1 0.26652463E-01 0.80325838E+02</pdfrwt>
<pdfrwt beam="2">  1       -2 0.14324731E-02 0.80325838E+02</pdfrwt>
<totfact> 0.16045004E+05</totfact>
</mgrwt>
</event>
<event>
 8    1  0.1372337E-020  0.8018874E+02  0.7818608E-02  0.1328517E+00
          1   -1    0    0  501    0  0.00000000000E+00  0.00000000000E+00  0.18038748873E+02  0.18038749577E+02  0.50400000000E-02 0. -1.
         -2   -1    0    0    0  501 -0.00000000000E+00 -0.00000000000E+00 -0.89116955131E+02  0.89116955167E+02  0.25500000000E-02 0.  1.
        -24    2    1    2    0    0 -0.35527136788E-14 -0.35527136788E-14 -0.71078206258E+02  0.10715570474E+03  0.80188737704E+02 0.  0.
         66    2    3    3    0    0 -0.24878661837E+02 -0.18949667982E+02 -0.69035658624E+02  0.75815301169E+02  0.19999995495E+01 0.  0.
         13    1    3    3    0    0  0.24878661837E+02  0.18949667982E+02 -0.20425476335E+01  0.31340403576E+02  0.10566000000E+00 0. -1.
         13    1    4    4    0    0 -0.16176125973E+01 -0.78149813608E+00 -0.44673092207E+01  0.48161629500E+01  0.10566000000E+00 0. -1.
        -13    1    4    4    0    0 -0.60526282501E+01 -0.45479038388E+01 -0.17312834667E+02  0.18896114582E+02  0.10566000000E+00 0.  1.
        -14    1    4    4    0    0 -0.17208420989E+02 -0.13620266008E+02 -0.47255514737E+02  0.52103023637E+02  0.00000000000E+00 0.  1.
<mgrwt>
<rscale>  0 0.80188738E+02</rscale>
<asrwt>0</asrwt>
<pdfrwt beam="1">  1        1 0.27751922E-02 0.80188738E+02</pdfrwt>
<pdfrwt beam="2">  1       -2 0.13710301E-01 0.80188738E+02</pdfrwt>
<totfact> 0.10844289E+05</totfact>
</mgrwt>
</event>
<event>
 8    1  0.1372337E-020  0.7906378E+02  0.7818608E-02  0.1331729E+00
         -2   -1    0    0    0  501 -0.00000000000E+00  0.00000000000E+00  0.91450612310E+01  0.91450615865E+01  0.25500000000E-02 0.  1.
          1   -1    0    0  501    0  0.00000000000E+00 -0.00000000000E+00 -0.17088679840E+03  0.17088679848E+03  0.50400000000E-02 0. -1.
        -24    2    1    2    0    0  0.00000000000E+00  0.35527136788E-14 -0.16174173717E+03  0.18003186006E+03  0.79063778651E+02 0.  0.
         66    2    3    3    0    0 -0.32569745542E+02 -0.21980100777E+02 -0.71574878930E+02  0.81675433511E+02  0.19999976416E+01 0.  0.
         13    1    3    3    0    0  0.32569745542E+02  0.21980100777E+02 -0.90166858241E+02  0.98356426552E+02  0.10566000000E+00 0. -1.
         13    1    4    4    0    0 -0.68157486693E+01 -0.39186014747E+01 -0.14985071651E+02  0.16922570841E+02  0.10566000000E+00 0. -1.
        -13    1    4    4    0    0 -0.15499360172E+02 -0.10359373941E+02 -0.34077037780E+02  0.38843306529E+02  0.10566000000E+00 0.  1.
        -14    1    4    4    0    0 -0.10254636701E+02 -0.77021253612E+01 -0.22512769499E+02  0.25909556142E+02  0.00000000000E+00 0.  1.
<mgrwt>
<rscale>  0 0.79063779E+02</rscale>
<asrwt>0</asrwt>
<pdfrwt beam="1">  1        1 0.26290275E-01 0.79063779E+02</pdfrwt>
<pdfrwt beam="2">  1       -2 0.14069326E-02 0.79063779E+02</pdfrwt>
<totfact> 0.16692761E+05</totfact>
</mgrwt>
</event>
<event>
 8    1  0.1372337E-020  0.7974420E+02  0.7818608E-02  0.1329779E+00
          1   -1    0    0  501    0  0.00000000000E+00  0.00000000000E+00  0.48748007420E+02  0.48748007680E+02  0.50400000000E-02 0. -1.
         -2   -1    0    0    0  501 -0.00000000000E+00 -0.00000000000E+00 -0.32612290469E+02  0.32612290569E+02  0.25500000000E-02 0.  1.
        -24    2    1    2    0    0  0.00000000000E+00  0.00000000000E+00  0.16135716951E+02  0.81360298249E+02  0.79744195836E+02 0.  0.
         66    2    3    3    0    0 -0.28741688027E+02 -0.19081574129E+02 -0.12270790870E+02  0.36671015949E+02  0.20000000694E+01 0.  0.
         13    1    3    3    0    0  0.28741688027E+02  0.19081574129E+02  0.28406507821E+02  0.44689282300E+02  0.10566000000E+00 0. -1.
         13    1    4    4    0    0 -0.21685075355E+02 -0.13959283496E+02 -0.95887463040E+01  0.27514710767E+02  0.10566000000E+00 0. -1.
        -13    1    4    4    0    0 -0.36145893957E+01 -0.27647252937E+01 -0.17819983865E+01  0.48883171679E+01  0.10566000000E+00 0.  1.
         14    1    4    4    0    0 -0.34420232762E+01 -0.23575653395E+01 -0.90004617982E+00  0.42679880143E+01  0.00000000000E+00 0. -1.
<mgrwt>
<rscale>  0 0.79744196E+02</rscale>
<asrwt>0</asrwt>
<pdfrwt beam="1">  1        1 0.74996935E-02 0.79744196E+02</pdfrwt>
<pdfrwt beam="2">  1       -2 0.50172755E-02 0.79744196E+02</pdfrwt>
<totfact> 0.13222090E+05</totfact>
</mgrwt>
</event>
<event>
 8    1  0.1372337E-020  0.7880109E+02  0.7818608E-02  0.1332489E+00
         -2   -1    0    0    0  501 -0.00000000000E+00  0.00000000000E+00  0.29896220279E+02  0.29896220388E+02  0.25500000000E-02 0.  1.
          1   -1    0    0  501    0  0.00000000000E+00 -0.00000000000E+00 -0.51926398844E+02  0.51926399089E+02  0.50400000000E-02 0. -1.
        -24    2    1    2    0    0  0.00000000000E+00 -0.17763568394E-14 -0.22030178565E+02  0.81822619477E+02  0.78801093206E+02 0.  0.
         66    2    3    3    0    0 -0.14482891592E+01 -0.13987052085E+02  0.27166628351E+02  0.30655519282E+02  0.19999997544E+01 0.  0.
         13    1    3    3    0    0  0.14482891592E+01  0.13987052085E+02 -0.49196806916E+02  0.51167100194E+02  0.10566000000E+00 0. -1.
         13    1    4    4    0    0  0.17029754489E-01 -0.27219751852E+01  0.56601352598E+01  0.62815391519E+01  0.10566000000E+00 0. -1.
        -13    1    4    4    0    0 -0.14190216901E+01 -0.83381949977E+01  0.17191118814E+02  0.19159458460E+02  0.10566000000E+00 0.  1.
         14    1    4    4    0    0 -0.46297223593E-01 -0.29268819020E+01  0.43153742770E+01  0.52145216705E+01  0.00000000000E+00 0. -1.
<mgrwt>
<rscale>  0 0.78801093E+02</rscale>
<asrwt>0</asrwt>
<pdfrwt beam="1">  1        1 0.79886768E-02 0.78801093E+02</pdfrwt>
<pdfrwt beam="2">  1       -2 0.45994185E-02 0.78801093E+02</pdfrwt>
<totfact> 0.13801360E+05</totfact>
</mgrwt>
</event>
<event>
 8    1  0.1372337E-020  0.8015117E+02  0.7818608E-02  0.1328623E+00
         -2   -1    0    0    0  501 -0.00000000000E+00  0.00000000000E+00  0.55622023574E+01  0.55622029419E+01  0.25500000000E-02 0.  1.
          1   -1    0    0  501    0  0.00000000000E+00 -0.00000000000E+00 -0.28874394004E+03  0.28874394008E+03  0.50400000000E-02 0. -1.
        -24    2    1    2    0    0  0.00000000000E+00  0.00000000000E+00 -0.28318173768E+03  0.29430614303E+03  0.80151165094E+02 0.  0.
         66    2    3    3    0    0 -0.22112944917E+02  0.30607214242E+02 -0.92653441804E+02  0.10007219493E+03  0.20000061003E+01 0.  0.
         13    1    3    3    0    0  0.22112944917E+02 -0.30607214242E+02 -0.19052829588E+03  0.19423394809E+03  0.10566000000E+00 0. -1.
         13    1    4    4    0    0 -0.12561943894E+01  0.15201672546E+01 -0.54967954246E+01  0.58407924806E+01  0.10566000000E+00 0. -1.
        -13    1    4    4    0    0 -0.17052618940E+02  0.22823372606E+02 -0.68753872465E+02  0.74423143529E+02  0.10566000000E+00 0.  1.
         14    1    4    4    0    0 -0.38041315877E+01  0.62636743816E+01 -0.18402773914E+02  0.19808258925E+02  0.00000000000E+00 0. -1.
<mgrwt>
<rscale>  0 0.80151165E+02</rscale>
<asrwt>0</asrwt>
<pdfrwt beam="1">  1        1 0.44422133E-01 0.80151165E+02</pdfrwt>
<pdfrwt beam="2">  1       -2 0.85572371E-03 0.80151165E+02</pdfrwt>
<totfact> 0.17821086E+05</totfact>
</mgrwt>
</event>
<event>
 8    1  0.1372337E-020  0.7899418E+02  0.7818608E-02  0.1331930E+00
         -2   -1    0    0    0  501 -0.00000000000E+00  0.00000000000E+00  0.25849949786E+02  0.25849949912E+02  0.25500000000E-02 0.  1.
          1   -1    0    0  501    0  0.00000000000E+00 -0.00000000000E+00 -0.60349063431E+02  0.60349063641E+02  0.50400000000E-02 0. -1.
        -24    2    1    2    0    0 -0.35527136788E-14  0.17763568394E-14 -0.34499113644E+02  0.86199013553E+02  0.78994183934E+02 0.  0.
         66    2    3    3    0    0 -0.31307149766E+02  0.12300717063E+02  0.52767415848E+01  0.34107026742E+02  0.20000011793E+01 0.  0.
         13    1    3    3    0    0  0.31307149766E+02 -0.12300717063E+02 -0.39775855229E+02  0.52091986811E+02  0.10566000000E+00 0. -1.
         13    1    4    4    0    0 -0.18780287607E+00  0.17711701649E+00  0.81718191830E-01  0.29065831532E+00  0.10566000000E+00 0. -1.
        -13    1    4    4    0    0 -0.21770789146E+02  0.88260173588E+01  0.32790073417E+01  0.23719799655E+02  0.10566000000E+00 0.  1.
         14    1    4    4    0    0 -0.93485577434E+01  0.32975826874E+01  0.19160160513E+01  0.10096568772E+02  0.00000000000E+00 0. -1.
<mgrwt>
<rscale>  0 0.78994184E+02</rscale>
<asrwt>0</asrwt>
<pdfrwt beam="1">  1        1 0.92844713E-02 0.78994184E+02</pdfrwt>
<pdfrwt beam="2">  1       -2 0.39769154E-02 0.78994184E+02</pdfrwt>
<totfact> 0.14031065E+05</totfact>
</mgrwt>
</event>
<event>
 8    1  0.1372337E-020  0.7758806E+02  0.7818608E-02  0.1336039E+00
         -2   -1    0    0    0  501 -0.00000000000E+00  0.00000000000E+00  0.54045220937E+02  0.54045220997E+02  0.25500000000E-02 0.  1.
          1   -1    0    0  501    0  0.00000000000E+00 -0.00000000000E+00 -0.27846620110E+02  0.27846620566E+02  0.50400000000E-02 0. -1.
        -24    2    1    2    0    0  0.00000000000E+00  0.00000000000E+00  0.26198600827E+02  0.81891841563E+02  0.77588059837E+02 0.  0.
         66    2    3    3    0    0  0.30520670816E+02  0.23733309426E+02  0.16128636799E+02  0.41939411563E+02  0.19999984633E+01 0.  0.
         13    1    3    3    0    0 -0.30520670816E+02 -0.23733309426E+02  0.10069964028E+02  0.39952430000E+02  0.10566000000E+00 0. -1.
         13    1    4    4    0    0  0.15123495325E+01  0.84705280134E+00  0.78080138647E+00  0.19040783590E+01  0.10566000000E+00 0. -1.
        -13    1    4    4    0    0  0.17666393300E+02  0.13058323075E+02  0.90612111651E+01  0.23764216073E+02  0.10566000000E+00 0.  1.
        -14    1    4    4    0    0  0.11341927984E+02  0.98279335499E+01  0.62866242470E+01  0.16271117130E+02  0.00000000000E+00 0.  1.
<mgrwt>
<rscale>  0 0.77588060E+02</rscale>
<asrwt>0</asrwt>
<pdfrwt beam="1">  1        1 0.42840954E-02 0.77588060E+02</pdfrwt>
<pdfrwt beam="2">  1       -2 0.83146494E-02 0.77588060E+02</pdfrwt>
<totfact> 0.13034354E+05</totfact>
</mgrwt>
</event>
<event>
 8    1  0.1372337E-020  0.8303221E+02  0.7818608E-02  0.1320660E+00
          1   -1    0    0  501    0  0.00000000000E+00  0.00000000000E+00  0.17399894875E+03  0.17399894882E+03  0.50400000000E-02 0. -1.
         -2   -1    0    0    0  501 -0.00000000000E+00 -0.00000000000E+00 -0.99057319537E+01  0.99057322819E+01  0.25500000000E-02 0.  1.
        -24    2    1    2    0    0  0.00000000000E+00  0.00000000000E+00  0.16409321679E+03  0.18390468110E+03  0.83032210218E+02 0.  0.
         66    2    3    3    0    0  0.35179588457E+02 -0.15016901305E+02  0.46485693174E+02  0.60233134072E+02  0.20000003683E+01 0.  0.
         13    1    3    3    0    0 -0.35179588457E+02  0.15016901305E+02  0.11760752362E+03  0.12367154703E+03  0.10566000000E+00 0. -1.
         13    1    4    4    0    0  0.55941656175E+01 -0.25032241056E+01  0.65661805194E+01  0.89825781671E+01  0.10566000000E+00 0. -1.
        -13    1    4    4    0    0  0.24802223368E+02 -0.10185078576E+02  0.33752815236E+02  0.43106261842E+02  0.10566000000E+00 0.  1.
        -14    1    4    4    0    0  0.47831994713E+01 -0.23285986240E+01  0.61666974194E+01  0.81442940637E+01  0.00000000000E+00 0.  1.
<mgrwt>
<rscale>  0 0.83032210E+02</rscale>
<asrwt>0</asrwt>
<pdfrwt beam="1">  1        1 0.26769067E-01 0.83032210E+02</pdfrwt>
<pdfrwt beam="2">  1       -2 0.15239589E-02 0.83032210E+02</pdfrwt>
<totfact> 0.14698899E+05</totfact>
</mgrwt>
</event>
<event>
 8    1  0.1372337E-020  0.7879123E+02  0.7818608E-02  0.1332517E+00
          1   -1    0    0  501    0  0.00000000000E+00  0.00000000000E+00  0.24912914086E+03  0.24912914091E+03  0.50400000000E-02 0. -1.
         -2   -1    0    0    0  501 -0.00000000000E+00 -0.00000000000E+00 -0.62297589549E+01  0.62297594768E+01  0.25500000000E-02 0.  1.
        -24    2    1    2    0    0  0.00000000000E+00 -0.71054273576E-14  0.24289938190E+03  0.25535890039E+03  0.78791232237E+02 0.  0.
         66    2    3    3    0    0 -0.17030298032E+02 -0.32804151778E+02  0.77581248294E+02  0.85959254906E+02  0.19999980216E+01 0.  0.
         13    1    3    3    0    0  0.17030298032E+02  0.32804151778E+02  0.16531813361E+03  0.16939964548E+03  0.10566000000E+00 0. -1.
         13    1    4    4    0    0 -0.93659159742E+00 -0.11222957594E+01  0.27014847822E+01  0.30734240931E+01  0.10566000000E+00 0. -1.
        -13    1    4    4    0    0 -0.12596120795E+02 -0.24302697147E+02  0.57863292881E+02  0.64011367543E+02  0.10566000000E+00 0.  1.
         14    1    4    4    0    0 -0.34975856391E+01 -0.73791588721E+01  0.17016470631E+02  0.18874463269E+02  0.00000000000E+00 0. -1.
<mgrwt>
<rscale>  0 0.78791232E+02</rscale>
<asrwt>0</asrwt>
<pdfrwt beam="1">  1        1 0.38327553E-01 0.78791232E+02</pdfrwt>
<pdfrwt beam="2">  1       -2 0.95842469E-03 0.78791232E+02</pdfrwt>
<totfact> 0.18117802E+05</totfact>
</mgrwt>
</event>
<event>
 8    1  0.1372337E-020  0.8177124E+02  0.7818608E-02  0.1324099E+00
         -2   -1    0    0    0  501 -0.00000000000E+00  0.00000000000E+00  0.25148321742E+02  0.25148321872E+02  0.25500000000E-02 0.  1.
          1   -1    0    0  501    0  0.00000000000E+00 -0.00000000000E+00 -0.66470999618E+02  0.66470999809E+02  0.50400000000E-02 0. -1.
        -24    2    1    2    0    0  0.17763568394E-14 -0.35527136788E-14 -0.41322677876E+02  0.91619321681E+02  0.81771244325E+02 0.  0.
         66    2    3    3    0    0 -0.82456785767E+01 -0.20592020405E+02  0.17775471133E+02  0.28495436346E+02  0.19999997475E+01 0.  0.
         13    1    3    3    0    0  0.82456785767E+01  0.20592020405E+02 -0.59098149008E+02  0.63123885335E+02  0.10566000000E+00 0. -1.
         13    1    4    4    0    0 -0.53510344907E+00 -0.19791283789E+01  0.10978845377E+01  0.23280462485E+01  0.10566000000E+00 0. -1.
        -13    1    4    4    0    0 -0.39851276768E+00 -0.97834524283E+00  0.10897857565E+01  0.15214364498E+01  0.10566000000E+00 0.  1.
        -14    1    4    4    0    0 -0.73120623600E+01 -0.17634546783E+02  0.15587800838E+02  0.24645953647E+02  0.00000000000E+00 0.  1.
<mgrwt>
<rscale>  0 0.81771244E+02</rscale>
<asrwt>0</asrwt>
<pdfrwt beam="1">  1        1 0.10226308E-01 0.81771244E+02</pdfrwt>
<pdfrwt beam="2">  1       -2 0.38689726E-02 0.81771244E+02</pdfrwt>
<totfact> 0.12954161E+05</totfact>
</mgrwt>
</event>
<event>
 8    1  0.1372337E-020  0.7926238E+02  0.7818608E-02  0.1331158E+00
          1   -1    0    0  501    0  0.00000000000E+00  0.00000000000E+00  0.19103624090E+03  0.19103624097E+03  0.50400000000E-02 0. -1.
         -2   -1    0    0    0  501 -0.00000000000E+00 -0.00000000000E+00 -0.82216399067E+01  0.82216403022E+01  0.25500000000E-02 0.  1.
        -24    2    1    2    0    0  0.00000000000E+00  0.00000000000E+00  0.18281460100E+03  0.19925788127E+03  0.79262380178E+02 0.  0.
         66    2    3    3    0    0  0.27916687257E+02 -0.22131790632E+02  0.47961844493E+02  0.59778726254E+02  0.20000003500E+01 0.  0.
         13    1    3    3    0    0 -0.27916687257E+02  0.22131790632E+02  0.13485275650E+03  0.13947915502E+03  0.10566000000E+00 0. -1.
         13    1    4    4    0    0  0.11324961290E+02 -0.87524962096E+01  0.20276923679E+02  0.24819865754E+02  0.10566000000E+00 0. -1.
        -13    1    4    4    0    0  0.77090180110E+01 -0.66425454919E+01  0.13994012109E+02  0.17303060661E+02  0.10566000000E+00 0.  1.
        -14    1    4    4    0    0  0.88827079555E+01 -0.67367489302E+01  0.13690908706E+02  0.17655799839E+02  0.00000000000E+00 0.  1.
<mgrwt>
<rscale>  0 0.79262380E+02</rscale>
<asrwt>0</asrwt>
<pdfrwt beam="1">  1        1 0.29390188E-01 0.79262380E+02</pdfrwt>
<pdfrwt beam="2">  1       -2 0.12648678E-02 0.79262380E+02</pdfrwt>
<totfact> 0.16938190E+05</totfact>
</mgrwt>
</event>
<event>
 8    1  0.1372337E-020  0.7896751E+02  0.7818608E-02  0.1332007E+00
         -2   -1    0    0    0  501 -0.00000000000E+00  0.00000000000E+00  0.31120915137E+03  0.31120915138E+03  0.25500000000E-02 0.  1.
          1   -1    0    0  501    0  0.00000000000E+00 -0.00000000000E+00 -0.50093854946E+01  0.50093880300E+01  0.50400000000E-02 0. -1.
        -24    2    1    2    0    0  0.00000000000E+00  0.00000000000E+00  0.30619976588E+03  0.31621853941E+03  0.78967512591E+02 0.  0.
         66    2    3    3    0    0  0.20367917393E+02  0.32678342802E+02  0.18769994576E+03  0.19161940346E+03  0.19999995718E+01 0.  0.
         13    1    3    3    0    0 -0.20367917393E+02 -0.32678342802E+02  0.11849982011E+03  0.12459913595E+03  0.10566000000E+00 0. -1.
         13    1    4    4    0    0  0.12086772568E+01  0.24169274142E+01  0.14619661528E+02  0.14867686641E+02  0.10566000000E+00 0. -1.
        -13    1    4    4    0    0  0.20239055166E+01  0.26822739590E+01  0.17329898765E+02  0.17652969789E+02  0.10566000000E+00 0.  1.
        -14    1    4    4    0    0  0.17135334620E+02  0.27579141429E+02  0.15575038547E+03  0.15909874703E+03  0.00000000000E+00 0.  1.
<mgrwt>
<rscale>  0 0.78967513E+02</rscale>
<asrwt>0</asrwt>
<pdfrwt beam="1">  1        1 0.77067456E-03 0.78967513E+02</pdfrwt>
<pdfrwt beam="2">  1       -2 0.47878351E-01 0.78967513E+02</pdfrwt>
<totfact> 0.71213160E+04</totfact>
</mgrwt>
</event>
<event>
 8    1  0.1372337E-020  0.7941199E+02  0.7818608E-02  0.1330728E+00
         -2   -1    0    0    0  501 -0.00000000000E+00  0.00000000000E+00  0.12861170468E+03  0.12861170470E+03  0.25500000000E-02 0.  1.
          1   -1    0    0  501    0  0.00000000000E+00 -0.00000000000E+00 -0.12258340408E+02  0.12258341444E+02  0.50400000000E-02 0. -1.
        -24    2    1    2    0    0  0.00000000000E+00  0.00000000000E+00  0.11635336427E+03  0.14087004615E+03  0.79411992322E+02 0.  0.
         66    2    3    3    0    0 -0.38929713163E+02  0.67160161521E+01  0.64835139194E+02  0.75948816037E+02  0.19999858096E+01 0.  0.
         13    1    3    3    0    0  0.38929713163E+02 -0.67160161521E+01  0.51518225074E+02  0.64921230108E+02  0.10566000000E+00 0. -1.
         13    1    4    4    0    0 -0.12823547702E+01  0.55355232065E-01  0.21898062345E+01  0.25404553408E+01  0.10566000000E+00 0. -1.
        -13    1    4    4    0    0 -0.28832768627E+02  0.45042284870E+01  0.48478039333E+02  0.56583991398E+02  0.10566000000E+00 0.  1.
        -14    1    4    4    0    0 -0.88145897658E+01  0.21564324330E+01  0.14167293626E+02  0.16824369298E+02  0.00000000000E+00 0.  1.
<mgrwt>
<rscale>  0 0.79411992E+02</rscale>
<asrwt>0</asrwt>
<pdfrwt beam="1">  1        1 0.18858986E-02 0.79411992E+02</pdfrwt>
<pdfrwt beam="2">  1       -2 0.19786417E-01 0.79411992E+02</pdfrwt>
<totfact> 0.10104479E+05</totfact>
</mgrwt>
</event>
<event>
 8    1  0.1372337E-020  0.8239786E+02  0.7818608E-02  0.1322381E+00
          1   -1    0    0  501    0  0.00000000000E+00  0.00000000000E+00  0.30016931961E+02  0.30016932384E+02  0.50400000000E-02 0. -1.
         -2   -1    0    0    0  501 -0.00000000000E+00 -0.00000000000E+00 -0.56546484349E+02  0.56546484407E+02  0.25500000000E-02 0.  1.
        -24    2    1    2    0    0  0.17763568394E-14  0.71054273576E-14 -0.26529552388E+02  0.86563416790E+02  0.82397863907E+02 0.  0.
         66    2    3    3    0    0  0.10802432268E+02  0.33177694173E+02 -0.36238534989E+02  0.50345638826E+02  0.19999992715E+01 0.  0.
         13    1    3    3    0    0 -0.10802432268E+02 -0.33177694173E+02  0.97089826001E+01  0.36217777965E+02  0.10566000000E+00 0. -1.
         13    1    4    4    0    0  0.37821549667E+01  0.13787984358E+02 -0.15361208362E+02  0.20985497259E+02  0.10566000000E+00 0. -1.
        -13    1    4    4    0    0  0.33220347103E+01  0.10324992673E+02 -0.11344840015E+02  0.15695793937E+02  0.10566000000E+00 0.  1.
        -14    1    4    4    0    0  0.36982425910E+01  0.90647171415E+01 -0.95324866122E+01  0.13664347629E+02  0.00000000000E+00 0.  1.
<mgrwt>
<rscale>  0 0.82397864E+02</rscale>
<asrwt>0</asrwt>
<pdfrwt beam="1">  1        1 0.46179896E-02 0.82397864E+02</pdfrwt>
<pdfrwt beam="2">  1       -2 0.86994591E-02 0.82397864E+02</pdfrwt>
<totfact> 0.11108630E+05</totfact>
</mgrwt>
</event>
<event>
 8    1  0.1372337E-020  0.8433041E+02  0.7818608E-02  0.1317193E+00
          1   -1    0    0  501    0  0.00000000000E+00  0.00000000000E+00  0.19809103510E+02  0.19809104151E+02  0.50400000000E-02 0. -1.
         -2   -1    0    0    0  501 -0.00000000000E+00 -0.00000000000E+00 -0.89751899160E+02  0.89751899197E+02  0.25500000000E-02 0.  1.
        -24    2    1    2    0    0  0.00000000000E+00  0.00000000000E+00 -0.69942795651E+02  0.10956100335E+03  0.84330414389E+02 0.  0.
         66    2    3    3    0    0 -0.36644195269E+02 -0.90966838109E+00 -0.62002711366E+02  0.72055261841E+02  0.19999996982E+01 0.  0.
         13    1    3    3    0    0  0.36644195269E+02  0.90966838109E+00 -0.79400842844E+01  0.37505741506E+02  0.10566000000E+00 0. -1.
         13    1    4    4    0    0 -0.51699039999E+01  0.17142691467E+00 -0.79766642901E+01  0.95076617413E+01  0.10566000000E+00 0. -1.
        -13    1    4    4    0    0 -0.22107083111E+02 -0.59984925736E+00 -0.36827109507E+02  0.42957305566E+02  0.10566000000E+00 0.  1.
         14    1    4    4    0    0 -0.93672081578E+01 -0.48124603839E+00 -0.17198937569E+02  0.19590294534E+02  0.00000000000E+00 0. -1.
<mgrwt>
<rscale>  0 0.84330414E+02</rscale>
<asrwt>0</asrwt>
<pdfrwt beam="1">  1        1 0.30475545E-02 0.84330414E+02</pdfrwt>
<pdfrwt beam="2">  1       -2 0.13807984E-01 0.84330414E+02</pdfrwt>
<totfact> 0.95185232E+04</totfact>
</mgrwt>
</event>
<event>
 8    1  0.1372337E-020  0.7365399E+02  0.7818608E-02  0.1348091E+00
         -2   -1    0    0    0  501 -0.00000000000E+00  0.00000000000E+00  0.66284669797E+02  0.66284669846E+02  0.25500000000E-02 0.  1.
          1   -1    0    0  501    0  0.00000000000E+00 -0.00000000000E+00 -0.20460649831E+02  0.20460650452E+02  0.50400000000E-02 0. -1.
        -24    2    1    2    0    0  0.00000000000E+00  0.22204460493E-15  0.45824019966E+02  0.86745320298E+02  0.73653986910E+02 0.  0.
         66    2    3    3    0    0  0.16969513448E+02  0.14475146442E+01  0.61348546778E+02  0.63700108603E+02  0.19999897397E+01 0.  0.
         13    1    3    3    0    0 -0.16969513448E+02 -0.14475146442E+01 -0.15524526812E+02  0.23045211695E+02  0.10566000000E+00 0. -1.
         13    1    4    4    0    0  0.49806702483E+01  0.15296174410E+00  0.15607557555E+02  0.16384062081E+02  0.10566000000E+00 0.  1.
        -13    1    4    4    0    0  0.26570721133E+01  0.31848064583E+00  0.85418071587E+01  0.89518208041E+01  0.10566000000E+00 0. -1.
         14    1    4    4    0    0  0.93317710860E+01  0.97607225431E+00  0.37199182064E+02  0.38364225717E+02  0.00000000000E+00 0. -1.
<mgrwt>
<rscale>  0 0.73653987E+02</rscale>
<asrwt>0</asrwt>
<pdfrwt beam="1">  1        1 0.31477923E-02 0.73653987E+02</pdfrwt>
<pdfrwt beam="2">  1       -2 0.10197642E-01 0.73653987E+02</pdfrwt>
<totfact> 0.14320124E+05</totfact>
</mgrwt>
</event>
<event>
 8    1  0.1372337E-020  0.8473958E+02  0.7818608E-02  0.1316115E+00
         -2   -1    0    0    0  501 -0.00000000000E+00  0.00000000000E+00  0.12324616203E+03  0.12324616206E+03  0.25500000000E-02 0.  1.
          1   -1    0    0  501    0  0.00000000000E+00 -0.00000000000E+00 -0.14565964312E+02  0.14565965184E+02  0.50400000000E-02 0. -1.
        -24    2    1    2    0    0  0.22204460493E-15  0.00000000000E+00  0.10868019772E+03  0.13781212724E+03  0.84739583659E+02 0.  0.
         66    2    3    3    0    0 -0.93394348861E+00  0.21509924487E+02  0.11367223543E+03  0.11571052761E+03  0.19999977096E+01 0.  0.
         13    1    3    3    0    0  0.93394348861E+00 -0.21509924487E+02 -0.49920377066E+01  0.22101599634E+02  0.10566000000E+00 0. -1.
         13    1    4    4    0    0 -0.76792672757E+00  0.71591835710E+01  0.41181957362E+02  0.41806798456E+02  0.10566000000E+00 0. -1.
        -13    1    4    4    0    0  0.10321906395E+00  0.61678939945E+01  0.33444856889E+02  0.34009163278E+02  0.10566000000E+00 0.  1.
         14    1    4    4    0    0 -0.26923582499E+00  0.81828469212E+01  0.39045421176E+02  0.39894565876E+02  0.00000000000E+00 0. -1.
<mgrwt>
<rscale>  0 0.84739584E+02</rscale>
<asrwt>0</asrwt>
<pdfrwt beam="1">  1        1 0.22409177E-02 0.84739584E+02</pdfrwt>
<pdfrwt beam="2">  1       -2 0.18960948E-01 0.84739584E+02</pdfrwt>
<totfact> 0.86575209E+04</totfact>
</mgrwt>
</event>
<event>
 8    1  0.1372337E-020  0.7916662E+02  0.7818608E-02  0.1331433E+00
         -2   -1    0    0    0  501 -0.00000000000E+00  0.00000000000E+00  0.10258708964E+02  0.10258709281E+02  0.25500000000E-02 0.  1.
          1   -1    0    0  501    0  0.00000000000E+00 -0.00000000000E+00 -0.15273252138E+03  0.15273252146E+03  0.50400000000E-02 0. -1.
        -24    2    1    2    0    0  0.35527136788E-14  0.00000000000E+00 -0.14247381241E+03  0.16299123074E+03  0.79166622230E+02 0.  0.
         66    2    3    3    0    0  0.25006369425E+02 -0.12315810494E+02 -0.13493933851E+02  0.31033593836E+02  0.19999989095E+01 0.  0.
         13    1    3    3    0    0 -0.25006369425E+02  0.12315810494E+02 -0.12897987856E+03  0.13195763691E+03  0.10566000000E+00 0. -1.
         13    1    4    4    0    0  0.73990564369E+01 -0.36466652358E+01 -0.31290293528E+01  0.88230489189E+01  0.10566000000E+00 0. -1.
        -13    1    4    4    0    0  0.16754112089E+01 -0.58268049355E+00 -0.96158756106E+00  0.20204786437E+01  0.10566000000E+00 0.  1.
        -14    1    4    4    0    0  0.15931901779E+02 -0.80864647648E+01 -0.94033169369E+01  0.20190066273E+02  0.00000000000E+00 0.  1.
<mgrwt>
<rscale>  0 0.79166622E+02</rscale>
<asrwt>0</asrwt>
<pdfrwt beam="1">  1        1 0.23497309E-01 0.79166622E+02</pdfrwt>
<pdfrwt beam="2">  1       -2 0.15782631E-02 0.79166622E+02</pdfrwt>
<totfact> 0.16290266E+05</totfact>
</mgrwt>
</event>
<event>
 8    1  0.1372337E-020  0.8089279E+02  0.7818608E-02  0.1326537E+00
          1   -1    0    0  501    0  0.00000000000E+00  0.00000000000E+00  0.68158180183E+01  0.68158198817E+01  0.50400000000E-02 0. -1.
         -2   -1    0    0    0  501 -0.00000000000E+00 -0.00000000000E+00 -0.24001678327E+03  0.24001678329E+03  0.25500000000E-02 0.  1.
        -24    2    1    2    0    0  0.00000000000E+00  0.00000000000E+00 -0.23320096525E+03  0.24683260317E+03  0.80892791960E+02 0.  0.
         66    2    3    3    0    0 -0.18739744808E+02  0.20283339385E+02 -0.20674153889E+03  0.20858728581E+03  0.20000018901E+01 0.  0.
         13    1    3    3    0    0  0.18739744808E+02 -0.20283339385E+02 -0.26459426364E+02  0.38245317356E+02  0.10566000000E+00 0. -1.
         13    1    4    4    0    0 -0.58199232516E+01  0.67239800439E+01 -0.70047324466E+02  0.70609646955E+02  0.10566000000E+00 0. -1.
        -13    1    4    4    0    0 -0.63265667167E+01  0.75638799658E+01 -0.70694460432E+02  0.71378957868E+02  0.10566000000E+00 0.  1.
        -14    1    4    4    0    0 -0.65932548399E+01  0.59954793757E+01 -0.65999753993E+02  0.66598680989E+02  0.00000000000E+00 0.  1.
<mgrwt>
<rscale>  0 0.80892792E+02</rscale>
<asrwt>0</asrwt>
<pdfrwt beam="1">  1        1 0.10485877E-02 0.80892792E+02</pdfrwt>
<pdfrwt beam="2">  1       -2 0.36925653E-01 0.80892792E+02</pdfrwt>
<totfact> 0.76384466E+04</totfact>
</mgrwt>
</event>
<event>
 8    1  0.1372337E-020  0.8094946E+02  0.7818608E-02  0.1326378E+00
         -2   -1    0    0    0  501 -0.00000000000E+00  0.00000000000E+00  0.32140242310E+02  0.32140242412E+02  0.25500000000E-02 0.  1.
          1   -1    0    0  501    0  0.00000000000E+00 -0.00000000000E+00 -0.50970490242E+02  0.50970490492E+02  0.50400000000E-02 0. -1.
        -24    2    1    2    0    0  0.00000000000E+00  0.35527136788E-14 -0.18830247932E+02  0.83110732903E+02  0.80949463782E+02 0.  0.
         66    2    3    3    0    0  0.32452860824E+02 -0.20010268832E+02  0.44528807276E+01  0.38437314872E+02  0.19999983452E+01 0.  0.
         13    1    3    3    0    0 -0.32452860824E+02  0.20010268832E+02 -0.23283128660E+02  0.44673418031E+02  0.10566000000E+00 0. -1.
         13    1    4    4    0    0  0.94741559490E+01 -0.61037150899E+01  0.18078022760E+01  0.11414652073E+02  0.10566000000E+00 0.  1.
        -13    1    4    4    0    0  0.10332255232E+02 -0.63894596892E+01  0.18554132132E+01  0.12289605995E+02  0.10566000000E+00 0. -1.
        -14    1    4    4    0    0  0.12646449643E+02 -0.75170940532E+01  0.78966523840E+00  0.14733056803E+02  0.00000000000E+00 0.  1.
<mgrwt>
<rscale>  0 0.80949464E+02</rscale>
<asrwt>0</asrwt>
<pdfrwt beam="1">  1        1 0.78416139E-02 0.80949464E+02</pdfrwt>
<pdfrwt beam="2">  1       -2 0.49446527E-02 0.80949464E+02</pdfrwt>
<totfact> 0.12770842E+05</totfact>
</mgrwt>
</event>
<event>
 8    1  0.1372337E-020  0.7962212E+02  0.7818608E-02  0.1330127E+00
          1   -1    0    0  501    0  0.00000000000E+00  0.00000000000E+00  0.67062611231E+01  0.67062630170E+01  0.50400000000E-02 0. -1.
         -2   -1    0    0    0  501 -0.00000000000E+00 -0.00000000000E+00 -0.23633442992E+03  0.23633442993E+03  0.25500000000E-02 0.  1.
        -24    2    1    2    0    0 -0.35527136788E-14  0.17763568394E-14 -0.22962816880E+03  0.24304069295E+03  0.79622123339E+02 0.  0.
         66    2    3    3    0    0 -0.15787729770E+02  0.10792625172E+02 -0.22137982133E+03  0.22221331747E+03  0.20000000832E+01 0.  0.
         13    1    3    3    0    0  0.15787729770E+02 -0.10792625172E+02 -0.82483474676E+01  0.20827375480E+02  0.10566000000E+00 0. -1.
         13    1    4    4    0    0 -0.11137535729E+01  0.66726327317E+00 -0.17798282034E+02  0.17845887333E+02  0.10566000000E+00 0. -1.
        -13    1    4    4    0    0 -0.49584281586E+01  0.38274200981E+01 -0.79832334097E+02  0.80077761493E+02  0.10566000000E+00 0.  1.
        -14    1    4    4    0    0 -0.97155480382E+01  0.62979418010E+01 -0.12374920520E+03  0.12428966864E+03  0.00000000000E+00 0.  1.
<mgrwt>
<rscale>  0 0.79622123E+02</rscale>
<asrwt>0</asrwt>
<pdfrwt beam="1">  1        1 0.10317328E-02 0.79622123E+02</pdfrwt>
<pdfrwt beam="2">  1       -2 0.36359137E-01 0.79622123E+02</pdfrwt>
<totfact> 0.80140873E+04</totfact>
</mgrwt>
</event>
<event>
 8    1  0.1372337E-020  0.7740045E+02  0.7818608E-02  0.1336595E+00
          1   -1    0    0  501    0  0.00000000000E+00  0.00000000000E+00  0.45133385417E+01  0.45133413557E+01  0.50400000000E-02 0. -1.
         -2   -1    0    0    0  501 -0.00000000000E+00 -0.00000000000E+00 -0.33184014525E+03  0.33184014526E+03  0.25500000000E-02 0.  1.
        -24    2    1    2    0    0 -0.71054273576E-14  0.00000000000E+00 -0.32732680671E+03  0.33635348661E+03  0.77400449408E+02 0.  0.
         66    2    3    3    0    0 -0.36950934720E+02  0.11074318673E+02 -0.15172129613E+03  0.15656105458E+03  0.19999996328E+01 0.  0.
         13    1    3    3    0    0  0.36950934720E+02 -0.11074318673E+02 -0.17560551057E+03  0.17979243204E+03  0.10566000000E+00 0. -1.
         13    1    4    4    0    0 -0.89316825893E+01  0.33928199320E+01 -0.38619850173E+02  0.39784295550E+02  0.10566000000E+00 0.  1.
        -13    1    4    4    0    0 -0.14844424736E+01  0.57654194980E+00 -0.59735319927E+01  0.61830589987E+01  0.10566000000E+00 0.  1.
         14    1    4    4    0    0 -0.26534809657E+02  0.71049567909E+01 -0.10712791397E+03  0.11059370003E+03  0.00000000000E+00 0. -1.
<mgrwt>
<rscale>  0 0.77400449E+02</rscale>
<asrwt>0</asrwt>
<pdfrwt beam="1">  1        1 0.69436026E-03 0.77400449E+02</pdfrwt>
<pdfrwt beam="2">  1       -2 0.51052311E-01 0.77400449E+02</pdfrwt>
<totfact> 0.72293808E+04</totfact>
</mgrwt>
</event>
<event>
 8    1  0.1372337E-020  0.8343128E+02  0.7818608E-02  0.1319587E+00
          1   -1    0    0  501    0  0.00000000000E+00  0.00000000000E+00  0.23929198198E+03  0.23929198203E+03  0.50400000000E-02 0. -1.
         -2   -1    0    0    0  501 -0.00000000000E+00 -0.00000000000E+00 -0.72722646382E+01  0.72722650853E+01  0.25500000000E-02 0.  1.
        -24    2    1    2    0    0  0.71054273576E-14  0.35527136788E-14  0.23201971734E+03  0.24656424712E+03  0.83431281434E+02 0.  0.
         66    2    3    3    0    0  0.32226615476E+02  0.18284505311E+02  0.59591347663E+02  0.70199761709E+02  0.19999870721E+01 0.  0.
         13    1    3    3    0    0 -0.32226615476E+02 -0.18284505311E+02  0.17242836968E+03  0.17636448541E+03  0.10566000000E+00 0. -1.
         13    1    4    4    0    0  0.25880623501E+01  0.16830317139E+01  0.54636120341E+01  0.62763749866E+01  0.10566000000E+00 0. -1.
        -13    1    4    4    0    0  0.12148987015E+02  0.75178200592E+01  0.23539049763E+02  0.27535677433E+02  0.10566000000E+00 0.  1.
        -14    1    4    4    0    0  0.17489566111E+02  0.90836535377E+01  0.30588685866E+02  0.36387709289E+02  0.00000000000E+00 0.  1.
<mgrwt>
<rscale>  0 0.83431281E+02</rscale>
<asrwt>0</asrwt>
<pdfrwt beam="1">  1        1 0.36814149E-01 0.83431281E+02</pdfrwt>
<pdfrwt beam="2">  1       -2 0.11188100E-02 0.83431281E+02</pdfrwt>
<totfact> 0.15447251E+05</totfact>
</mgrwt>
</event>
<event>
 8    1  0.1372337E-020  0.8018371E+02  0.7818608E-02  0.1328531E+00
         -2   -1    0    0    0  501 -0.00000000000E+00  0.00000000000E+00  0.15123417237E+02  0.15123417452E+02  0.25500000000E-02 0.  1.
          1   -1    0    0  501    0  0.00000000000E+00 -0.00000000000E+00 -0.10628264425E+03  0.10628264437E+03  0.50400000000E-02 0. -1.
        -24    2    1    2    0    0  0.00000000000E+00  0.35527136788E-14 -0.91159227018E+02  0.12140606183E+03  0.80183708929E+02 0.  0.
         66    2    3    3    0    0  0.13563794634E+02  0.30637641615E+02 -0.12342128975E+02  0.35762686621E+02  0.19999995213E+01 0.  0.
         13    1    3    3    0    0 -0.13563794634E+02 -0.30637641615E+02 -0.78817098042E+02  0.85643375205E+02  0.10566000000E+00 0. -1.
         13    1    4    4    0    0  0.24532978159E+01  0.59155150084E+01 -0.17524894038E+01  0.66403592624E+01  0.10566000000E+00 0. -1.
        -13    1    4    4    0    0  0.94073484748E+01  0.19891841366E+02 -0.84324329903E+01  0.23564818022E+02  0.10566000000E+00 0.  1.
        -14    1    4    4    0    0  0.17031483436E+01  0.48302852406E+01 -0.21572065811E+01  0.55575093360E+01  0.00000000000E+00 0.  1.
<mgrwt>
<rscale>  0 0.80183709E+02</rscale>
<asrwt>0</asrwt>
<pdfrwt beam="1">  1        1 0.16351176E-01 0.80183709E+02</pdfrwt>
<pdfrwt beam="2">  1       -2 0.23266797E-02 0.80183709E+02</pdfrwt>
<totfact> 0.14759927E+05</totfact>
</mgrwt>
</event>
<event>
 8    1  0.1372337E-020  0.8017159E+02  0.7818608E-02  0.1328565E+00
          1   -1    0    0  501    0  0.00000000000E+00  0.00000000000E+00  0.98752613976E+01  0.98752626837E+01  0.50400000000E-02 0. -1.
         -2   -1    0    0    0  501 -0.00000000000E+00 -0.00000000000E+00 -0.16271679862E+03  0.16271679864E+03  0.25500000000E-02 0.  1.
        -24    2    1    2    0    0  0.00000000000E+00  0.00000000000E+00 -0.15284153722E+03  0.17259206132E+03  0.80171591798E+02 0.  0.
         66    2    3    3    0    0  0.19495238228E+02 -0.22820729277E+02 -0.13358864131E+03  0.13693346960E+03  0.20000032398E+01 0.  0.
         13    1    3    3    0    0 -0.19495238228E+02  0.22820729277E+02 -0.19252895914E+02  0.35658591719E+02  0.10566000000E+00 0. -1.
         13    1    4    4    0    0  0.12798654003E+02 -0.14398306826E+02 -0.86892795360E+02  0.89002729359E+02  0.10566000000E+00 0. -1.
        -13    1    4    4    0    0  0.23409017879E+01 -0.22878138744E+01 -0.13172458199E+02  0.13573456912E+02  0.10566000000E+00 0.  1.
         14    1    4    4    0    0  0.43556824368E+01 -0.61346085771E+01 -0.33523387748E+02  0.34357283332E+02  0.00000000000E+00 0. -1.
<mgrwt>
<rscale>  0 0.80171592E+02</rscale>
<asrwt>0</asrwt>
<pdfrwt beam="1">  1        1 0.15192712E-02 0.80171592E+02</pdfrwt>
<pdfrwt beam="2">  1       -2 0.25033352E-01 0.80171592E+02</pdfrwt>
<totfact> 0.91437773E+04</totfact>
</mgrwt>
</event>
<event>
 8    1  0.1372337E-020  0.8052680E+02  0.7818608E-02  0.1327563E+00
         -2   -1    0    0    0  501 -0.00000000000E+00  0.00000000000E+00  0.14352339811E+03  0.14352339813E+03  0.25500000000E-02 0.  1.
          1   -1    0    0  501    0  0.00000000000E+00 -0.00000000000E+00 -0.11295310725E+02  0.11295311850E+02  0.50400000000E-02 0. -1.
        -24    2    1    2    0    0  0.00000000000E+00  0.00000000000E+00  0.13222808739E+03  0.15481870998E+03  0.80526802168E+02 0.  0.
         66    2    3    3    0    0 -0.20621298834E+02  0.34346940692E+02  0.58913421944E+02  0.71272305911E+02  0.20000010856E+01 0.  0.
         13    1    3    3    0    0  0.20621298834E+02 -0.34346940692E+02  0.73314665442E+02  0.83546404072E+02  0.10566000000E+00 0. -1.
         13    1    4    4    0    0 -0.18043402754E+02  0.29472606145E+02  0.51731965389E+02  0.62212589585E+02  0.10566000000E+00 0. -1.
        -13    1    4    4    0    0 -0.13012222128E+01  0.23024845602E+01  0.36377283331E+01  0.44987604802E+01  0.10566000000E+00 0.  1.
         14    1    4    4    0    0 -0.12766738673E+01  0.25718499868E+01  0.35437282218E+01  0.45609558458E+01  0.00000000000E+00 0. -1.
<mgrwt>
<rscale>  0 0.80526802E+02</rscale>
<asrwt>0</asrwt>
<pdfrwt beam="1">  1        1 0.17377403E-02 0.80526802E+02</pdfrwt>
<pdfrwt beam="2">  1       -2 0.22080522E-01 0.80526802E+02</pdfrwt>
<totfact> 0.94264158E+04</totfact>
</mgrwt>
</event>
<event>
 8    1  0.1372337E-020  0.7903211E+02  0.7818608E-02  0.1331821E+00
         -2   -1    0    0    0  501 -0.00000000000E+00  0.00000000000E+00  0.41510327031E+03  0.41510327032E+03  0.25500000000E-02 0.  1.
          1   -1    0    0  501    0  0.00000000000E+00 -0.00000000000E+00 -0.37617572805E+01  0.37617606568E+01  0.50400000000E-02 0. -1.
        -24    2    1    2    0    0  0.00000000000E+00  0.00000000000E+00  0.41134151303E+03  0.41886503097E+03  0.79032106337E+02 0.  0.
         66    2    3    3    0    0  0.30615212986E+02  0.22443887540E+02  0.26349455545E+03  0.26622246357E+03  0.20000009585E+01 0.  0.
         13    1    3    3    0    0 -0.30615212986E+02 -0.22443887540E+02  0.14784695758E+03  0.15264256740E+03  0.10566000000E+00 0. -1.
         13    1    4    4    0    0  0.95165165632E+01  0.64690814050E+01  0.81557096329E+02  0.82364945379E+02  0.10566000000E+00 0. -1.
        -13    1    4    4    0    0  0.12929486181E+02  0.89327839297E+01  0.10862560568E+03  0.10975654702E+03  0.10566000000E+00 0.  1.
        -14    1    4    4    0    0  0.81692102422E+01  0.70420222053E+01  0.73311853441E+02  0.74100971166E+02  0.00000000000E+00 0.  1.
<mgrwt>
<rscale>  0 0.79032106E+02</rscale>
<asrwt>0</asrwt>
<pdfrwt beam="1">  1        1 0.57873201E-03 0.79032106E+02</pdfrwt>
<pdfrwt beam="2">  1       -2 0.63862057E-01 0.79032106E+02</pdfrwt>
<totfact> 0.59482771E+04</totfact>
</mgrwt>
</event>
<event>
 8    1  0.1372337E-020  0.7939315E+02  0.7818608E-02  0.1330782E+00
          1   -1    0    0  501    0  0.00000000000E+00  0.00000000000E+00  0.93199469779E+01  0.93199483407E+01  0.50400000000E-02 0. -1.
         -2   -1    0    0    0  501 -0.00000000000E+00 -0.00000000000E+00 -0.16908013539E+03  0.16908013541E+03  0.25500000000E-02 0.  1.
        -24    2    1    2    0    0  0.00000000000E+00  0.00000000000E+00 -0.15976018841E+03  0.17840008375E+03  0.79393148826E+02 0.  0.
         66    2    3    3    0    0 -0.24842595129E+02  0.29600116091E+02 -0.10009050252E+03  0.10730997203E+03  0.19999994758E+01 0.  0.
         13    1    3    3    0    0  0.24842595129E+02 -0.29600116091E+02 -0.59669685895E+02  0.71090111719E+02  0.10566000000E+00 0. -1.
         13    1    4    4    0    0 -0.12440342772E+01  0.21667065550E+01 -0.69673304127E+01  0.74025060415E+01  0.10566000000E+00 0. -1.
        -13    1    4    4    0    0 -0.87831462063E+01  0.10218139818E+02 -0.34342224265E+02  0.36891104214E+02  0.10566000000E+00 0.  1.
         14    1    4    4    0    0 -0.14815414645E+02  0.17215269717E+02 -0.58780947839E+02  0.63016361776E+02  0.00000000000E+00 0. -1.
<mgrwt>
<rscale>  0 0.79393149E+02</rscale>
<asrwt>0</asrwt>
<pdfrwt beam="1">  1        1 0.14338382E-02 0.79393149E+02</pdfrwt>
<pdfrwt beam="2">  1       -2 0.26012326E-01 0.79393149E+02</pdfrwt>
<totfact> 0.92503534E+04</totfact>
</mgrwt>
</event>
<event>
 8    1  0.1372337E-020  0.7918734E+02  0.7818608E-02  0.1331374E+00
         -2   -1    0    0    0  501 -0.00000000000E+00  0.00000000000E+00  0.14376099960E+03  0.14376099962E+03  0.25500000000E-02 0.  1.
          1   -1    0    0  501    0  0.00000000000E+00 -0.00000000000E+00 -0.10904617038E+02  0.10904618203E+02  0.50400000000E-02 0. -1.
        -24    2    1    2    0    0  0.00000000000E+00  0.00000000000E+00  0.13285638256E+03  0.15466561782E+03  0.79187340842E+02 0.  0.
         66    2    3    3    0    0  0.25983349694E+02  0.29381981982E+02  0.76660343636E+02  0.86135031358E+02  0.20000035204E+01 0.  0.
         13    1    3    3    0    0 -0.25983349694E+02 -0.29381981982E+02  0.56196038921E+02  0.68530586463E+02  0.10566000000E+00 0. -1.
         13    1    4    4    0    0  0.15801407185E+02  0.17440354940E+02  0.44382135943E+02  0.50235800027E+02  0.10566000000E+00 0. -1.
        -13    1    4    4    0    0  0.80632716572E+01  0.93695599340E+01  0.24701071379E+02  0.27621714184E+02  0.10566000000E+00 0.  1.
         14    1    4    4    0    0  0.21186708521E+01  0.25720671081E+01  0.75771363137E+01  0.82775171462E+01  0.00000000000E+00 0. -1.
<mgrwt>
<rscale>  0 0.79187341E+02</rscale>
<asrwt>0</asrwt>
<pdfrwt beam="1">  1        1 0.16776336E-02 0.79187341E+02</pdfrwt>
<pdfrwt beam="2">  1       -2 0.22117076E-01 0.79187341E+02</pdfrwt>
<totfact> 0.98368268E+04</totfact>
</mgrwt>
</event>
<event>
 8    1  0.1372337E-020  0.8159400E+02  0.7818608E-02  0.1324588E+00
          1   -1    0    0  501    0  0.00000000000E+00  0.00000000000E+00  0.25676621386E+02  0.25676621880E+02  0.50400000000E-02 0. -1.
         -2   -1    0    0    0  501 -0.00000000000E+00 -0.00000000000E+00 -0.64821418639E+02  0.64821418690E+02  0.25500000000E-02 0.  1.
        -24    2    1    2    0    0  0.71054273576E-14  0.00000000000E+00 -0.39144797254E+02  0.90498040570E+02  0.81593996072E+02 0.  0.
         66    2    3    3    0    0  0.23867038976E+02 -0.21756028146E+02 -0.47188442218E+02  0.57216338412E+02  0.19999980230E+01 0.  0.
         13    1    3    3    0    0 -0.23867038976E+02  0.21756028146E+02  0.80436449645E+01  0.33281702158E+02  0.10566000000E+00 0. -1.
         13    1    4    4    0    0  0.53359822357E+01 -0.47082764681E+01 -0.98621576336E+01  0.12161985485E+02  0.10566000000E+00 0. -1.
        -13    1    4    4    0    0  0.23890667868E+01 -0.19722592195E+01 -0.55300715167E+01  0.63395821279E+01  0.10566000000E+00 0.  1.
         14    1    4    4    0    0  0.16141989954E+02 -0.15075492458E+02 -0.31796213068E+02  0.38714770799E+02  0.00000000000E+00 0. -1.
<mgrwt>
<rscale>  0 0.81593996E+02</rscale>
<asrwt>0</asrwt>
<pdfrwt beam="1">  1        1 0.39502495E-02 0.81593996E+02</pdfrwt>
<pdfrwt beam="2">  1       -2 0.99725259E-02 0.81593996E+02</pdfrwt>
<totfact> 0.11097287E+05</totfact>
</mgrwt>
</event>
<event>
 8    1  0.1372337E-020  0.7621895E+02  0.7818608E-02  0.1340137E+00
          1   -1    0    0  501    0  0.00000000000E+00  0.00000000000E+00  0.11421596426E+03  0.11421596437E+03  0.50400000000E-02 0. -1.
         -2   -1    0    0    0  501 -0.00000000000E+00 -0.00000000000E+00 -0.12715666964E+02  0.12715667219E+02  0.25500000000E-02 0.  1.
        -24    2    1    2    0    0 -0.44408920985E-15  0.00000000000E+00  0.10150029730E+03  0.12693163159E+03  0.76218952675E+02 0.  0.
         66    2    3    3    0    0 -0.34901701006E+01  0.28050151559E+02  0.82830216479E+01  0.29522884893E+02  0.19999987348E+01 0.  0.
         13    1    3    3    0    0  0.34901701006E+01 -0.28050151559E+02  0.93217275648E+02  0.97408746697E+02  0.10566000000E+00 0. -1.
         13    1    4    4    0    0 -0.64045728255E-01  0.36357609204E+00  0.14227450148E+00  0.40950640945E+00  0.10566000000E+00 0.  1.
        -13    1    4    4    0    0 -0.24890120053E+01  0.23006233545E+02  0.73140323064E+01  0.24269078996E+02  0.10566000000E+00 0.  1.
        -14    1    4    4    0    0 -0.93711236701E+00  0.46803419221E+01  0.82671483999E+00  0.48442994873E+01  0.00000000000E+00 0.  1.
<mgrwt>
<rscale>  0 0.76218953E+02</rscale>
<asrwt>0</asrwt>
<pdfrwt beam="1">  1        1 0.17571688E-01 0.76218953E+02</pdfrwt>
<pdfrwt beam="2">  1       -2 0.19562564E-02 0.76218953E+02</pdfrwt>
<totfact> 0.17122560E+05</totfact>
</mgrwt>
</event>
<event>
 8    1  0.1372337E-020  0.7838220E+02  0.7818608E-02  0.1333706E+00
          1   -1    0    0  501    0  0.00000000000E+00  0.00000000000E+00  0.70869209656E+02  0.70869209836E+02  0.50400000000E-02 0. -1.
         -2   -1    0    0    0  501 -0.00000000000E+00 -0.00000000000E+00 -0.21672916786E+02  0.21672916936E+02  0.25500000000E-02 0.  1.
        -24    2    1    2    0    0 -0.71054273576E-14  0.00000000000E+00  0.49196292870E+02  0.92542126771E+02  0.78382204582E+02 0.  0.
         66    2    3    3    0    0 -0.24895975520E+02 -0.30213808534E+02  0.23292135431E+02  0.45598326755E+02  0.20000016721E+01 0.  0.
         13    1    3    3    0    0  0.24895975520E+02  0.30213808534E+02  0.25904157440E+02  0.46943800016E+02  0.10566000000E+00 0. -1.
         13    1    4    4    0    0 -0.37480161113E+01 -0.54248033807E+01  0.35701987755E+01  0.74989065751E+01  0.10566000000E+00 0.  1.
        -13    1    4    4    0    0 -0.15115025988E+01 -0.19633274847E+01  0.12827064756E+01  0.27920950658E+01  0.10566000000E+00 0. -1.
        -14    1    4    4    0    0 -0.19636456810E+02 -0.22825677669E+02  0.18439230179E+02  0.35307325114E+02  0.00000000000E+00 0.  1.
<mgrwt>
<rscale>  0 0.78382205E+02</rscale>
<asrwt>0</asrwt>
<pdfrwt beam="1">  1        1 0.10902955E-01 0.78382205E+02</pdfrwt>
<pdfrwt beam="2">  1       -2 0.33342950E-02 0.78382205E+02</pdfrwt>
<totfact> 0.14695681E+05</totfact>
</mgrwt>
</event>
<event>
 8    1  0.1372337E-020  0.8058377E+02  0.7818608E-02  0.1327403E+00
          1   -1    0    0  501    0  0.00000000000E+00  0.00000000000E+00  0.28668480589E+03  0.28668480593E+03  0.50400000000E-02 0. -1.
         -2   -1    0    0    0  501 -0.00000000000E+00 -0.00000000000E+00 -0.56627895042E+01  0.56627900783E+01  0.25500000000E-02 0.  1.
        -24    2    1    2    0    0  0.00000000000E+00  0.00000000000E+00  0.28102201639E+03  0.29234759601E+03  0.80583765119E+02 0.  0.
         66    2    3    3    0    0 -0.36965067901E+02 -0.50074843891E+01  0.19560951145E+03  0.19914460084E+03  0.19999827901E+01 0.  0.
         13    1    3    3    0    0  0.36965067901E+02  0.50074843891E+01  0.85412504940E+02  0.93202995172E+02  0.10566000000E+00 0. -1.
         13    1    4    4    0    0 -0.36230287294E+01 -0.85801937176E+00  0.19862892679E+02  0.20209111906E+02  0.10566000000E+00 0. -1.
        -13    1    4    4    0    0 -0.26587499524E+02 -0.27202702300E+01  0.13937475282E+03  0.14191415676E+03  0.10566000000E+00 0.  1.
        -14    1    4    4    0    0 -0.67545396478E+01 -0.14291947874E+01  0.36371865945E+02  0.37021332174E+02  0.00000000000E+00 0.  1.
<mgrwt>
<rscale>  0 0.80583765E+02</rscale>
<asrwt>0</asrwt>
<pdfrwt beam="1">  1        1 0.44105365E-01 0.80583765E+02</pdfrwt>
<pdfrwt beam="2">  1       -2 0.87119823E-03 0.80583765E+02</pdfrwt>
<totfact> 0.17545492E+05</totfact>
</mgrwt>
</event>
<event>
 8    1  0.1372337E-020  0.8050816E+02  0.7818608E-02  0.1327616E+00
         -2   -1    0    0    0  501 -0.00000000000E+00  0.00000000000E+00  0.30736783061E+02  0.30736783166E+02  0.25500000000E-02 0.  1.
          1   -1    0    0  501    0  0.00000000000E+00 -0.00000000000E+00 -0.52718295120E+02  0.52718295361E+02  0.50400000000E-02 0. -1.
        -24    2    1    2    0    0  0.00000000000E+00  0.00000000000E+00 -0.21981512060E+02  0.83455078528E+02  0.80508156479E+02 0.  0.
         66    2    3    3    0    0  0.38998070532E+02  0.65773221748E+01 -0.18634357501E+02  0.43764710932E+02  0.19999928255E+01 0.  0.
         13    1    3    3    0    0 -0.38998070532E+02 -0.65773221748E+01 -0.33471545590E+01  0.39690367596E+02  0.10566000000E+00 0. -1.
         13    1    4    4    0    0  0.96678097278E+00  0.26874617858E+00 -0.71366506741E+00  0.12358688530E+01  0.10566000000E+00 0. -1.
        -13    1    4    4    0    0  0.10989802890E+02  0.23266253806E+01 -0.50331111016E+01  0.12309846653E+02  0.10566000000E+00 0.  1.
        -14    1    4    4    0    0  0.27041486669E+02  0.39819506157E+01 -0.12887581332E+02  0.30218995426E+02  0.00000000000E+00 0.  1.
<mgrwt>
<rscale>  0 0.80508156E+02</rscale>
<asrwt>0</asrwt>
<pdfrwt beam="1">  1        1 0.81105070E-02 0.80508156E+02</pdfrwt>
<pdfrwt beam="2">  1       -2 0.47287359E-02 0.80508156E+02</pdfrwt>
<totfact> 0.13035806E+05</totfact>
</mgrwt>
</event>
<event>
 8    1  0.1372337E-020  0.7986242E+02  0.7818608E-02  0.1329442E+00
         -2   -1    0    0    0  501 -0.00000000000E+00  0.00000000000E+00  0.14935639803E+02  0.14935640021E+02  0.25500000000E-02 0.  1.
          1   -1    0    0  501    0  0.00000000000E+00 -0.00000000000E+00 -0.10675816784E+03  0.10675816796E+03  0.50400000000E-02 0. -1.
        -24    2    1    2    0    0 -0.35527136788E-14  0.00000000000E+00 -0.91822528041E+02  0.12169380798E+03  0.79862420736E+02 0.  0.
         66    2    3    3    0    0 -0.31307612652E+02  0.16556905714E+02 -0.17917141160E+02  0.39740680461E+02  0.19999998439E+01 0.  0.
         13    1    3    3    0    0  0.31307612652E+02 -0.16556905714E+02 -0.73905386881E+02  0.81953127523E+02  0.10566000000E+00 0. -1.
         13    1    4    4    0    0 -0.24050206528E+01  0.18098589803E+01 -0.17934344127E+01  0.35053223671E+01  0.10566000000E+00 0. -1.
        -13    1    4    4    0    0 -0.17506513734E+02  0.87521058560E+01 -0.95851908532E+01  0.21793678619E+02  0.10566000000E+00 0.  1.
         14    1    4    4    0    0 -0.11396078265E+02  0.59949408779E+01 -0.65385158944E+01  0.14441679475E+02  0.00000000000E+00 0. -1.
<mgrwt>
<rscale>  0 0.79862421E+02</rscale>
<asrwt>0</asrwt>
<pdfrwt beam="1">  1        1 0.16424333E-01 0.79862421E+02</pdfrwt>
<pdfrwt beam="2">  1       -2 0.22977908E-02 0.79862421E+02</pdfrwt>
<totfact> 0.14932012E+05</totfact>
</mgrwt>
</event>
<event>
 8    1  0.1372337E-020  0.8113990E+02  0.7818608E-02  0.1325847E+00
          1   -1    0    0  501    0  0.00000000000E+00  0.00000000000E+00  0.26972919984E+02  0.26972920455E+02  0.50400000000E-02 0. -1.
         -2   -1    0    0    0  501 -0.00000000000E+00 -0.00000000000E+00 -0.61021232230E+02  0.61021232283E+02  0.25500000000E-02 0.  1.
        -24    2    1    2    0    0  0.00000000000E+00  0.00000000000E+00 -0.34048312245E+02  0.87994152738E+02  0.81139899860E+02 0.  0.
         66    2    3    3    0    0 -0.97285837387E+01  0.81297003661E+01 -0.58799813834E+02  0.60184345753E+02  0.19999992816E+01 0.  0.
         13    1    3    3    0    0  0.97285837387E+01 -0.81297003661E+01  0.24751501589E+02  0.27809806985E+02  0.10566000000E+00 0. -1.
         13    1    4    4    0    0 -0.31653053044E+01  0.27032576454E+01 -0.17137298683E+02  0.17635898893E+02  0.10566000000E+00 0. -1.
        -13    1    4    4    0    0 -0.66294268456E+01  0.54299629088E+01 -0.41399023935E+02  0.42276756549E+02  0.10566000000E+00 0.  1.
         14    1    4    4    0    0  0.66148411315E-01 -0.35201881338E-02 -0.26349121608E+00  0.27169031082E+00  0.00000000000E+00 0. -1.
<mgrwt>
<rscale>  0 0.81139900E+02</rscale>
<asrwt>0</asrwt>
<pdfrwt beam="1">  1        1 0.41496801E-02 0.81139900E+02</pdfrwt>
<pdfrwt beam="2">  1       -2 0.93878818E-02 0.81139900E+02</pdfrwt>
<totfact> 0.11386513E+05</totfact>
</mgrwt>
</event>
<event>
 8    1  0.1372337E-020  0.8023904E+02  0.7818608E-02  0.1328374E+00
         -2   -1    0    0    0  501 -0.00000000000E+00  0.00000000000E+00  0.11307336145E+03  0.11307336147E+03  0.25500000000E-02 0.  1.
          1   -1    0    0  501    0  0.00000000000E+00 -0.00000000000E+00 -0.14234792378E+02  0.14234793271E+02  0.50400000000E-02 0. -1.
        -24    2    1    2    0    0  0.00000000000E+00 -0.88817841970E-15  0.98838569067E+02  0.12730815474E+03  0.80239039933E+02 0.  0.
         66    2    3    3    0    0  0.23509117235E+02  0.42895672669E+01  0.10053020507E+03  0.10335086406E+03  0.19999977608E+01 0.  0.
         13    1    3    3    0    0 -0.23509117235E+02 -0.42895672669E+01 -0.16916359987E+01  0.23957290684E+02  0.10566000000E+00 0. -1.
         13    1    4    4    0    0  0.82974687903E+01  0.16563528354E+01  0.32504241771E+02  0.33587622574E+02  0.10566000000E+00 0. -1.
        -13    1    4    4    0    0  0.13081457686E+02  0.19011268325E+01  0.58195106311E+02  0.59677637194E+02  0.10566000000E+00 0.  1.
        -14    1    4    4    0    0  0.21301907591E+01  0.73208759908E+00  0.98308569834E+01  0.10085604293E+02  0.00000000000E+00 0.  1.
<mgrwt>
<rscale>  0 0.80239040E+02</rscale>
<asrwt>0</asrwt>
<pdfrwt beam="1">  1        1 0.21899682E-02 0.80239040E+02</pdfrwt>
<pdfrwt beam="2">  1       -2 0.17395901E-01 0.80239040E+02</pdfrwt>
<totfact> 0.10202641E+05</totfact>
</mgrwt>
</event>
<event>
 8    1  0.1372337E-020  0.7739414E+02  0.7818608E-02  0.1336613E+00
          1   -1    0    0  501    0  0.00000000000E+00  0.00000000000E+00  0.22350950873E+02  0.22350951442E+02  0.50400000000E-02 0. -1.
         -2   -1    0    0    0  501 -0.00000000000E+00 -0.00000000000E+00 -0.66997748640E+02  0.66997748689E+02  0.25500000000E-02 0.  1.
        -24    2    1    2    0    0  0.17763568394E-14 -0.35527136788E-14 -0.44646797767E+02  0.89348700130E+02  0.77394144896E+02 0.  0.
         66    2    3    3    0    0 -0.12493284978E+02  0.26652790203E+02 -0.51292174504E+02  0.59172126581E+02  0.20000009068E+01 0.  0.
         13    1    3    3    0    0  0.12493284978E+02 -0.26652790203E+02  0.66453767377E+01  0.30176573549E+02  0.10566000000E+00 0. -1.
         13    1    4    4    0    0 -0.29409529612E+01  0.74564918213E+01 -0.14559318140E+02  0.16620270255E+02  0.10566000000E+00 0. -1.
        -13    1    4    4    0    0 -0.77049186785E+01  0.16115575030E+02 -0.31306994327E+02  0.36044647151E+02  0.10566000000E+00 0.  1.
         14    1    4    4    0    0 -0.18474133380E+01  0.30807233513E+01 -0.54258620373E+01  0.65072091757E+01  0.00000000000E+00 0. -1.
<mgrwt>
<rscale>  0 0.77394145E+02</rscale>
<asrwt>0</asrwt>
<pdfrwt beam="1">  1        1 0.34386079E-02 0.77394145E+02</pdfrwt>
<pdfrwt beam="2">  1       -2 0.10307346E-01 0.77394145E+02</pdfrwt>
<totfact> 0.12607270E+05</totfact>
</mgrwt>
</event>
<event>
 8    1  0.1372337E-020  0.8343349E+02  0.7818608E-02  0.1319581E+00
          1   -1    0    0  501    0  0.00000000000E+00  0.00000000000E+00  0.18859161274E+02  0.18859161948E+02  0.50400000000E-02 0. -1.
         -2   -1    0    0    0  501 -0.00000000000E+00 -0.00000000000E+00 -0.92278050995E+02  0.92278051030E+02  0.25500000000E-02 0.  1.
        -24    2    1    2    0    0 -0.35527136788E-14  0.17763568394E-14 -0.73418889721E+02  0.11113721298E+03  0.83433486926E+02 0.  0.
         66    2    3    3    0    0  0.16935046452E+02 -0.10845263184E+02 -0.85379627179E+02  0.87738795587E+02  0.19999954914E+01 0.  0.
         13    1    3    3    0    0 -0.16935046452E+02  0.10845263184E+02  0.11960737458E+02  0.23398417391E+02  0.10566000000E+00 0. -1.
         13    1    4    4    0    0  0.33062388538E+01 -0.28239545873E+01 -0.16959281927E+02  0.17508122183E+02  0.10566000000E+00 0. -1.
        -13    1    4    4    0    0  0.10782243538E+02 -0.67831989233E+01 -0.55068214559E+02  0.56522455556E+02  0.10566000000E+00 0.  1.
        -14    1    4    4    0    0  0.28465640604E+01 -0.12381096730E+01 -0.13352130693E+02  0.13708217847E+02  0.00000000000E+00 0.  1.
<mgrwt>
<rscale>  0 0.83433487E+02</rscale>
<asrwt>0</asrwt>
<pdfrwt beam="1">  1        1 0.29014095E-02 0.83433487E+02</pdfrwt>
<pdfrwt beam="2">  1       -2 0.14196623E-01 0.83433487E+02</pdfrwt>
<totfact> 0.97185985E+04</totfact>
</mgrwt>
</event>
<event>
 8    1  0.1372337E-020  0.8014580E+02  0.7818608E-02  0.1328638E+00
          1   -1    0    0  501    0  0.00000000000E+00  0.00000000000E+00  0.36229095847E+02  0.36229096198E+02  0.50400000000E-02 0. -1.
         -2   -1    0    0    0  501 -0.00000000000E+00 -0.00000000000E+00 -0.44324522229E+02  0.44324522303E+02  0.25500000000E-02 0.  1.
        -24    2    1    2    0    0  0.00000000000E+00 -0.88817841970E-15 -0.80954263817E+01  0.80553618501E+02  0.80145801669E+02 0.  0.
         66    2    3    3    0    0 -0.39824489470E+02 -0.37420763717E+01 -0.60196177647E+01  0.40499739256E+02  0.19999961671E+01 0.  0.
         13    1    3    3    0    0  0.39824489470E+02  0.37420763717E+01 -0.20758086170E+01  0.40053879245E+02  0.10566000000E+00 0. -1.
         13    1    4    4    0    0 -0.58809453750E+00 -0.46646133653E-01  0.25599723224E-01  0.59987534393E+00  0.10566000000E+00 0. -1.
        -13    1    4    4    0    0 -0.13494483820E+02 -0.10249380486E+01 -0.27572587649E+01  0.13811778724E+02  0.10566000000E+00 0.  1.
        -14    1    4    4    0    0 -0.25741911112E+02 -0.26704921895E+01 -0.32879587230E+01  0.26088085188E+02  0.00000000000E+00 0.  1.
<mgrwt>
<rscale>  0 0.80145802E+02</rscale>
<asrwt>0</asrwt>
<pdfrwt beam="1">  1        1 0.55737071E-02 0.80145802E+02</pdfrwt>
<pdfrwt beam="2">  1       -2 0.68191573E-02 0.80145802E+02</pdfrwt>
<totfact> 0.12428100E+05</totfact>
</mgrwt>
</event>
<event>
 8    1  0.1372337E-020  0.7990609E+02  0.7818608E-02  0.1329318E+00
         -2   -1    0    0    0  501 -0.00000000000E+00  0.00000000000E+00  0.32335364369E+01  0.32335374424E+01  0.25500000000E-02 0.  1.
          1   -1    0    0  501    0  0.00000000000E+00 -0.00000000000E+00 -0.49365319332E+03  0.49365319334E+03  0.50400000000E-02 0. -1.
        -24    2    1    2    0    0 -0.17763568394E-14 -0.71054273576E-14 -0.49041965688E+03  0.49688673078E+03  0.79906090982E+02 0.  0.
         66    2    3    3    0    0 -0.14375219560E+02 -0.36520009003E+02 -0.29100903928E+03  0.29365050476E+03  0.20000013972E+01 0.  0.
         13    1    3    3    0    0  0.14375219560E+02  0.36520009003E+02 -0.19941061759E+03  0.20323622602E+03  0.10566000000E+00 0. -1.
         13    1    4    4    0    0 -0.24354349953E+01 -0.45194084805E+01 -0.38627633883E+02  0.38967443591E+02  0.10566000000E+00 0.  1.
        -13    1    4    4    0    0 -0.71116148223E+01 -0.18436977021E+02 -0.14793912266E+03  0.14925311509E+03  0.10566000000E+00 0.  1.
        -14    1    4    4    0    0 -0.48281697425E+01 -0.13563623502E+02 -0.10444228274E+03  0.10542994608E+03  0.00000000000E+00 0.  1.
<mgrwt>
<rscale>  0 0.79906091E+02</rscale>
<asrwt>0</asrwt>
<pdfrwt beam="1">  1        1 0.75946586E-01 0.79906091E+02</pdfrwt>
<pdfrwt beam="2">  1       -2 0.49746761E-03 0.79906091E+02</pdfrwt>
<totfact> 0.19638898E+05</totfact>
</mgrwt>
</event>
<event>
 8    1  0.1372337E-020  0.8896091E+02  0.7818608E-02  0.1305388E+00
          1   -1    0    0  501    0  0.00000000000E+00  0.00000000000E+00  0.11156844372E+03  0.11156844383E+03  0.50400000000E-02 0. -1.
         -2   -1    0    0    0  501 -0.00000000000E+00 -0.00000000000E+00 -0.17733606027E+02  0.17733606210E+02  0.25500000000E-02 0.  1.
        -24    2    1    2    0    0  0.35527136788E-14 -0.35527136788E-14  0.93834837691E+02  0.12930205004E+03  0.88960909284E+02 0.  0.
         66    2    3    3    0    0 -0.20859826202E+02  0.29693973361E+02  0.96108814545E+01  0.37592997211E+02  0.19999984571E+01 0.  0.
         13    1    3    3    0    0  0.20859826202E+02 -0.29693973361E+02  0.84223956237E+02  0.91709052832E+02  0.10566000000E+00 0. -1.
         13    1    4    4    0    0 -0.15607446582E+02  0.23183029937E+02  0.75749336992E+01  0.28955760229E+02  0.10566000000E+00 0. -1.
        -13    1    4    4    0    0 -0.30757873372E+01  0.41690959894E+01  0.15065850393E+01  0.53965536807E+01  0.10566000000E+00 0.  1.
         14    1    4    4    0    0 -0.21765922827E+01  0.23418474348E+01  0.52936271601E+00  0.32406833011E+01  0.00000000000E+00 0. -1.
<mgrwt>
<rscale>  0 0.88960909E+02</rscale>
<asrwt>0</asrwt>
<pdfrwt beam="1">  1        1 0.17164376E-01 0.88960909E+02</pdfrwt>
<pdfrwt beam="2">  1       -2 0.27282471E-02 0.88960909E+02</pdfrwt>
<totfact> 0.11228627E+05</totfact>
</mgrwt>
</event>
<event>
 8    1  0.1372337E-020  0.8064694E+02  0.7818608E-02  0.1327225E+00
          1   -1    0    0  501    0  0.00000000000E+00  0.00000000000E+00  0.88878115402E+02  0.88878115545E+02  0.50400000000E-02 0. -1.
         -2   -1    0    0    0  501 -0.00000000000E+00 -0.00000000000E+00 -0.18294518948E+02  0.18294519126E+02  0.25500000000E-02 0.  1.
        -24    2    1    2    0    0  0.00000000000E+00  0.00000000000E+00  0.70583596454E+02  0.10717263467E+03  0.80646943736E+02 0.  0.
         66    2    3    3    0    0  0.29989816046E+02 -0.69843354709E+01  0.76667108327E+00  0.30866774865E+02  0.19999993940E+01 0.  0.
         13    1    3    3    0    0 -0.29989816046E+02  0.69843354709E+01  0.69816925370E+02  0.76305859806E+02  0.10566000000E+00 0. -1.
         13    1    4    4    0    0  0.10158068513E+02 -0.17863519557E+01  0.86177590141E+00  0.10350421777E+02  0.10566000000E+00 0. -1.
        -13    1    4    4    0    0  0.18222108831E+02 -0.49265286621E+01  0.59068972754E-01  0.18876720798E+02  0.10566000000E+00 0.  1.
        -14    1    4    4    0    0  0.16096387030E+01 -0.27145485307E+00 -0.15417379089E+00  0.16396322909E+01  0.00000000000E+00 0.  1.
<mgrwt>
<rscale>  0 0.80646944E+02</rscale>
<asrwt>0</asrwt>
<pdfrwt beam="1">  1        1 0.13673556E-01 0.80646944E+02</pdfrwt>
<pdfrwt beam="2">  1       -2 0.28145414E-02 0.80646944E+02</pdfrwt>
<totfact> 0.14102239E+05</totfact>
</mgrwt>
</event>
<event>
 8    1  0.1372337E-020  0.8038708E+02  0.7818608E-02  0.1327957E+00
         -2   -1    0    0    0  501 -0.00000000000E+00  0.00000000000E+00  0.85178217338E+01  0.85178221155E+01  0.25500000000E-02 0.  1.
          1   -1    0    0  501    0  0.00000000000E+00 -0.00000000000E+00 -0.18966358388E+03  0.18966358395E+03  0.50400000000E-02 0. -1.
        -24    2    1    2    0    0 -0.71054273576E-14  0.00000000000E+00 -0.18114576214E+03  0.19818140606E+03  0.80387079592E+02 0.  0.
         66    2    3    3    0    0 -0.27270611493E+02 -0.16681135493E+02 -0.30666333200E+02  0.44343776620E+02  0.20000001084E+01 0.  0.
         13    1    3    3    0    0  0.27270611493E+02  0.16681135493E+02 -0.15047942894E+03  0.15383762944E+03  0.10566000000E+00 0. -1.
         13    1    4    4    0    0 -0.41362530591E+00 -0.31640903689E+00 -0.31696602352E+00  0.61873424666E+00  0.10566000000E+00 0. -1.
        -13    1    4    4    0    0 -0.16537065901E+02 -0.10295651743E+02 -0.17958086074E+02  0.26494886543E+02  0.10566000000E+00 0.  1.
         14    1    4    4    0    0 -0.10319920285E+02 -0.60690747137E+01 -0.12391281102E+02  0.17230155830E+02  0.00000000000E+00 0. -1.
<mgrwt>
<rscale>  0 0.80387080E+02</rscale>
<asrwt>0</asrwt>
<pdfrwt beam="1">  1        1 0.29179010E-01 0.80387080E+02</pdfrwt>
<pdfrwt beam="2">  1       -2 0.13104343E-02 0.80387080E+02</pdfrwt>
<totfact> 0.16293119E+05</totfact>
</mgrwt>
</event>
<event>
 8    1  0.1372337E-020  0.7310550E+02  0.7818608E-02  0.1349840E+00
          1   -1    0    0  501    0  0.00000000000E+00  0.00000000000E+00  0.11676536268E+02  0.11676537355E+02  0.50400000000E-02 0. -1.
         -2   -1    0    0    0  501 -0.00000000000E+00 -0.00000000000E+00 -0.11442635190E+03  0.11442635193E+03  0.25500000000E-02 0.  1.
        -24    2    1    2    0    0 -0.22204460493E-15  0.00000000000E+00 -0.10274981563E+03  0.12610288928E+03  0.73105499610E+02 0.  0.
         66    2    3    3    0    0  0.17616813346E+01 -0.36136738622E+02 -0.42765916555E+02  0.56052573710E+02  0.20000003430E+01 0.  0.
         13    1    3    3    0    0 -0.17616813346E+01  0.36136738622E+02 -0.59983899078E+02  0.70050315574E+02  0.10566000000E+00 0. -1.
         13    1    4    4    0    0  0.19836974353E+01 -0.28853069218E+02 -0.33703936806E+02  0.44411723442E+02  0.10566000000E+00 0. -1.
        -13    1    4    4    0    0  0.47033424716E-01 -0.35884045168E+01 -0.41331738754E+01  0.54747739167E+01  0.10566000000E+00 0.  1.
         14    1    4    4    0    0 -0.26904952536E+00 -0.36952648876E+01 -0.49288058732E+01  0.61660763515E+01  0.00000000000E+00 0. -1.
<mgrwt>
<rscale>  0 0.73105500E+02</rscale>
<asrwt>0</asrwt>
<pdfrwt beam="1">  1        1 0.17963904E-02 0.73105500E+02</pdfrwt>
<pdfrwt beam="2">  1       -2 0.17604053E-01 0.73105500E+02</pdfrwt>
<totfact> 0.12904467E+05</totfact>
</mgrwt>
</event>
<event>
 8    1  0.1372337E-020  0.7903664E+02  0.7818608E-02  0.1331808E+00
          1   -1    0    0  501    0  0.00000000000E+00  0.00000000000E+00  0.28427230155E+03  0.28427230159E+03  0.50400000000E-02 0. -1.
         -2   -1    0    0    0  501 -0.00000000000E+00 -0.00000000000E+00 -0.54936679308E+01  0.54936685226E+01  0.25500000000E-02 0.  1.
        -24    2    1    2    0    0  0.00000000000E+00 -0.71054273576E-14  0.27877863362E+03  0.28976597012E+03  0.79036642612E+02 0.  0.
         66    2    3    3    0    0  0.26490909231E+00  0.37114609705E+02  0.90000831916E+02  0.97374093963E+02  0.19999997700E+01 0.  0.
         13    1    3    3    0    0 -0.26490909231E+00 -0.37114609705E+02  0.18877780170E+03  0.19239187615E+03  0.10566000000E+00 0. -1.
         13    1    4    4    0    0 -0.60090383114E+00  0.61179992031E+01  0.14752048040E+02  0.15982023811E+02  0.10566000000E+00 0. -1.
        -13    1    4    4    0    0  0.38697562668E+00  0.24499718747E+02  0.59921813289E+02  0.64738094200E+02  0.10566000000E+00 0.  1.
         14    1    4    4    0    0  0.47883729677E+00  0.64968917554E+01  0.15326970587E+02  0.16653975952E+02  0.00000000000E+00 0. -1.
<mgrwt>
<rscale>  0 0.79036643E+02</rscale>
<asrwt>0</asrwt>
<pdfrwt beam="1">  1        1 0.43734212E-01 0.79036643E+02</pdfrwt>
<pdfrwt beam="2">  1       -2 0.84517950E-03 0.79036643E+02</pdfrwt>
<totfact> 0.18435918E+05</totfact>
</mgrwt>
</event>
<event>
 8    1  0.1372337E-020  0.7655741E+02  0.7818608E-02  0.1339115E+00
         -2   -1    0    0    0  501 -0.00000000000E+00  0.00000000000E+00  0.20864782235E+02  0.20864782391E+02  0.25500000000E-02 0.  1.
          1   -1    0    0  501    0  0.00000000000E+00 -0.00000000000E+00 -0.70226430459E+02  0.70226430640E+02  0.50400000000E-02 0. -1.
        -24    2    1    2    0    0  0.35527136788E-14  0.00000000000E+00 -0.49361648224E+02  0.91091213031E+02  0.76557408368E+02 0.  0.
         66    2    3    3    0    0 -0.19451868504E+02 -0.23698550018E+01  0.14391228087E+02  0.24394647880E+02  0.19999995725E+01 0.  0.
         13    1    3    3    0    0  0.19451868504E+02  0.23698550018E+01 -0.63752876311E+02  0.66696565151E+02  0.10566000000E+00 0. -1.
         13    1    4    4    0    0 -0.64520269445E+01 -0.13551349934E+01  0.51000768621E+01  0.83358857105E+01  0.10566000000E+00 0.  1.
        -13    1    4    4    0    0 -0.27245753029E+01 -0.54262427172E+00  0.24482933238E+01  0.37044643225E+01  0.10566000000E+00 0. -1.
        -14    1    4    4    0    0 -0.10275266257E+02 -0.47209573663E+00  0.68428579009E+01  0.12354297847E+02  0.00000000000E+00 0.  1.
<mgrwt>
<rscale>  0 0.76557408E+02</rscale>
<asrwt>0</asrwt>
<pdfrwt beam="1">  1        1 0.10804066E-01 0.76557408E+02</pdfrwt>
<pdfrwt beam="2">  1       -2 0.32099665E-02 0.76557408E+02</pdfrwt>
<totfact> 0.15647546E+05</totfact>
</mgrwt>
</event>
<event>
 8    1  0.1372337E-020  0.8050722E+02  0.7818608E-02  0.1327618E+00
         -2   -1    0    0    0  501 -0.00000000000E+00  0.00000000000E+00  0.12420758994E+04  0.12420758994E+04  0.25500000000E-02 0.  1.
          1   -1    0    0  501    0  0.00000000000E+00 -0.00000000000E+00 -0.13045476452E+01  0.13045573809E+01  0.50400000000E-02 0. -1.
        -24    2    1    2    0    0  0.00000000000E+00 -0.17763568394E-14  0.12407713518E+04  0.12433804568E+04  0.80507223130E+02 0.  0.
         66    2    3    3    0    0 -0.21049118774E+02 -0.13952115169E+02  0.11044048618E+04  0.11046953542E+04  0.20000032129E+01 0.  0.
         13    1    3    3    0    0  0.21049118774E+02  0.13952115169E+02  0.13636649005E+03  0.13868510263E+03  0.10566000000E+00 0. -1.
         13    1    4    4    0    0 -0.54102098458E+01 -0.30642935486E+01  0.30086797002E+03  0.30093222960E+03  0.10566000000E+00 0. -1.
        -13    1    4    4    0    0 -0.99873013491E+01 -0.73012261533E+01  0.52860005730E+03  0.52874482110E+03  0.10566000000E+00 0.  1.
         14    1    4    4    0    0 -0.56516075788E+01 -0.35865954669E+01  0.27493683444E+03  0.27501830351E+03  0.00000000000E+00 0. -1.
<mgrwt>
<rscale>  0 0.80507223E+02</rscale>
<asrwt>0</asrwt>
<pdfrwt beam="1">  1        1 0.20069964E-03 0.80507223E+02</pdfrwt>
<pdfrwt beam="2">  1       -2 0.19108931E+00 0.80507223E+02</pdfrwt>
<totfact> 0.19489763E+04</totfact>
</mgrwt>
</event>
<event>
 8    1  0.1372337E-020  0.7069711E+02  0.7818608E-02  0.1357738E+00
          1   -1    0    0  501    0  0.00000000000E+00  0.00000000000E+00  0.35544822851E+02  0.35544823208E+02  0.50400000000E-02 0. -1.
         -2   -1    0    0    0  501 -0.00000000000E+00 -0.00000000000E+00 -0.35153369366E+02  0.35153369459E+02  0.25500000000E-02 0.  1.
        -24    2    1    2    0    0  0.00000000000E+00 -0.17763568394E-14  0.39145348435E+00  0.70698192667E+02  0.70697108926E+02 0.  0.
         66    2    3    3    0    0 -0.30838058021E+02 -0.10087297445E+02 -0.13760552765E+02  0.35300031173E+02  0.19999990442E+01 0.  0.
         13    1    3    3    0    0  0.30838058021E+02  0.10087297445E+02  0.14152006249E+02  0.35398161494E+02  0.10566000000E+00 0. -1.
         13    1    4    4    0    0 -0.10183920281E+01 -0.63101386320E+00 -0.66152800321E+00  0.13726194494E+01  0.10566000000E+00 0. -1.
        -13    1    4    4    0    0 -0.15438580915E+02 -0.47145515867E+01 -0.63022846398E+01  0.17329360434E+02  0.10566000000E+00 0.  1.
        -14    1    4    4    0    0 -0.14381085078E+02 -0.47417319948E+01 -0.67967401215E+01  0.16598051290E+02  0.00000000000E+00 0.  1.
<mgrwt>
<rscale>  0 0.70697109E+02</rscale>
<asrwt>0</asrwt>
<pdfrwt beam="1">  1        1 0.54684343E-02 0.70697109E+02</pdfrwt>
<pdfrwt beam="2">  1       -2 0.54082107E-02 0.70697109E+02</pdfrwt>
<totfact> 0.17607266E+05</totfact>
</mgrwt>
</event>
<event>
 8    1  0.1372337E-020  0.7949293E+02  0.7818608E-02  0.1330497E+00
          1   -1    0    0  501    0  0.00000000000E+00  0.00000000000E+00  0.19289876713E+03  0.19289876720E+03  0.50400000000E-02 0. -1.
         -2   -1    0    0    0  501 -0.00000000000E+00 -0.00000000000E+00 -0.81896918298E+01  0.81896922268E+01  0.25500000000E-02 0.  1.
        -24    2    1    2    0    0  0.00000000000E+00 -0.17763568394E-14  0.18470907530E+03  0.20108845942E+03  0.79492930597E+02 0.  0.
         66    2    3    3    0    0  0.37592105172E+02 -0.12741419207E+02  0.88604555663E+02  0.97109615452E+02  0.19999985934E+01 0.  0.
         13    1    3    3    0    0 -0.37592105172E+02  0.12741419207E+02  0.96104519639E+02  0.10397884397E+03  0.10566000000E+00 0. -1.
         13    1    4    4    0    0  0.90521067969E+00 -0.33514321924E+00  0.29117055547E+01  0.30693518249E+01  0.10566000000E+00 0. -1.
        -13    1    4    4    0    0  0.10735899947E+02 -0.36866594332E+01  0.24413886217E+02  0.26923967199E+02  0.10566000000E+00 0.  1.
         14    1    4    4    0    0  0.25950994546E+02 -0.87196165545E+01  0.61278963891E+02  0.67116296429E+02  0.00000000000E+00 0. -1.
<mgrwt>
<rscale>  0 0.79492931E+02</rscale>
<asrwt>0</asrwt>
<pdfrwt beam="1">  1        1 0.29676731E-01 0.79492931E+02</pdfrwt>
<pdfrwt beam="2">  1       -2 0.12599527E-02 0.79492931E+02</pdfrwt>
<totfact> 0.16839558E+05</totfact>
</mgrwt>
</event>
<event>
 8    1  0.1372337E-020  0.8086341E+02  0.7818608E-02  0.1326619E+00
          1   -1    0    0  501    0  0.00000000000E+00  0.00000000000E+00  0.98147182556E+02  0.98147182685E+02  0.50400000000E-02 0. -1.
         -2   -1    0    0    0  501 -0.00000000000E+00 -0.00000000000E+00 -0.16655828778E+02  0.16655828973E+02  0.25500000000E-02 0.  1.
        -24    2    1    2    0    0 -0.35527136788E-14  0.71054273576E-14  0.81491353777E+02  0.11480301166E+03  0.80863407950E+02 0.  0.
         66    2    3    3    0    0 -0.22427425316E+02  0.33005094613E+02  0.31747570884E+02  0.51031695400E+02  0.20000004364E+01 0.  0.
         13    1    3    3    0    0  0.22427425316E+02 -0.33005094613E+02  0.49743782894E+02  0.63771316258E+02  0.10566000000E+00 0. -1.
         13    1    4    4    0    0 -0.18664839517E+01  0.32056090739E+01  0.32859226426E+01  0.49566262241E+01  0.10566000000E+00 0. -1.
        -13    1    4    4    0    0 -0.18685728984E+02  0.27749355370E+02  0.26341409833E+02  0.42580091911E+02  0.10566000000E+00 0.  1.
         14    1    4    4    0    0 -0.18752123798E+01  0.20501301689E+01  0.21202384075E+01  0.34949772650E+01  0.00000000000E+00 0. -1.
<mgrwt>
<rscale>  0 0.80863408E+02</rscale>
<asrwt>0</asrwt>
<pdfrwt beam="1">  1        1 0.15099567E-01 0.80863408E+02</pdfrwt>
<pdfrwt beam="2">  1       -2 0.25624352E-02 0.80863408E+02</pdfrwt>
<totfact> 0.14233500E+05</totfact>
</mgrwt>
</event>
<event>
 8    1  0.1372337E-020  0.7760506E+02  0.7818608E-02  0.1335989E+00
          1   -1    0    0  501    0  0.00000000000E+00  0.00000000000E+00  0.19787795926E+02  0.19787796567E+02  0.50400000000E-02 0. -1.
         -2   -1    0    0    0  501 -0.00000000000E+00 -0.00000000000E+00 -0.76089126859E+02  0.76089126902E+02  0.25500000000E-02 0.  1.
        -24    2    1    2    0    0  0.00000000000E+00  0.35527136788E-14 -0.56301330934E+02  0.95876923470E+02  0.77605055177E+02 0.  0.
         66    2    3    3    0    0  0.24896640433E+02  0.27279036282E+02 -0.42768649308E+02  0.56543309838E+02  0.19999996171E+01 0.  0.
         13    1    3    3    0    0 -0.24896640433E+02 -0.27279036282E+02 -0.13532681625E+02  0.39333613632E+02  0.10566000000E+00 0. -1.
         13    1    4    4    0    0  0.11013335096E+02  0.12581798530E+02 -0.18766577433E+02  0.25135449007E+02  0.10566000000E+00 0. -1.
        -13    1    4    4    0    0  0.73194012002E+01  0.70379114898E+01 -0.11428338493E+02  0.15288031816E+02  0.10566000000E+00 0.  1.
         14    1    4    4    0    0  0.65639041362E+01  0.76593262621E+01 -0.12573733382E+02  0.16119829015E+02  0.00000000000E+00 0. -1.
<mgrwt>
<rscale>  0 0.77605055E+02</rscale>
<asrwt>0</asrwt>
<pdfrwt beam="1">  1        1 0.30442764E-02 0.77605055E+02</pdfrwt>
<pdfrwt beam="2">  1       -2 0.11706019E-01 0.77605055E+02</pdfrwt>
<totfact> 0.12204170E+05</totfact>
</mgrwt>
</event>
<event>
 8    1  0.1372337E-020  0.8278239E+02  0.7818608E-02  0.1321336E+00
         -2   -1    0    0    0  501 -0.00000000000E+00  0.00000000000E+00  0.16680943580E+03  0.16680943582E+03  0.25500000000E-02 0.  1.
          1   -1    0    0  501    0  0.00000000000E+00 -0.00000000000E+00 -0.10270588491E+02  0.10270589728E+02  0.50400000000E-02 0. -1.
        -24    2    1    2    0    0  0.35527136788E-14  0.35527136788E-14  0.15653884731E+03  0.17708002555E+03  0.82782393848E+02 0.  0.
         66    2    3    3    0    0  0.26720413530E+02  0.30375074628E+02  0.96790750670E+02  0.10492413962E+03  0.20000005354E+01 0.  0.
         13    1    3    3    0    0 -0.26720413530E+02 -0.30375074628E+02  0.59748096640E+02  0.72155885927E+02  0.10566000000E+00 0. -1.
         13    1    4    4    0    0  0.61628090519E+01  0.75663958466E+01  0.23889081733E+02  0.25805618605E+02  0.10566000000E+00 0. -1.
        -13    1    4    4    0    0  0.14922826578E+02  0.15911688815E+02  0.53084460748E+02  0.57392018008E+02  0.10566000000E+00 0.  1.
         14    1    4    4    0    0  0.56347778999E+01  0.68969899657E+01  0.19817208189E+02  0.21726503009E+02  0.00000000000E+00 0. -1.
<mgrwt>
<rscale>  0 0.82782394E+02</rscale>
<asrwt>0</asrwt>
<pdfrwt beam="1">  1        1 0.15800908E-02 0.82782394E+02</pdfrwt>
<pdfrwt beam="2">  1       -2 0.25662988E-01 0.82782394E+02</pdfrwt>
<totfact> 0.83453196E+04</totfact>
</mgrwt>
</event>
<event>
 8    1  0.1372337E-020  0.8281584E+02  0.7818608E-02  0.1321245E+00
         -2   -1    0    0    0  501 -0.00000000000E+00  0.00000000000E+00  0.46495999102E+02  0.46495999172E+02  0.25500000000E-02 0.  1.
          1   -1    0    0  501    0  0.00000000000E+00 -0.00000000000E+00 -0.36876635430E+02  0.36876635775E+02  0.50400000000E-02 0. -1.
        -24    2    1    2    0    0  0.35527136788E-14  0.17763568394E-14  0.96193636713E+01  0.83372634947E+02  0.82815844501E+02 0.  0.
         66    2    3    3    0    0 -0.21632854612E+02 -0.99724632500E+01  0.38880513799E+02  0.45641262154E+02  0.20000089564E+01 0.  0.
         13    1    3    3    0    0  0.21632854612E+02  0.99724632500E+01 -0.29261150128E+02  0.37731372792E+02  0.10566000000E+00 0. -1.
         13    1    4    4    0    0 -0.71873473067E+01 -0.39978934748E+01  0.12801921052E+02  0.15216486460E+02  0.10566000000E+00 0. -1.
        -13    1    4    4    0    0 -0.88286832047E+01 -0.39813529509E+01  0.15294078041E+02  0.18102950191E+02  0.10566000000E+00 0.  1.
        -14    1    4    4    0    0 -0.56168241006E+01 -0.19932168244E+01  0.10784514706E+02  0.12321825503E+02  0.00000000000E+00 0.  1.
<mgrwt>
<rscale>  0 0.82815845E+02</rscale>
<asrwt>0</asrwt>
<pdfrwt beam="1">  1        1 0.56733286E-02 0.82815845E+02</pdfrwt>
<pdfrwt beam="2">  1       -2 0.71532306E-02 0.82815845E+02</pdfrwt>
<totfact> 0.11356015E+05</totfact>
</mgrwt>
</event>
<event>
 8    1  0.1372337E-020  0.7506633E+02  0.7818608E-02  0.1343666E+00
         -2   -1    0    0    0  501 -0.00000000000E+00  0.00000000000E+00  0.23652034109E+02  0.23652034246E+02  0.25500000000E-02 0.  1.
          1   -1    0    0  501    0  0.00000000000E+00 -0.00000000000E+00 -0.59560989307E+02  0.59560989520E+02  0.50400000000E-02 0. -1.
        -24    2    1    2    0    0 -0.71054273576E-14 -0.35527136788E-14 -0.35908955198E+02  0.83213023766E+02  0.75066332406E+02 0.  0.
         66    2    3    3    0    0  0.19236079604E+02  0.18908229499E+02  0.10922337871E+02  0.29169253765E+02  0.19999998280E+01 0.  0.
         13    1    3    3    0    0 -0.19236079604E+02 -0.18908229499E+02 -0.46831293070E+02  0.54043770001E+02  0.10566000000E+00 0. -1.
         13    1    4    4    0    0  0.56028170139E+01  0.58198515109E+01  0.39209586543E+01  0.89803847860E+01  0.10566000000E+00 0. -1.
        -13    1    4    4    0    0  0.83538008319E+01  0.79505247383E+01  0.48782439147E+01  0.12522190690E+02  0.10566000000E+00 0.  1.
        -14    1    4    4    0    0  0.52794617585E+01  0.51378532497E+01  0.21231353025E+01  0.76666782890E+01  0.00000000000E+00 0.  1.
<mgrwt>
<rscale>  0 0.75066332E+02</rscale>
<asrwt>0</asrwt>
<pdfrwt beam="1">  1        1 0.91632292E-02 0.75066332E+02</pdfrwt>
<pdfrwt beam="2">  1       -2 0.36387745E-02 0.75066332E+02</pdfrwt>
<totfact> 0.16102843E+05</totfact>
</mgrwt>
</event>
<event>
 8    1  0.1372337E-020  0.8012481E+02  0.7818608E-02  0.1328698E+00
         -2   -1    0    0    0  501 -0.00000000000E+00  0.00000000000E+00  0.37921183567E+02  0.37921183652E+02  0.25500000000E-02 0.  1.
          1   -1    0    0  501    0  0.00000000000E+00 -0.00000000000E+00 -0.42324526176E+02  0.42324526476E+02  0.50400000000E-02 0. -1.
        -24    2    1    2    0    0  0.35527136788E-14 -0.17763568394E-14 -0.44033426096E+01  0.80245710129E+02  0.80124806196E+02 0.  0.
         66    2    3    3    0    0  0.30495995948E+02 -0.15661243315E+02  0.18509339403E+02  0.39011228538E+02  0.19999989608E+01 0.  0.
         13    1    3    3    0    0 -0.30495995948E+02  0.15661243315E+02 -0.22912682013E+02  0.41234481591E+02  0.10566000000E+00 0. -1.
         13    1    4    4    0    0  0.16294225988E+02 -0.77933990745E+01  0.10257506462E+02  0.20771771050E+02  0.10566000000E+00 0. -1.
        -13    1    4    4    0    0  0.70186366026E+01 -0.34381040052E+01  0.42981211637E+01  0.89200240181E+01  0.10566000000E+00 0.  1.
        -14    1    4    4    0    0  0.71831333574E+01 -0.44297402348E+01  0.39537117772E+01  0.93194334696E+01  0.00000000000E+00 0.  1.
<mgrwt>
<rscale>  0 0.80124806E+02</rscale>
<asrwt>0</asrwt>
<pdfrwt beam="1">  1        1 0.65114656E-02 0.80124806E+02</pdfrwt>
<pdfrwt beam="2">  1       -2 0.58340283E-02 0.80124806E+02</pdfrwt>
<totfact> 0.12757865E+05</totfact>
</mgrwt>
</event>
<event>
 8    1  0.1372337E-020  0.7888829E+02  0.7818608E-02  0.1332236E+00
         -2   -1    0    0    0  501 -0.00000000000E+00  0.00000000000E+00  0.43009103323E+02  0.43009103399E+02  0.25500000000E-02 0.  1.
          1   -1    0    0  501    0  0.00000000000E+00 -0.00000000000E+00 -0.36174677086E+02  0.36174677437E+02  0.50400000000E-02 0. -1.
        -24    2    1    2    0    0  0.44408920985E-15  0.17763568394E-14  0.68344262371E+01  0.79183780836E+02  0.78888286618E+02 0.  0.
         66    2    3    3    0    0 -0.28341100295E+01 -0.14171144124E+02  0.40230770574E+02  0.42794490041E+02  0.19999928569E+01 0.  0.
         13    1    3    3    0    0  0.28341100295E+01  0.14171144124E+02 -0.33396344337E+02  0.36389290795E+02  0.10566000000E+00 0. -1.
         13    1    4    4    0    0 -0.21668300551E+01 -0.79507850783E+01  0.22816219278E+02  0.24259042891E+02  0.10566000000E+00 0.  1.
        -13    1    4    4    0    0 -0.75804397148E+00 -0.34482170418E+01  0.86820294263E+01  0.93730267483E+01  0.10566000000E+00 0.  1.
        -14    1    4    4    0    0  0.90763997113E-01 -0.27721420042E+01  0.87325218702E+01  0.91624204012E+01  0.00000000000E+00 0.  1.
<mgrwt>
<rscale>  0 0.78888287E+02</rscale>
<asrwt>0</asrwt>
<pdfrwt beam="1">  1        1 0.55653350E-02 0.78888287E+02</pdfrwt>
<pdfrwt beam="2">  1       -2 0.66167851E-02 0.78888287E+02</pdfrwt>
<totfact> 0.12994242E+05</totfact>
</mgrwt>
</event>
<event>
 8    1  0.1372337E-020  0.7902106E+02  0.7818608E-02  0.1331853E+00
          1   -1    0    0  501    0  0.00000000000E+00  0.00000000000E+00  0.36123078693E+01  0.36123113853E+01  0.50400000000E-02 0. -1.
         -2   -1    0    0    0  501 -0.00000000000E+00 -0.00000000000E+00 -0.43215614053E+03  0.43215614054E+03  0.25500000000E-02 0.  1.
        -24    2    1    2    0    0  0.17763568394E-14  0.00000000000E+00 -0.42854383266E+03  0.43576845192E+03  0.79021055293E+02 0.  0.
         66    2    3    3    0    0 -0.10391811169E+02 -0.66171664730E+01 -0.42128299488E+03  0.42146783792E+03  0.19999988621E+01 0.  0.
         13    1    3    3    0    0  0.10391811169E+02  0.66171664730E+01 -0.72608377811E+01  0.14300614002E+02  0.10566000000E+00 0. -1.
         13    1    4    4    0    0 -0.21066262003E+01 -0.18990899243E+01 -0.93806163131E+02  0.93849090682E+02  0.10566000000E+00 0. -1.
        -13    1    4    4    0    0 -0.24318152262E+01 -0.21057962759E+01 -0.11782546613E+03  0.11786941815E+03  0.10566000000E+00 0.  1.
         14    1    4    4    0    0 -0.58533697429E+01 -0.26122802729E+01 -0.20965136562E+03  0.20974932909E+03  0.00000000000E+00 0. -1.
<mgrwt>
<rscale>  0 0.79021055E+02</rscale>
<asrwt>0</asrwt>
<pdfrwt beam="1">  1        1 0.55574029E-03 0.79021055E+02</pdfrwt>
<pdfrwt beam="2">  1       -2 0.66485519E-01 0.79021055E+02</pdfrwt>
<totfact> 0.57877116E+04</totfact>
</mgrwt>
</event>
<event>
 8    1  0.1372337E-020  0.7430907E+02  0.7818608E-02  0.1346024E+00
          1   -1    0    0  501    0  0.00000000000E+00  0.00000000000E+00  0.22616690459E+02  0.22616691020E+02  0.50400000000E-02 0. -1.
         -2   -1    0    0    0  501 -0.00000000000E+00 -0.00000000000E+00 -0.61037198733E+02  0.61037198786E+02  0.25500000000E-02 0.  1.
        -24    2    1    2    0    0  0.00000000000E+00  0.00000000000E+00 -0.38420508274E+02  0.83653889806E+02  0.74309069592E+02 0.  0.
         66    2    3    3    0    0  0.14474382413E+02 -0.91800997505E+01 -0.56300197850E+02  0.58885433233E+02  0.19999978496E+01 0.  0.
         13    1    3    3    0    0 -0.14474382413E+02  0.91800997505E+01  0.17879689576E+02  0.24768456573E+02  0.10566000000E+00 0. -1.
         13    1    4    4    0    0  0.13134844735E+01 -0.80039483536E+00 -0.46023160084E+01  0.48536944724E+01  0.10566000000E+00 0. -1.
        -13    1    4    4    0    0  0.10692210824E+02 -0.59194459010E+01 -0.39929808225E+02  0.41758399886E+02  0.10566000000E+00 0.  1.
         14    1    4    4    0    0  0.24686871149E+01 -0.24602590141E+01 -0.11768073616E+02  0.12273338874E+02  0.00000000000E+00 0. -1.
<mgrwt>
<rscale>  0 0.74309070E+02</rscale>
<asrwt>0</asrwt>
<pdfrwt beam="1">  1        1 0.34794909E-02 0.74309070E+02</pdfrwt>
<pdfrwt beam="2">  1       -2 0.93903382E-02 0.74309070E+02</pdfrwt>
<totfact> 0.14220701E+05</totfact>
</mgrwt>
</event>
<event>
 8    1  0.1415907E-020  0.8122407E+02  0.7818608E-02  0.1325613E+00
          1   -1    0    0  501    0  0.00000000000E+00  0.00000000000E+00  0.53587188743E+01  0.53587212444E+01  0.50400000000E-02 0. -1.
         -2   -1    0    0    0  501 -0.00000000000E+00 -0.00000000000E+00 -0.30778571340E+03  0.30778571341E+03  0.25500000000E-02 0.  1.
        -24    2    1    2    0    0  0.00000000000E+00  0.00000000000E+00 -0.30242699453E+03  0.31314443466E+03  0.81224072402E+02 0.  0.
         66    2    3    3    0    0  0.93599153896E+01 -0.10604114958E+02 -0.29797306894E+03  0.29831527799E+03  0.20000001261E+01 0.  0.
         13    1    3    3    0    0 -0.93599153896E+01  0.10604114958E+02 -0.44539255857E+01  0.14829156662E+02  0.10566000000E+00 0. -1.
         13    1    4    4    0    0  0.22419134438E+01 -0.19779655761E+01 -0.59916538361E+02  0.59991176492E+02  0.10566000000E+00 0. -1.
        -13    1    4    4    0    0  0.63977457333E+01 -0.70253472538E+01 -0.20701122285E+03  0.20722920693E+03  0.10566000000E+00 0.  1.
         14    1    4    4    0    0  0.72025621249E+00 -0.16008021279E+01 -0.31045307725E+02  0.31094894568E+02  0.00000000000E+00 0. -1.
<mgrwt>
<rscale>  0 0.81224072E+02</rscale>
<asrwt>0</asrwt>
<pdfrwt beam="1">  1        1 0.82441872E-03 0.81224072E+02</pdfrwt>
<pdfrwt beam="2">  1       -2 0.47351634E-01 0.81224072E+02</pdfrwt>
<totfact> 0.66621242E+04</totfact>
</mgrwt>
</event>
<event>
 8    1  0.1372337E-020  0.7852279E+02  0.7818608E-02  0.1333297E+00
         -2   -1    0    0    0  501 -0.00000000000E+00  0.00000000000E+00  0.10265687436E+02  0.10265687753E+02  0.25500000000E-02 0.  1.
          1   -1    0    0  501    0  0.00000000000E+00 -0.00000000000E+00 -0.15015626230E+03  0.15015626238E+03  0.50400000000E-02 0. -1.
        -24    2    1    2    0    0  0.71054273576E-14  0.35527136788E-14 -0.13989057486E+03  0.16042195013E+03  0.78522793824E+02 0.  0.
         66    2    3    3    0    0 -0.32329921290E+02 -0.20063018919E+02 -0.50426352775E+02  0.63202575850E+02  0.20000002710E+01 0.  0.
         13    1    3    3    0    0  0.32329921290E+02  0.20063018919E+02 -0.89464222086E+02  0.97219374285E+02  0.10566000000E+00 0. -1.
         13    1    4    4    0    0 -0.38033676954E+00 -0.11672355480E+00 -0.35586689006E+00  0.54413759799E+00  0.10566000000E+00 0.  1.
        -13    1    4    4    0    0 -0.22995580901E+02 -0.14633723366E+02 -0.36469481255E+02  0.45529955278E+02  0.10566000000E+00 0.  1.
        -14    1    4    4    0    0 -0.89540036193E+01 -0.53125719980E+01 -0.13601004630E+02  0.17128482974E+02  0.00000000000E+00 0.  1.
<mgrwt>
<rscale>  0 0.78522794E+02</rscale>
<asrwt>0</asrwt>
<pdfrwt beam="1">  1        1 0.23100962E-01 0.78522794E+02</pdfrwt>
<pdfrwt beam="2">  1       -2 0.15793367E-02 0.78522794E+02</pdfrwt>
<totfact> 0.16596898E+05</totfact>
</mgrwt>
</event>
<event>
 8    1  0.1372337E-020  0.7921883E+02  0.7818608E-02  0.1331283E+00
         -2   -1    0    0    0  501 -0.00000000000E+00  0.00000000000E+00  0.18820430178E+02  0.18820430351E+02  0.25500000000E-02 0.  1.
          1   -1    0    0  501    0  0.00000000000E+00 -0.00000000000E+00 -0.83361851876E+02  0.83361852029E+02  0.50400000000E-02 0. -1.
        -24    2    1    2    0    0  0.35527136788E-14 -0.44408920985E-15 -0.64541421698E+02  0.10218228238E+03  0.79218834360E+02 0.  0.
         66    2    3    3    0    0  0.18695887708E+02 -0.35361740654E+01  0.12481706032E+02  0.22843678197E+02  0.19999759796E+01 0.  0.
         13    1    3    3    0    0 -0.18695887708E+02  0.35361740654E+01 -0.77023127730E+02  0.79338604182E+02  0.10566000000E+00 0. -1.
         13    1    4    4    0    0  0.97495219458E+00 -0.58539932101E+00  0.75269727336E+00  0.13678235879E+01  0.10566000000E+00 0. -1.
        -13    1    4    4    0    0  0.62589853992E+01 -0.12264086954E+01  0.46549328487E+01  0.78967423902E+01  0.10566000000E+00 0.  1.
        -14    1    4    4    0    0  0.11461950114E+02 -0.17243660489E+01  0.70740759096E+01  0.13579112219E+02  0.00000000000E+00 0.  1.
<mgrwt>
<rscale>  0 0.79218834E+02</rscale>
<asrwt>0</asrwt>
<pdfrwt beam="1">  1        1 0.12824900E-01 0.79218834E+02</pdfrwt>
<pdfrwt beam="2">  1       -2 0.28954509E-02 0.79218834E+02</pdfrwt>
<totfact> 0.14649514E+05</totfact>
</mgrwt>
</event>
<event>
 8    1  0.1372337E-020  0.7649056E+02  0.7818608E-02  0.1339316E+00
         -2   -1    0    0    0  501 -0.00000000000E+00  0.00000000000E+00  0.48317804436E+02  0.48317804504E+02  0.25500000000E-02 0.  1.
          1   -1    0    0  501    0  0.00000000000E+00 -0.00000000000E+00 -0.30272517433E+02  0.30272517852E+02  0.50400000000E-02 0. -1.
        -24    2    1    2    0    0  0.00000000000E+00  0.00000000000E+00  0.18045287004E+02  0.78590322356E+02  0.76490564026E+02 0.  0.
         66    2    3    3    0    0  0.15123558394E+02  0.30527903428E+02  0.26825417949E+02  0.43408270544E+02  0.19999993196E+01 0.  0.
         13    1    3    3    0    0 -0.15123558394E+02 -0.30527903428E+02 -0.87801309458E+01  0.35182051812E+02  0.10566000000E+00 0. -1.
         13    1    4    4    0    0  0.55486781707E+00  0.84886278211E+00  0.69635808714E+00  0.12347165417E+01  0.10566000000E+00 0. -1.
        -13    1    4    4    0    0  0.12621885761E+02  0.25264215640E+02  0.21589188422E+02  0.35548513511E+02  0.10566000000E+00 0.  1.
        -14    1    4    4    0    0  0.19468048158E+01  0.44148250058E+01  0.45398714399E+01  0.66250404915E+01  0.00000000000E+00 0.  1.
<mgrwt>
<rscale>  0 0.76490564E+02</rscale>
<asrwt>0</asrwt>
<pdfrwt beam="1">  1        1 0.46573104E-02 0.76490564E+02</pdfrwt>
<pdfrwt beam="2">  1       -2 0.74335084E-02 0.76490564E+02</pdfrwt>
<totfact> 0.13771495E+05</totfact>
</mgrwt>
</event>
<event>
 8    1  0.1372337E-020  0.8555287E+02  0.7818608E-02  0.1313993E+00
         -2   -1    0    0    0  501 -0.00000000000E+00  0.00000000000E+00  0.17117666451E+03  0.17117666453E+03  0.25500000000E-02 0.  1.
          1   -1    0    0  501    0  0.00000000000E+00 -0.00000000000E+00 -0.10689677103E+02  0.10689678291E+02  0.50400000000E-02 0. -1.
        -24    2    1    2    0    0  0.71054273576E-14  0.35527136788E-14  0.16048698740E+03  0.18186634282E+03  0.85552869758E+02 0.  0.
         66    2    3    3    0    0  0.35436779254E+02  0.23479619802E+02  0.89973047896E+02  0.99529931074E+02  0.19999904761E+01 0.  0.
         13    1    3    3    0    0 -0.35436779254E+02 -0.23479619802E+02  0.70513939507E+02  0.82336411743E+02  0.10566000000E+00 0. -1.
         13    1    4    4    0    0  0.34706558519E+01  0.19645659682E+01  0.87978743299E+01  0.96601619162E+01  0.10566000000E+00 0. -1.
        -13    1    4    4    0    0  0.21873833589E+02  0.15110349363E+02  0.57478003537E+02  0.63328661035E+02  0.10566000000E+00 0.  1.
         14    1    4    4    0    0  0.10092289813E+02  0.64047044702E+01  0.23697170029E+02  0.26541108123E+02  0.00000000000E+00 0. -1.
<mgrwt>
<rscale>  0 0.85552870E+02</rscale>
<asrwt>0</asrwt>
<pdfrwt beam="1">  1        1 0.16445659E-02 0.85552870E+02</pdfrwt>
<pdfrwt beam="2">  1       -2 0.26334870E-01 0.85552870E+02</pdfrwt>
<totfact> 0.75940563E+04</totfact>
</mgrwt>
</event>
<event>
 8    1  0.1372337E-020  0.7872255E+02  0.7818608E-02  0.1332716E+00
         -2   -1    0    0    0  501 -0.00000000000E+00  0.00000000000E+00  0.46260823950E+01  0.46260830978E+01  0.25500000000E-02 0.  1.
          1   -1    0    0  501    0  0.00000000000E+00 -0.00000000000E+00 -0.33490749444E+03  0.33490749447E+03  0.50400000000E-02 0. -1.
        -24    2    1    2    0    0  0.00000000000E+00  0.00000000000E+00 -0.33028141204E+03  0.33953357757E+03  0.78722545429E+02 0.  0.
         66    2    3    3    0    0 -0.39248611986E+02  0.49371636151E+00 -0.15416029417E+03  0.15909146325E+03  0.20000200208E+01 0.  0.
         13    1    3    3    0    0  0.39248611986E+02 -0.49371636151E+00 -0.17612111787E+03  0.18044211433E+03  0.10566000000E+00 0. -1.
         13    1    4    4    0    0 -0.58316638798E+00  0.22296081057E-01 -0.17698813571E+01  0.18666076730E+01  0.10566000000E+00 0. -1.
        -13    1    4    4    0    0 -0.64292876112E+01  0.52677271374E+00 -0.25796921295E+02  0.26591456165E+02  0.10566000000E+00 0. -1.
        -14    1    4    4    0    0 -0.32236157987E+02 -0.55352433284E-01 -0.12659349152E+03  0.13063339941E+03  0.00000000000E+00 0.  1.
<mgrwt>
<rscale>  0 0.78722545E+02</rscale>
<asrwt>0</asrwt>
<pdfrwt beam="1">  1        1 0.51524211E-01 0.78722545E+02</pdfrwt>
<pdfrwt beam="2">  1       -2 0.71170530E-03 0.78722545E+02</pdfrwt>
<totfact> 0.19212668E+05</totfact>
</mgrwt>
</event>
<event>
 8    1  0.1372337E-020  0.7931648E+02  0.7818608E-02  0.1331002E+00
         -2   -1    0    0    0  501 -0.00000000000E+00  0.00000000000E+00  0.11068341521E+02  0.11068341815E+02  0.25500000000E-02 0.  1.
          1   -1    0    0  501    0  0.00000000000E+00 -0.00000000000E+00 -0.14209679858E+03  0.14209679867E+03  0.50400000000E-02 0. -1.
        -24    2    1    2    0    0  0.00000000000E+00 -0.35527136788E-14 -0.13102845706E+03  0.15316514048E+03  0.79316478113E+02 0.  0.
         66    2    3    3    0    0 -0.25892235767E+02  0.28531104253E+02 -0.47612542289E+02  0.61281203999E+02  0.19999993861E+01 0.  0.
         13    1    3    3    0    0  0.25892235767E+02 -0.28531104253E+02 -0.83415914769E+02  0.91883936483E+02  0.10566000000E+00 0. -1.
         13    1    4    4    0    0 -0.52286927928E+01  0.67289318041E+01 -0.98869894273E+01  0.13053025531E+02  0.10566000000E+00 0.  1.
        -13    1    4    4    0    0 -0.12394281034E+02  0.13355121121E+02 -0.22486605248E+02  0.28941942611E+02  0.10566000000E+00 0.  1.
        -14    1    4    4    0    0 -0.82692619405E+01  0.84470513279E+01 -0.15238947614E+02  0.19286235858E+02  0.00000000000E+00 0.  1.
<mgrwt>
<rscale>  0 0.79316478E+02</rscale>
<asrwt>0</asrwt>
<pdfrwt beam="1">  1        1 0.21861045E-01 0.79316478E+02</pdfrwt>
<pdfrwt beam="2">  1       -2 0.17028219E-02 0.79316478E+02</pdfrwt>
<totfact> 0.15995272E+05</totfact>
</mgrwt>
</event>
<event>
 8    1  0.1372337E-020  0.7955723E+02  0.7818608E-02  0.1330313E+00
          1   -1    0    0  501    0  0.00000000000E+00  0.00000000000E+00  0.12155367560E+02  0.12155368605E+02  0.50400000000E-02 0. -1.
         -2   -1    0    0    0  501 -0.00000000000E+00 -0.00000000000E+00 -0.13017607912E+03  0.13017607914E+03  0.25500000000E-02 0.  1.
        -24    2    1    2    0    0 -0.71054273576E-14  0.00000000000E+00 -0.11802071156E+03  0.14233144775E+03  0.79557228845E+02 0.  0.
         66    2    3    3    0    0  0.27881264308E+02 -0.18689745605E+02 -0.97153011844E+02  0.10280748608E+03  0.19999986298E+01 0.  0.
         13    1    3    3    0    0 -0.27881264308E+02  0.18689745605E+02 -0.20867699713E+02  0.39523961663E+02  0.10566000000E+00 0. -1.
         13    1    4    4    0    0  0.16562873304E+02 -0.10335249772E+02 -0.54761797932E+02  0.58137869214E+02  0.10566000000E+00 0. -1.
        -13    1    4    4    0    0  0.10026084673E+02 -0.71701163068E+01 -0.37476797068E+02  0.39451925482E+02  0.10566000000E+00 0.  1.
        -14    1    4    4    0    0  0.12923063309E+01 -0.11843795258E+01 -0.49144168440E+01  0.52176913890E+01  0.00000000000E+00 0.  1.
<mgrwt>
<rscale>  0 0.79557229E+02</rscale>
<asrwt>0</asrwt>
<pdfrwt beam="1">  1        1 0.18700567E-02 0.79557229E+02</pdfrwt>
<pdfrwt beam="2">  1       -2 0.20027088E-01 0.79557229E+02</pdfrwt>
<totfact> 0.10021245E+05</totfact>
</mgrwt>
</event>
<event>
 8    1  0.1372337E-020  0.8027323E+02  0.7818608E-02  0.1328278E+00
         -2   -1    0    0    0  501 -0.00000000000E+00  0.00000000000E+00  0.10349398912E+02  0.10349399226E+02  0.25500000000E-02 0.  1.
          1   -1    0    0  501    0  0.00000000000E+00 -0.00000000000E+00 -0.15565618789E+03  0.15565618797E+03  0.50400000000E-02 0. -1.
        -24    2    1    2    0    0  0.00000000000E+00  0.35527136788E-14 -0.14530678898E+03  0.16600558720E+03  0.80273233757E+02 0.  0.
         66    2    3    3    0    0 -0.89483072654E+01 -0.30911549036E+02 -0.23180638709E+02  0.39710679105E+02  0.19999893115E+01 0.  0.
         13    1    3    3    0    0  0.89483072654E+01  0.30911549036E+02 -0.12212615027E+03  0.12629490809E+03  0.10566000000E+00 0. -1.
         13    1    4    4    0    0 -0.12229356839E+01 -0.48427709973E+01 -0.41967390123E+01  0.65247057399E+01  0.10566000000E+00 0.  1.
        -13    1    4    4    0    0 -0.70107953243E+01 -0.24081083697E+02 -0.17886709492E+02  0.30805768674E+02  0.10566000000E+00 0.  1.
        -14    1    4    4    0    0 -0.71457625731E+00 -0.19876943423E+01 -0.10971902048E+01  0.23802046911E+01  0.00000000000E+00 0.  1.
<mgrwt>
<rscale>  0 0.80273234E+02</rscale>
<asrwt>0</asrwt>
<pdfrwt beam="1">  1        1 0.23947104E-01 0.80273234E+02</pdfrwt>
<pdfrwt beam="2">  1       -2 0.15922154E-02 0.80273234E+02</pdfrwt>
<totfact> 0.15752969E+05</totfact>
</mgrwt>
</event>
<event>
 8    1  0.1372337E-020  0.8119344E+02  0.7818608E-02  0.1325698E+00
          1   -1    0    0  501    0  0.00000000000E+00  0.00000000000E+00  0.12620867606E+02  0.12620868613E+02  0.50400000000E-02 0. -1.
         -2   -1    0    0    0  501 -0.00000000000E+00 -0.00000000000E+00 -0.13058480787E+03  0.13058480790E+03  0.25500000000E-02 0.  1.
        -24    2    1    2    0    0  0.00000000000E+00  0.00000000000E+00 -0.11796394027E+03  0.14320567651E+03  0.81193439278E+02 0.  0.
         66    2    3    3    0    0  0.10279092919E+02  0.10852566792E+02 -0.12554320268E+03  0.12644577377E+03  0.20000014705E+01 0.  0.
         13    1    3    3    0    0 -0.10279092919E+02 -0.10852566792E+02  0.75792624167E+01  0.16759902746E+02  0.10566000000E+00 0. -1.
         13    1    4    4    0    0  0.56174739139E+01  0.56632074175E+01 -0.71296115087E+02  0.71741028164E+02  0.10566000000E+00 0. -1.
        -13    1    4    4    0    0  0.38112028913E+01  0.45404371282E+01 -0.48261732753E+02  0.48624549860E+02  0.10566000000E+00 0.  1.
         14    1    4    4    0    0  0.85041611406E+00  0.64892224663E+00 -0.59853548447E+01  0.60801957424E+01  0.00000000000E+00 0. -1.
<mgrwt>
<rscale>  0 0.81193439E+02</rscale>
<asrwt>0</asrwt>
<pdfrwt beam="1">  1        1 0.19416721E-02 0.81193439E+02</pdfrwt>
<pdfrwt beam="2">  1       -2 0.20089970E-01 0.81193439E+02</pdfrwt>
<totfact> 0.95015380E+04</totfact>
</mgrwt>
</event>
<event>
 8    1  0.1372337E-020  0.8012176E+02  0.7818608E-02  0.1328706E+00
         -2   -1    0    0    0  501 -0.00000000000E+00  0.00000000000E+00  0.13346582377E+03  0.13346582379E+03  0.25500000000E-02 0.  1.
          1   -1    0    0  501    0  0.00000000000E+00 -0.00000000000E+00 -0.12024605706E+02  0.12024606762E+02  0.50400000000E-02 0. -1.
        -24    2    1    2    0    0 -0.17763568394E-14  0.00000000000E+00  0.12144121806E+03  0.14549043055E+03  0.80121756960E+02 0.  0.
         66    2    3    3    0    0  0.15809422655E+02 -0.36263782593E+02  0.71932817754E+02  0.82117781581E+02  0.20000023110E+01 0.  0.
         13    1    3    3    0    0 -0.15809422655E+02  0.36263782593E+02  0.49508400308E+02  0.63372648972E+02  0.10566000000E+00 0. -1.
         13    1    4    4    0    0  0.52927118704E+01 -0.12611283479E+02  0.26000971007E+02  0.29378885740E+02  0.10566000000E+00 0.  1.
        -13    1    4    4    0    0  0.22883306901E+01 -0.62835514628E+01  0.11263214894E+02  0.13099261434E+02  0.10566000000E+00 0. -1.
         14    1    4    4    0    0  0.82283800944E+01 -0.17368947651E+02  0.34668631852E+02  0.39639634407E+02  0.00000000000E+00 0. -1.
<mgrwt>
<rscale>  0 0.80121757E+02</rscale>
<asrwt>0</asrwt>
<pdfrwt beam="1">  1        1 0.18499394E-02 0.80121757E+02</pdfrwt>
<pdfrwt beam="2">  1       -2 0.20533204E-01 0.80121757E+02</pdfrwt>
<totfact> 0.97674168E+04</totfact>
</mgrwt>
</event>
<event>
 8    1  0.1372337E-020  0.7735238E+02  0.7818608E-02  0.1336737E+00
         -2   -1    0    0    0  501 -0.00000000000E+00  0.00000000000E+00  0.13756113851E+02  0.13756114087E+02  0.25500000000E-02 0.  1.
          1   -1    0    0  501    0  0.00000000000E+00 -0.00000000000E+00 -0.10874057319E+03  0.10874057330E+03  0.50400000000E-02 0. -1.
        -24    2    1    2    0    0  0.35527136788E-14 -0.35527136788E-14 -0.94984459336E+02  0.12249668739E+03  0.77352381388E+02 0.  0.
         66    2    3    3    0    0 -0.27150414307E+02  0.17016383662E+02 -0.81751330139E+02  0.87829279320E+02  0.20000041155E+01 0.  0.
         13    1    3    3    0    0  0.27150414307E+02 -0.17016383662E+02 -0.13233129198E+02  0.34667408071E+02  0.10566000000E+00 0. -1.
         13    1    4    4    0    0 -0.20098092046E+01  0.11159207178E+01 -0.61588500807E+01  0.65747403324E+01  0.10566000000E+00 0. -1.
        -13    1    4    4    0    0 -0.96264672911E+01  0.53691630966E+01 -0.26344890830E+02  0.28558032526E+02  0.10566000000E+00 0.  1.
         14    1    4    4    0    0 -0.15514137811E+02  0.10531299847E+02 -0.49247589228E+02  0.52696506462E+02  0.00000000000E+00 0. -1.
<mgrwt>
<rscale>  0 0.77352381E+02</rscale>
<asrwt>0</asrwt>
<pdfrwt beam="1">  1        1 0.16729318E-01 0.77352381E+02</pdfrwt>
<pdfrwt beam="2">  1       -2 0.21163253E-02 0.77352381E+02</pdfrwt>
<totfact> 0.16322398E+05</totfact>
</mgrwt>
</event>
<event>
 8    1  0.1372337E-020  0.7998932E+02  0.7818608E-02  0.1329082E+00
         -2   -1    0    0    0  501 -0.00000000000E+00  0.00000000000E+00  0.37452595383E+02  0.37452595470E+02  0.25500000000E-02 0.  1.
          1   -1    0    0  501    0  0.00000000000E+00 -0.00000000000E+00 -0.42709268651E+02  0.42709268948E+02  0.50400000000E-02 0. -1.
        -24    2    1    2    0    0 -0.35527136788E-14  0.00000000000E+00 -0.52566732679E+01  0.80161864418E+02  0.79989323619E+02 0.  0.
         66    2    3    3    0    0  0.26965120729E+02 -0.29430242228E+02 -0.47107770355E+01  0.40242369678E+02  0.20000008720E+01 0.  0.
         13    1    3    3    0    0 -0.26965120729E+02  0.29430242228E+02 -0.54589623244E+00  0.39919494740E+02  0.10566000000E+00 0. -1.
         13    1    4    4    0    0  0.80865107851E+01 -0.92920240229E+01 -0.19064101799E+01  0.12465108541E+02  0.10566000000E+00 0. -1.
        -13    1    4    4    0    0  0.59163542752E+01 -0.69273977058E+01 -0.13800513306E+01  0.92145424517E+01  0.10566000000E+00 0.  1.
         14    1    4    4    0    0  0.12962255669E+02 -0.13210820500E+02 -0.14243155250E+01  0.18562718686E+02  0.00000000000E+00 0. -1.
<mgrwt>
<rscale>  0 0.79989324E+02</rscale>
<asrwt>0</asrwt>
<pdfrwt beam="1">  1        1 0.65706568E-02 0.79989324E+02</pdfrwt>
<pdfrwt beam="2">  1       -2 0.57619378E-02 0.79989324E+02</pdfrwt>
<totfact> 0.12837245E+05</totfact>
</mgrwt>
</event>
<event>
 8    1  0.1372337E-020  0.7953836E+02  0.7818608E-02  0.1330367E+00
         -2   -1    0    0    0  501 -0.00000000000E+00  0.00000000000E+00  0.10109351816E+02  0.10109352138E+02  0.25500000000E-02 0.  1.
          1   -1    0    0  501    0  0.00000000000E+00 -0.00000000000E+00 -0.15644798517E+03  0.15644798525E+03  0.50400000000E-02 0. -1.
        -24    2    1    2    0    0  0.00000000000E+00  0.00000000000E+00 -0.14633863335E+03  0.16655733739E+03  0.79538361977E+02 0.  0.
         66    2    3    3    0    0  0.10998459754E+02  0.32445054683E+02 -0.31024876577E+02  0.46262194692E+02  0.20000001916E+01 0.  0.
         13    1    3    3    0    0 -0.10998459754E+02 -0.32445054683E+02 -0.11531375677E+03  0.12029514269E+03  0.10566000000E+00 0. -1.
         13    1    4    4    0    0  0.22933527433E+01  0.77134625679E+01 -0.77083634118E+01  0.11143922205E+02  0.10566000000E+00 0. -1.
        -13    1    4    4    0    0  0.63501908321E+01  0.16519900593E+02 -0.15085783003E+02  0.23255624095E+02  0.10566000000E+00 0.  1.
        -14    1    4    4    0    0  0.23549161783E+01  0.82116915223E+01 -0.82307301619E+01  0.11862648392E+02  0.00000000000E+00 0.  1.
<mgrwt>
<rscale>  0 0.79538362E+02</rscale>
<asrwt>0</asrwt>
<pdfrwt beam="1">  1        1 0.24068919E-01 0.79538362E+02</pdfrwt>
<pdfrwt beam="2">  1       -2 0.15552850E-02 0.79538362E+02</pdfrwt>
<totfact> 0.16159694E+05</totfact>
</mgrwt>
</event>
<event>
 8    1  0.1372337E-020  0.8020300E+02  0.7818608E-02  0.1328476E+00
          1   -1    0    0  501    0  0.00000000000E+00  0.00000000000E+00  0.16581901608E+02  0.16581902374E+02  0.50400000000E-02 0. -1.
         -2   -1    0    0    0  501 -0.00000000000E+00 -0.00000000000E+00 -0.96981046610E+02  0.96981046643E+02  0.25500000000E-02 0.  1.
        -24    2    1    2    0    0  0.00000000000E+00  0.00000000000E+00 -0.80399145001E+02  0.11356294902E+03  0.80202997902E+02 0.  0.
         66    2    3    3    0    0 -0.22171524002E+02  0.52324495407E+01 -0.86911379115E+02  0.89869587881E+02  0.20000003419E+01 0.  0.
         13    1    3    3    0    0  0.22171524002E+02 -0.52324495407E+01  0.65122341137E+01  0.23693361137E+02  0.10566000000E+00 0. -1.
         13    1    4    4    0    0 -0.87613672172E+01  0.13800153154E+01 -0.34863821846E+02  0.35974480338E+02  0.10566000000E+00 0. -1.
        -13    1    4    4    0    0 -0.62695703716E+01  0.13313220603E+01 -0.22972243362E+02  0.23849844028E+02  0.10566000000E+00 0.  1.
        -14    1    4    4    0    0 -0.71405864130E+01  0.25211121649E+01 -0.29075313907E+02  0.30045263515E+02  0.00000000000E+00 0.  1.
<mgrwt>
<rscale>  0 0.80202998E+02</rscale>
<asrwt>0</asrwt>
<pdfrwt beam="1">  1        1 0.25510619E-02 0.80202998E+02</pdfrwt>
<pdfrwt beam="2">  1       -2 0.14920161E-01 0.80202998E+02</pdfrwt>
<totfact> 0.10623982E+05</totfact>
</mgrwt>
</event>
<event>
 8    1  0.1372337E-020  0.7990199E+02  0.7818608E-02  0.1329330E+00
          1   -1    0    0  501    0  0.00000000000E+00  0.00000000000E+00  0.15736533194E+03  0.15736533202E+03  0.50400000000E-02 0. -1.
         -2   -1    0    0    0  501 -0.00000000000E+00 -0.00000000000E+00 -0.10142525189E+02  0.10142525510E+02  0.25500000000E-02 0.  1.
        -24    2    1    2    0    0 -0.17763568394E-14 -0.71054273576E-14  0.14722280675E+03  0.16750785753E+03  0.79901986877E+02 0.  0.
         66    2    3    3    0    0  0.99523150392E+01 -0.36608889951E+02  0.47572586439E+02  0.60880295567E+02  0.20000024347E+01 0.  0.
         13    1    3    3    0    0 -0.99523150392E+01  0.36608889951E+02  0.99650220314E+02  0.10662756197E+03  0.10566000000E+00 0. -1.
         13    1    4    4    0    0  0.22306269218E+01 -0.93340852837E+01  0.11052279330E+02  0.14637789689E+02  0.10566000000E+00 0. -1.
        -13    1    4    4    0    0  0.57420536796E+01 -0.19761241158E+02  0.25780470830E+02  0.32986689328E+02  0.10566000000E+00 0.  1.
         14    1    4    4    0    0  0.19796344378E+01 -0.75135635092E+01  0.10739836279E+02  0.13255816550E+02  0.00000000000E+00 0. -1.
<mgrwt>
<rscale>  0 0.79901987E+02</rscale>
<asrwt>0</asrwt>
<pdfrwt beam="1">  1        1 0.24210050E-01 0.79901987E+02</pdfrwt>
<pdfrwt beam="2">  1       -2 0.15603886E-02 0.79901987E+02</pdfrwt>
<totfact> 0.15981585E+05</totfact>
</mgrwt>
</event>
<event>
 8    1  0.1372337E-020  0.8213754E+02  0.7818608E-02  0.1323093E+00
         -2   -1    0    0    0  501 -0.00000000000E+00  0.00000000000E+00  0.10718613222E+03  0.10718613225E+03  0.25500000000E-02 0.  1.
          1   -1    0    0  501    0  0.00000000000E+00 -0.00000000000E+00 -0.15735652944E+02  0.15735653751E+02  0.50400000000E-02 0. -1.
        -24    2    1    2    0    0  0.00000000000E+00  0.35527136788E-14  0.91450479279E+02  0.12292178600E+03  0.82137539007E+02 0.  0.
         66    2    3    3    0    0 -0.12857512018E+02  0.21909664776E+02  0.93997629543E+02  0.97390468679E+02  0.20000009962E+01 0.  0.
         13    1    3    3    0    0  0.12857512018E+02 -0.21909664776E+02 -0.25471502636E+01  0.25531317326E+02  0.10566000000E+00 0. -1.
         13    1    4    4    0    0 -0.23694092589E+01  0.32449513420E+01  0.14520324006E+02  0.15066346030E+02  0.10566000000E+00 0. -1.
        -13    1    4    4    0    0 -0.10106847432E+02  0.17267310610E+02  0.74565133312E+02  0.77202840949E+02  0.10566000000E+00 0.  1.
        -14    1    4    4    0    0 -0.38125532672E+00  0.13974028242E+01  0.49121722255E+01  0.51212817000E+01  0.00000000000E+00 0.  1.
<mgrwt>
<rscale>  0 0.82137539E+02</rscale>
<asrwt>0</asrwt>
<pdfrwt beam="1">  1        1 0.24208697E-02 0.82137539E+02</pdfrwt>
<pdfrwt beam="2">  1       -2 0.16490174E-01 0.82137539E+02</pdfrwt>
<totfact> 0.97457301E+04</totfact>
</mgrwt>
</event>
<event>
 8    1  0.1372337E-020  0.8230678E+02  0.7818608E-02  0.1322630E+00
         -2   -1    0    0    0  501 -0.00000000000E+00  0.00000000000E+00  0.50084520385E+02  0.50084520450E+02  0.25500000000E-02 0.  1.
          1   -1    0    0  501    0  0.00000000000E+00 -0.00000000000E+00 -0.33814871892E+02  0.33814872267E+02  0.50400000000E-02 0. -1.
        -24    2    1    2    0    0  0.00000000000E+00  0.00000000000E+00  0.16269648493E+02  0.83899392717E+02  0.82306783658E+02 0.  0.
         66    2    3    3    0    0 -0.21212566111E+01 -0.37743975072E+02 -0.83754007116E+01  0.38771829098E+02  0.20000026590E+01 0.  0.
         13    1    3    3    0    0  0.21212566111E+01  0.37743975072E+02  0.24645049205E+02  0.45127563619E+02  0.10566000000E+00 0. -1.
         13    1    4    4    0    0  0.15293440654E+00 -0.61081064834E+01 -0.16960039245E+01  0.63419198270E+01  0.10566000000E+00 0. -1.
        -13    1    4    4    0    0 -0.15839145051E+01 -0.22903738131E+02 -0.43650716887E+01  0.23369959786E+02  0.10566000000E+00 0.  1.
        -14    1    4    4    0    0 -0.69027651260E+00 -0.87321304584E+01 -0.23143250985E+01  0.90599494848E+01  0.00000000000E+00 0.  1.
<mgrwt>
<rscale>  0 0.82306784E+02</rscale>
<asrwt>0</asrwt>
<pdfrwt beam="1">  1        1 0.52022880E-02 0.82306784E+02</pdfrwt>
<pdfrwt beam="2">  1       -2 0.77053109E-02 0.82306784E+02</pdfrwt>
<totfact> 0.11384996E+05</totfact>
</mgrwt>
</event>
<event>
 8    1  0.1372337E-020  0.7471060E+02  0.7818608E-02  0.1344770E+00
         -2   -1    0    0    0  501 -0.00000000000E+00  0.00000000000E+00  0.14939448831E+03  0.14939448834E+03  0.25500000000E-02 0.  1.
          1   -1    0    0  501    0  0.00000000000E+00 -0.00000000000E+00 -0.93404944977E+01  0.93404958574E+01  0.50400000000E-02 0. -1.
        -24    2    1    2    0    0  0.00000000000E+00  0.35527136788E-14  0.14005399382E+03  0.15873498419E+03  0.74710601811E+02 0.  0.
         66    2    3    3    0    0 -0.23329813415E+02 -0.28241873205E+02  0.85328824458E+02  0.92881063115E+02  0.20000014786E+01 0.  0.
         13    1    3    3    0    0  0.23329813415E+02  0.28241873205E+02  0.54725169359E+02  0.65853921079E+02  0.10566000000E+00 0. -1.
         13    1    4    4    0    0 -0.21742480972E+01 -0.32734734970E+01  0.92179701502E+01  0.10021233519E+02  0.10566000000E+00 0. -1.
        -13    1    4    4    0    0 -0.11040354719E+02 -0.12345520101E+02  0.37175126870E+02  0.40697696750E+02  0.10566000000E+00 0.  1.
        -14    1    4    4    0    0 -0.10115210598E+02 -0.12622879606E+02  0.38935727438E+02  0.42162132846E+02  0.00000000000E+00 0.  1.
<mgrwt>
<rscale>  0 0.74710602E+02</rscale>
<asrwt>0</asrwt>
<pdfrwt beam="1">  1        1 0.14369993E-02 0.74710602E+02</pdfrwt>
<pdfrwt beam="2">  1       -2 0.22983767E-01 0.74710602E+02</pdfrwt>
<totfact> 0.11280826E+05</totfact>
</mgrwt>
</event>
<event>
 8    1  0.1372337E-020  0.8065443E+02  0.7818608E-02  0.1327204E+00
          1   -1    0    0  501    0  0.00000000000E+00  0.00000000000E+00  0.11029589123E+02  0.11029590275E+02  0.50400000000E-02 0. -1.
         -2   -1    0    0    0  501 -0.00000000000E+00 -0.00000000000E+00 -0.14744739097E+03  0.14744739100E+03  0.25500000000E-02 0.  1.
        -24    2    1    2    0    0  0.35527136788E-14 -0.17763568394E-14 -0.13641780185E+03  0.15847698127E+03  0.80654429085E+02 0.  0.
         66    2    3    3    0    0  0.26757950937E+02 -0.13571518706E+02 -0.12112431592E+03  0.12480093735E+03  0.19999995022E+01 0.  0.
         13    1    3    3    0    0 -0.26757950937E+02  0.13571518706E+02 -0.15293485934E+02  0.33676043924E+02  0.10566000000E+00 0. -1.
         13    1    4    4    0    0  0.42892352647E+01 -0.20097659192E+01 -0.17315067064E+02  0.17951585158E+02  0.10566000000E+00 0. -1.
        -13    1    4    4    0    0  0.18791842269E+02 -0.95696543700E+01 -0.84402429102E+02  0.86997085141E+02  0.10566000000E+00 0.  1.
        -14    1    4    4    0    0  0.36768734035E+01 -0.19920984169E+01 -0.19406819750E+02  0.19852267048E+02  0.00000000000E+00 0.  1.
<mgrwt>
<rscale>  0 0.80654429E+02</rscale>
<asrwt>0</asrwt>
<pdfrwt beam="1">  1        1 0.16968601E-02 0.80654429E+02</pdfrwt>
<pdfrwt beam="2">  1       -2 0.22684213E-01 0.80654429E+02</pdfrwt>
<totfact> 0.93069468E+04</totfact>
</mgrwt>
</event>
<event>
 8    1  0.1372337E-020  0.8093538E+02  0.7818608E-02  0.1326418E+00
         -2   -1    0    0    0  501 -0.00000000000E+00  0.00000000000E+00  0.29896102519E+02  0.29896102628E+02  0.25500000000E-02 0.  1.
          1   -1    0    0  501    0  0.00000000000E+00 -0.00000000000E+00 -0.54777505218E+02  0.54777505450E+02  0.50400000000E-02 0. -1.
        -24    2    1    2    0    0 -0.71054273576E-14  0.11102230246E-15 -0.24881402699E+02  0.84673608078E+02  0.80935379808E+02 0.  0.
         66    2    3    3    0    0 -0.33311918816E+02  0.94052982569E+00  0.11524276640E+02  0.35318231636E+02  0.20000005630E+01 0.  0.
         13    1    3    3    0    0  0.33311918816E+02 -0.94052982569E+00 -0.36405679339E+02  0.49355376442E+02  0.10566000000E+00 0. -1.
         13    1    4    4    0    0 -0.87267043764E+01  0.31495962911E+00  0.35499701624E+01  0.94269836656E+01  0.10566000000E+00 0. -1.
        -13    1    4    4    0    0 -0.73558503801E+01  0.26603576099E+00  0.17322330066E+01  0.75624800869E+01  0.10566000000E+00 0.  1.
         14    1    4    4    0    0 -0.17229364060E+02  0.35953443560E+00  0.62420734710E+01  0.18328767883E+02  0.00000000000E+00 0. -1.
<mgrwt>
<rscale>  0 0.80935380E+02</rscale>
<asrwt>0</asrwt>
<pdfrwt beam="1">  1        1 0.84273085E-02 0.80935380E+02</pdfrwt>
<pdfrwt beam="2">  1       -2 0.45994004E-02 0.80935380E+02</pdfrwt>
<totfact> 0.12923688E+05</totfact>
</mgrwt>
</event>
<event>
 8    1  0.1372337E-020  0.7423725E+02  0.7818608E-02  0.1346249E+00
         -2   -1    0    0    0  501 -0.00000000000E+00  0.00000000000E+00  0.82001111616E+02  0.82001111656E+02  0.25500000000E-02 0.  1.
          1   -1    0    0  501    0  0.00000000000E+00 -0.00000000000E+00 -0.16802118575E+02  0.16802119331E+02  0.50400000000E-02 0. -1.
        -24    2    1    2    0    0 -0.17763568394E-14  0.00000000000E+00  0.65198993041E+02  0.98803230987E+02  0.74237253182E+02 0.  0.
         66    2    3    3    0    0 -0.11085836793E+02  0.19059292256E+02  0.72319866233E+02  0.75632767078E+02  0.20000012929E+01 0.  0.
         13    1    3    3    0    0  0.11085836793E+02 -0.19059292256E+02 -0.71208731924E+01  0.23170463909E+02  0.10566000000E+00 0. -1.
         13    1    4    4    0    0 -0.27080309592E+01  0.47483744264E+01  0.17144556011E+02  0.17995206479E+02  0.10566000000E+00 0. -1.
        -13    1    4    4    0    0 -0.17893614768E+01  0.20181809352E+01  0.79437454794E+01  0.83898227073E+01  0.10566000000E+00 0.  1.
        -14    1    4    4    0    0 -0.65884443571E+01  0.12292736894E+02  0.47231564742E+02  0.49247737891E+02  0.00000000000E+00 0.  1.
<mgrwt>
<rscale>  0 0.74237253E+02</rscale>
<asrwt>0</asrwt>
<pdfrwt beam="1">  1        1 0.25849414E-02 0.74237253E+02</pdfrwt>
<pdfrwt beam="2">  1       -2 0.12615556E-01 0.74237253E+02</pdfrwt>
<totfact> 0.13445787E+05</totfact>
</mgrwt>
</event>
<event>
 8    1  0.1372337E-020  0.8089112E+02  0.7818608E-02  0.1326541E+00
         -2   -1    0    0    0  501 -0.00000000000E+00  0.00000000000E+00  0.53289644126E+02  0.53289644187E+02  0.25500000000E-02 0.  1.
          1   -1    0    0  501    0  0.00000000000E+00 -0.00000000000E+00 -0.30697206349E+02  0.30697206763E+02  0.50400000000E-02 0. -1.
        -24    2    1    2    0    0  0.00000000000E+00  0.00000000000E+00  0.22592437777E+02  0.83986850950E+02  0.80891117484E+02 0.  0.
         66    2    3    3    0    0 -0.21823919289E+02 -0.29169272417E+02  0.29486428271E+02  0.46910333107E+02  0.19999983942E+01 0.  0.
         13    1    3    3    0    0  0.21823919289E+02  0.29169272417E+02 -0.68939904932E+01  0.37076517843E+02  0.10566000000E+00 0. -1.
         13    1    4    4    0    0 -0.64857194440E+01 -0.93068787567E+01  0.93915863579E+01  0.14727376116E+02  0.10566000000E+00 0. -1.
        -13    1    4    4    0    0 -0.19981685226E+01 -0.24328537383E+01  0.19455665191E+01  0.37024110891E+01  0.10566000000E+00 0.  1.
        -14    1    4    4    0    0 -0.13340031322E+02 -0.17429539921E+02  0.18149275394E+02  0.28480545902E+02  0.00000000000E+00 0.  1.
<mgrwt>
<rscale>  0 0.80891117E+02</rscale>
<asrwt>0</asrwt>
<pdfrwt beam="1">  1        1 0.47226473E-02 0.80891117E+02</pdfrwt>
<pdfrwt beam="2">  1       -2 0.81984067E-02 0.80891117E+02</pdfrwt>
<totfact> 0.11763559E+05</totfact>
</mgrwt>
</event>
<event>
 8    1  0.1372337E-020  0.7677097E+02  0.7818608E-02  0.1338473E+00
          1   -1    0    0  501    0  0.00000000000E+00  0.00000000000E+00  0.21673377011E+02  0.21673377597E+02  0.50400000000E-02 0. -1.
         -2   -1    0    0    0  501 -0.00000000000E+00 -0.00000000000E+00 -0.67984109752E+02  0.67984109799E+02  0.25500000000E-02 0.  1.
        -24    2    1    2    0    0  0.00000000000E+00 -0.35527136788E-14 -0.46310732740E+02  0.89657487397E+02  0.76770965080E+02 0.  0.
         66    2    3    3    0    0 -0.10112489430E+01  0.28441867884E+02 -0.53207392677E+02  0.60373745226E+02  0.20000010050E+01 0.  0.
         13    1    3    3    0    0  0.10112489430E+01 -0.28441867884E+02  0.68966599367E+01  0.29283742170E+02  0.10566000000E+00 0. -1.
         13    1    4    4    0    0 -0.55001577633E+00  0.52736769303E+01 -0.88745915272E+01  0.10338458518E+02  0.10566000000E+00 0. -1.
        -13    1    4    4    0    0  0.33879856537E+00  0.60108243477E+01 -0.11634235830E+02  0.13100053481E+02  0.10566000000E+00 0.  1.
         14    1    4    4    0    0 -0.80003173206E+00  0.17157366606E+02 -0.32698565319E+02  0.36935233228E+02  0.00000000000E+00 0. -1.
<mgrwt>
<rscale>  0 0.76770965E+02</rscale>
<asrwt>0</asrwt>
<pdfrwt beam="1">  1        1 0.33343658E-02 0.76770965E+02</pdfrwt>
<pdfrwt beam="2">  1       -2 0.10459094E-01 0.76770965E+02</pdfrwt>
<totfact> 0.12831796E+05</totfact>
</mgrwt>
</event>
<event>
 8    1  0.1372337E-020  0.8206928E+02  0.7818608E-02  0.1323280E+00
          1   -1    0    0  501    0  0.00000000000E+00  0.00000000000E+00  0.91151426675E+01  0.91151440608E+01  0.50400000000E-02 0. -1.
         -2   -1    0    0    0  501 -0.00000000000E+00 -0.00000000000E+00 -0.18473013338E+03  0.18473013340E+03  0.25500000000E-02 0.  1.
        -24    2    1    2    0    0  0.00000000000E+00  0.00000000000E+00 -0.17561499071E+03  0.19384527746E+03  0.82069279453E+02 0.  0.
         66    2    3    3    0    0  0.13874685904E+02  0.37673641942E+02 -0.68094093058E+02  0.79073483003E+02  0.19999996688E+01 0.  0.
         13    1    3    3    0    0 -0.13874685904E+02 -0.37673641942E+02 -0.10752089765E+03  0.11477179445E+03  0.10566000000E+00 0. -1.
         13    1    4    4    0    0  0.27397336950E+01  0.72680280220E+01 -0.12038711929E+02  0.14327320789E+02  0.10566000000E+00 0. -1.
        -13    1    4    4    0    0  0.41136607444E+01  0.12488319883E+02 -0.22015359362E+02  0.25643079965E+02  0.10566000000E+00 0.  1.
         14    1    4    4    0    0  0.70212914646E+01  0.17917294037E+02 -0.34040021768E+02  0.39103082250E+02  0.00000000000E+00 0. -1.
<mgrwt>
<rscale>  0 0.82069279E+02</rscale>
<asrwt>0</asrwt>
<pdfrwt beam="1">  1        1 0.14023299E-02 0.82069279E+02</pdfrwt>
<pdfrwt beam="2">  1       -2 0.28420018E-01 0.82069279E+02</pdfrwt>
<totfact> 0.82184235E+04</totfact>
</mgrwt>
</event>
<event>
 8    1  0.1372337E-020  0.8009429E+02  0.7818608E-02  0.1328784E+00
         -2   -1    0    0    0  501 -0.00000000000E+00  0.00000000000E+00  0.21445266818E+02  0.21445266970E+02  0.25500000000E-02 0.  1.
          1   -1    0    0  501    0  0.00000000000E+00 -0.00000000000E+00 -0.74784514547E+02  0.74784514717E+02  0.50400000000E-02 0. -1.
        -24    2    1    2    0    0  0.00000000000E+00  0.35527136788E-14 -0.53339247729E+02  0.96229781687E+02  0.80094291527E+02 0.  0.
         66    2    3    3    0    0 -0.23361831492E+01  0.18471215970E+02  0.15878680582E+02  0.24551498122E+02  0.19999979756E+01 0.  0.
         13    1    3    3    0    0  0.23361831492E+01 -0.18471215970E+02 -0.69217928311E+02  0.71678283565E+02  0.10566000000E+00 0. -1.
         13    1    4    4    0    0  0.16047753864E-01  0.88350731834E+00  0.12197647298E+01  0.15099115019E+01  0.10566000000E+00 0. -1.
        -13    1    4    4    0    0 -0.17642584701E+01  0.15201602035E+02  0.12285901736E+02  0.19625388096E+02  0.10566000000E+00 0.  1.
         14    1    4    4    0    0 -0.58797243296E+00  0.23861066164E+01  0.23730141159E+01  0.34161985248E+01  0.00000000000E+00 0. -1.
<mgrwt>
<rscale>  0 0.80094292E+02</rscale>
<asrwt>0</asrwt>
<pdfrwt beam="1">  1        1 0.11505310E-01 0.80094292E+02</pdfrwt>
<pdfrwt beam="2">  1       -2 0.32992719E-02 0.80094292E+02</pdfrwt>
<totfact> 0.13972072E+05</totfact>
</mgrwt>
</event>
<event>
 8    1  0.1372337E-020  0.8035381E+02  0.7818608E-02  0.1328050E+00
          1   -1    0    0  501    0  0.00000000000E+00  0.00000000000E+00  0.34163667968E+02  0.34163668340E+02  0.50400000000E-02 0. -1.
         -2   -1    0    0    0  501 -0.00000000000E+00 -0.00000000000E+00 -0.47248548097E+02  0.47248548166E+02  0.25500000000E-02 0.  1.
        -24    2    1    2    0    0  0.00000000000E+00  0.11102230246E-15 -0.13084880129E+02  0.81412216505E+02  0.80353810789E+02 0.  0.
         66    2    3    3    0    0  0.27142429820E+02 -0.29573941680E+00 -0.36523012075E+02  0.45549197231E+02  0.19999997641E+01 0.  0.
         13    1    3    3    0    0 -0.27142429820E+02  0.29573941680E+00  0.23438131946E+02  0.35863019274E+02  0.10566000000E+00 0. -1.
         13    1    4    4    0    0  0.52855073079E+01  0.19500425356E+00 -0.68663963456E+01  0.86679396035E+01  0.10566000000E+00 0. -1.
        -13    1    4    4    0    0  0.13521809577E+02 -0.74804952426E+00 -0.17217193668E+02  0.21905292378E+02  0.10566000000E+00 0.  1.
        -14    1    4    4    0    0  0.83351129352E+01  0.25730585390E+00 -0.12439422061E+02  0.14975965250E+02  0.00000000000E+00 0.  1.
<mgrwt>
<rscale>  0 0.80353811E+02</rscale>
<asrwt>0</asrwt>
<pdfrwt beam="1">  1        1 0.52559490E-02 0.80353811E+02</pdfrwt>
<pdfrwt beam="2">  1       -2 0.72690074E-02 0.80353811E+02</pdfrwt>
<totfact> 0.12215407E+05</totfact>
</mgrwt>
</event>
<event>
 8    1  0.1372337E-020  0.7567233E+02  0.7818608E-02  0.1341802E+00
         -2   -1    0    0    0  501 -0.00000000000E+00  0.00000000000E+00  0.65885902683E+02  0.65885902733E+02  0.25500000000E-02 0.  1.
          1   -1    0    0  501    0  0.00000000000E+00 -0.00000000000E+00 -0.21728095532E+02  0.21728096116E+02  0.50400000000E-02 0. -1.
        -24    2    1    2    0    0  0.00000000000E+00 -0.88817841970E-15  0.44157807152E+02  0.87613998849E+02  0.75672325601E+02 0.  0.
         66    2    3    3    0    0  0.30725998713E+02 -0.78318231949E+01  0.45939103179E+02  0.55855399524E+02  0.20000009072E+01 0.  0.
         13    1    3    3    0    0 -0.30725998713E+02  0.78318231949E+01 -0.17812960272E+01  0.31758599325E+02  0.10566000000E+00 0. -1.
         13    1    4    4    0    0  0.13216901549E+02 -0.36390559199E+01  0.18713368645E+02  0.23197640928E+02  0.10566000000E+00 0. -1.
        -13    1    4    4    0    0  0.11234276758E+02 -0.29880489226E+01  0.16806472194E+02  0.20435412457E+02  0.10566000000E+00 0.  1.
        -14    1    4    4    0    0  0.62748204065E+01 -0.12047183524E+01  0.10419262340E+02  0.12222346139E+02  0.00000000000E+00 0.  1.
<mgrwt>
<rscale>  0 0.75672326E+02</rscale>
<asrwt>0</asrwt>
<pdfrwt beam="1">  1        1 0.33427840E-02 0.75672326E+02</pdfrwt>
<pdfrwt beam="2">  1       -2 0.10136293E-01 0.75672326E+02</pdfrwt>
<totfact> 0.13390051E+05</totfact>
</mgrwt>
</event>
<event>
 8    1  0.1372337E-020  0.8023885E+02  0.7818608E-02  0.1328375E+00
         -2   -1    0    0    0  501 -0.00000000000E+00  0.00000000000E+00  0.12226148871E+02  0.12226149137E+02  0.25500000000E-02 0.  1.
          1   -1    0    0  501    0  0.00000000000E+00 -0.00000000000E+00 -0.13164964417E+03  0.13164964427E+03  0.50400000000E-02 0. -1.
        -24    2    1    2    0    0  0.00000000000E+00  0.00000000000E+00 -0.11942349530E+03  0.14387579340E+03  0.80238847811E+02 0.  0.
         66    2    3    3    0    0  0.25167435612E+02  0.27378088553E+02 -0.32876032179E+02  0.49676886379E+02  0.20000000807E+01 0.  0.
         13    1    3    3    0    0 -0.25167435612E+02 -0.27378088553E+02 -0.86547463122E+02  0.94198907026E+02  0.10566000000E+00 0. -1.
         13    1    4    4    0    0  0.16412425922E+02  0.18133812515E+02 -0.20720931538E+02  0.32055749076E+02  0.10566000000E+00 0.  1.
        -13    1    4    4    0    0  0.25599288905E+01  0.22513886124E+01 -0.30439715585E+01  0.45715329478E+01  0.10566000000E+00 0.  1.
        -14    1    4    4    0    0  0.61950807998E+01  0.69928874255E+01 -0.91111290824E+01  0.13049604355E+02  0.00000000000E+00 0.  1.
<mgrwt>
<rscale>  0 0.80238848E+02</rscale>
<asrwt>0</asrwt>
<pdfrwt beam="1">  1        1 0.20253791E-01 0.80238848E+02</pdfrwt>
<pdfrwt beam="2">  1       -2 0.18809461E-02 0.80238848E+02</pdfrwt>
<totfact> 0.15295124E+05</totfact>
</mgrwt>
</event>
<event>
 8    1  0.1528738E-020  0.7881904E+02  0.7818608E-02  0.1332437E+00
          1   -1    0    0  501    0  0.00000000000E+00  0.00000000000E+00  0.19664950874E+02  0.19664951519E+02  0.50400000000E-02 0. -1.
         -2   -1    0    0    0  501 -0.00000000000E+00 -0.00000000000E+00 -0.78978591501E+02  0.78978591542E+02  0.25500000000E-02 0.  1.
        -24    2    1    2    0    0  0.00000000000E+00 -0.88817841970E-15 -0.59313640627E+02  0.98643543061E+02  0.78819037188E+02 0.  0.
         66    2    3    3    0    0  0.17621595970E+02 -0.63724342861E+01 -0.73029339226E+02  0.75421568224E+02  0.20000005830E+01 0.  0.
         13    1    3    3    0    0 -0.17621595970E+02  0.63724342861E+01  0.13715698599E+02  0.23221974838E+02  0.10566000000E+00 0. -1.
         13    1    4    4    0    0  0.61894557887E+01 -0.15564422821E+01 -0.24583554519E+02  0.25398704541E+02  0.10566000000E+00 0. -1.
        -13    1    4    4    0    0  0.54180311389E+01 -0.16714668670E+01 -0.22694282672E+02  0.23392103217E+02  0.10566000000E+00 0.  1.
         14    1    4    4    0    0  0.60141090427E+01 -0.31445251370E+01 -0.25751502034E+02  0.26630760465E+02  0.00000000000E+00 0. -1.
<mgrwt>
<rscale>  0 0.78819037E+02</rscale>
<asrwt>0</asrwt>
<pdfrwt beam="1">  1        1 0.30253772E-02 0.78819037E+02</pdfrwt>
<pdfrwt beam="2">  1       -2 0.12150552E-01 0.78819037E+02</pdfrwt>
<totfact> 0.11639631E+05</totfact>
</mgrwt>
</event>
<event>
 8    1  0.1372337E-020  0.7979213E+02  0.7818608E-02  0.1329642E+00
          1   -1    0    0  501    0  0.00000000000E+00  0.00000000000E+00  0.12901517553E+03  0.12901517563E+03  0.50400000000E-02 0. -1.
         -2   -1    0    0    0  501 -0.00000000000E+00 -0.00000000000E+00 -0.12337276274E+02  0.12337276538E+02  0.25500000000E-02 0.  1.
        -24    2    1    2    0    0  0.00000000000E+00 -0.88817841970E-15  0.11667789926E+03  0.14135245217E+03  0.79792127173E+02 0.  0.
         66    2    3    3    0    0 -0.23987074136E+02  0.75336911232E+01  0.35572578401E+01  0.25471362657E+02  0.20000011684E+01 0.  0.
         13    1    3    3    0    0  0.23987074136E+02 -0.75336911232E+01  0.11312064142E+03  0.11588108951E+03  0.10566000000E+00 0. -1.
         13    1    4    4    0    0 -0.66094679917E+01  0.15803985141E+01  0.16448543582E+01  0.69928132030E+01  0.10566000000E+00 0. -1.
        -13    1    4    4    0    0 -0.14265763284E+02  0.47218443316E+01  0.13907567230E+01  0.15091493771E+02  0.10566000000E+00 0.  1.
        -14    1    4    4    0    0 -0.31118428611E+01  0.12314482775E+01  0.52164675898E+00  0.33870556821E+01  0.00000000000E+00 0.  1.
<mgrwt>
<rscale>  0 0.79792127E+02</rscale>
<asrwt>0</asrwt>
<pdfrwt beam="1">  1        1 0.19848490E-01 0.79792127E+02</pdfrwt>
<pdfrwt beam="2">  1       -2 0.18980424E-02 0.79792127E+02</pdfrwt>
<totfact> 0.15469747E+05</totfact>
</mgrwt>
</event>
<event>
 8    1  0.1372337E-020  0.7791240E+02  0.7818608E-02  0.1335082E+00
         -2   -1    0    0    0  501 -0.00000000000E+00  0.00000000000E+00  0.75719706212E+02  0.75719706255E+02  0.25500000000E-02 0.  1.
          1   -1    0    0  501    0  0.00000000000E+00 -0.00000000000E+00 -0.20042145580E+02  0.20042146213E+02  0.50400000000E-02 0. -1.
        -24    2    1    2    0    0 -0.44408920985E-15  0.00000000000E+00  0.55677560632E+02  0.95761852468E+02  0.77912397153E+02 0.  0.
         66    2    3    3    0    0  0.38253391377E+01  0.36356849938E+02  0.44307083161E+02  0.57476702881E+02  0.19999997245E+01 0.  0.
         13    1    3    3    0    0 -0.38253391377E+01 -0.36356849938E+02  0.11370477471E+02  0.38285149587E+02  0.10566000000E+00 0. -1.
         13    1    4    4    0    0  0.12578487066E+01  0.85788674597E+01  0.95476430438E+01  0.12897588999E+02  0.10566000000E+00 0. -1.
        -13    1    4    4    0    0  0.53272248614E+00  0.33020128624E+01  0.44526520664E+01  0.55699512251E+01  0.10566000000E+00 0.  1.
        -14    1    4    4    0    0  0.20347679450E+01  0.24475969616E+02  0.30306788051E+02  0.39009162657E+02  0.00000000000E+00 0.  1.
<mgrwt>
<rscale>  0 0.77912397E+02</rscale>
<asrwt>0</asrwt>
<pdfrwt beam="1">  1        1 0.30834071E-02 0.77912397E+02</pdfrwt>
<pdfrwt beam="2">  1       -2 0.11649186E-01 0.77912397E+02</pdfrwt>
<totfact> 0.12094349E+05</totfact>
</mgrwt>
</event>
<event>
 8    1  0.1372337E-020  0.8053977E+02  0.7818608E-02  0.1327527E+00
         -2   -1    0    0    0  501 -0.00000000000E+00  0.00000000000E+00  0.45868473580E+01  0.45868480668E+01  0.25500000000E-02 0.  1.
          1   -1    0    0  501    0  0.00000000000E+00 -0.00000000000E+00 -0.35354646829E+03  0.35354646832E+03  0.50400000000E-02 0. -1.
        -24    2    1    2    0    0  0.88817841970E-15  0.71054273576E-14 -0.34895962093E+03  0.35813331639E+03  0.80539774455E+02 0.  0.
         66    2    3    3    0    0  0.45575722982E+01  0.39106116186E+02 -0.13749034073E+03  0.14303025407E+03  0.19999990471E+01 0.  0.
         13    1    3    3    0    0 -0.45575722982E+01 -0.39106116186E+02 -0.21146928020E+03  0.21510306232E+03  0.10566000000E+00 0. -1.
         13    1    4    4    0    0  0.39225647123E+00  0.46286735428E+01 -0.18232708333E+02  0.18815453784E+02  0.10566000000E+00 0. -1.
        -13    1    4    4    0    0  0.39791470764E+01  0.30870436274E+02 -0.10634031094E+03  0.11080203221E+03  0.10566000000E+00 0.  1.
        -14    1    4    4    0    0  0.18616875054E+00  0.36070063694E+01 -0.12917321457E+02  0.13412768072E+02  0.00000000000E+00 0.  1.
<mgrwt>
<rscale>  0 0.80539774E+02</rscale>
<asrwt>0</asrwt>
<pdfrwt beam="1">  1        1 0.54391743E-01 0.80539774E+02</pdfrwt>
<pdfrwt beam="2">  1       -2 0.70566916E-03 0.80539774E+02</pdfrwt>
<totfact> 0.18270491E+05</totfact>
</mgrwt>
</event>
<event>
 8    1  0.1372337E-020  0.8257639E+02  0.7818608E-02  0.1321895E+00
          1   -1    0    0  501    0  0.00000000000E+00  0.00000000000E+00  0.30636410961E+03  0.30636410965E+03  0.50400000000E-02 0. -1.
         -2   -1    0    0    0  501 -0.00000000000E+00 -0.00000000000E+00 -0.55643430628E+01  0.55643436471E+01  0.25500000000E-02 0.  1.
        -24    2    1    2    0    0  0.00000000000E+00  0.00000000000E+00  0.30079976655E+03  0.31192845330E+03  0.82576391435E+02 0.  0.
         66    2    3    3    0    0  0.50955681113E+01  0.36657014592E+02  0.81554923188E+02  0.89581845416E+02  0.19999996878E+01 0.  0.
         13    1    3    3    0    0 -0.50955681113E+01 -0.36657014592E+02  0.21924484336E+03  0.22234660788E+03  0.10566000000E+00 0. -1.
         13    1    4    4    0    0  0.53813994281E+00  0.23446924428E+01  0.44306556376E+01  0.50427225448E+01  0.10566000000E+00 0. -1.
        -13    1    4    4    0    0  0.44298826449E+01  0.33203615903E+02  0.74290750080E+02  0.81493746268E+02  0.10566000000E+00 0.  1.
        -14    1    4    4    0    0  0.12754552352E+00  0.11087062464E+01  0.28335174700E+01  0.30453766030E+01  0.00000000000E+00 0.  1.
<mgrwt>
<rscale>  0 0.82576391E+02</rscale>
<asrwt>0</asrwt>
<pdfrwt beam="1">  1        1 0.47132940E-01 0.82576391E+02</pdfrwt>
<pdfrwt beam="2">  1       -2 0.85605282E-03 0.82576391E+02</pdfrwt>
<totfact> 0.16659590E+05</totfact>
</mgrwt>
</event>
<event>
 8    1  0.1407560E-020  0.7870397E+02  0.7818608E-02  0.1332770E+00
          1   -1    0    0  501    0  0.00000000000E+00  0.00000000000E+00  0.18211908000E+02  0.18211908697E+02  0.50400000000E-02 0. -1.
         -2   -1    0    0    0  501 -0.00000000000E+00 -0.00000000000E+00 -0.85031100664E+02  0.85031100702E+02  0.25500000000E-02 0.  1.
        -24    2    1    2    0    0  0.00000000000E+00  0.00000000000E+00 -0.66819192664E+02  0.10324300940E+03  0.78703967382E+02 0.  0.
         66    2    3    3    0    0 -0.92141009244E+01  0.18301469350E+02 -0.77463677705E+02  0.80152759032E+02  0.19999951755E+01 0.  0.
         13    1    3    3    0    0  0.92141009244E+01 -0.18301469350E+02  0.10644485040E+02  0.23090250368E+02  0.10566000000E+00 0. -1.
         13    1    4    4    0    0 -0.73761700014E+00  0.90187393826E+00 -0.35062061778E+01  0.36962279741E+01  0.10566000000E+00 0. -1.
        -13    1    4    4    0    0 -0.55821476183E+01  0.10713925423E+02 -0.44380093495E+02  0.45995134880E+02  0.10566000000E+00 0.  1.
         14    1    4    4    0    0 -0.28943363060E+01  0.66856699897E+01 -0.29577378032E+02  0.30461396178E+02  0.00000000000E+00 0. -1.
<mgrwt>
<rscale>  0 0.78703967E+02</rscale>
<asrwt>0</asrwt>
<pdfrwt beam="1">  1        1 0.28018321E-02 0.78703967E+02</pdfrwt>
<pdfrwt beam="2">  1       -2 0.13081708E-01 0.78703967E+02</pdfrwt>
<totfact> 0.11496142E+05</totfact>
</mgrwt>
</event>
<event>
 8    1  0.1372337E-020  0.8145663E+02  0.7818608E-02  0.1324968E+00
         -2   -1    0    0    0  501 -0.00000000000E+00  0.00000000000E+00  0.12343584141E+02  0.12343584404E+02  0.25500000000E-02 0.  1.
          1   -1    0    0  501    0  0.00000000000E+00 -0.00000000000E+00 -0.13438525376E+03  0.13438525386E+03  0.50400000000E-02 0. -1.
        -24    2    1    2    0    0 -0.71054273576E-14 -0.17763568394E-14 -0.12204166962E+03  0.14672883826E+03  0.81456631734E+02 0.  0.
         66    2    3    3    0    0 -0.38187247550E+02 -0.11846063285E+02 -0.47316015145E+02  0.61979031820E+02  0.20000013379E+01 0.  0.
         13    1    3    3    0    0  0.38187247550E+02  0.11846063285E+02 -0.74725654479E+02  0.84749806443E+02  0.10566000000E+00 0. -1.
         13    1    4    4    0    0 -0.14980848651E+02 -0.46368164065E+01 -0.17492774782E+02  0.23493280450E+02  0.10566000000E+00 0. -1.
        -13    1    4    4    0    0 -0.11575987596E+02 -0.38091576060E+01 -0.14151770544E+02  0.18676106234E+02  0.10566000000E+00 0.  1.
        -14    1    4    4    0    0 -0.11630411302E+02 -0.34000892728E+01 -0.15671469819E+02  0.19809645136E+02  0.00000000000E+00 0.  1.
<mgrwt>
<rscale>  0 0.81456632E+02</rscale>
<asrwt>0</asrwt>
<pdfrwt beam="1">  1        1 0.20674654E-01 0.81456632E+02</pdfrwt>
<pdfrwt beam="2">  1       -2 0.18990131E-02 0.81456632E+02</pdfrwt>
<totfact> 0.14743846E+05</totfact>
</mgrwt>
</event>
<event>
 8    1  0.1372337E-020  0.8214758E+02  0.7818608E-02  0.1323065E+00
          1   -1    0    0  501    0  0.00000000000E+00  0.00000000000E+00  0.15405938983E+03  0.15405938991E+03  0.50400000000E-02 0. -1.
         -2   -1    0    0    0  501 -0.00000000000E+00 -0.00000000000E+00 -0.10950688562E+02  0.10950688859E+02  0.25500000000E-02 0.  1.
        -24    2    1    2    0    0  0.00000000000E+00  0.17763568394E-14  0.14310870127E+03  0.16501007877E+03  0.82147584976E+02 0.  0.
         66    2    3    3    0    0 -0.27143200278E+02  0.14558075828E+02  0.17088560531E+02  0.35280444807E+02  0.19999979054E+01 0.  0.
         13    1    3    3    0    0  0.27143200278E+02 -0.14558075828E+02  0.12602014074E+03  0.12972963397E+03  0.10566000000E+00 0. -1.
         13    1    4    4    0    0 -0.12428941168E+01  0.27259596466E+00  0.56252747065E+00  0.13952403150E+01  0.10566000000E+00 0. -1.
        -13    1    4    4    0    0 -0.14004393852E+02  0.75000981880E+01  0.89576258843E+01  0.18238002783E+02  0.10566000000E+00 0.  1.
         14    1    4    4    0    0 -0.11895912308E+02  0.67853816750E+01  0.75684071761E+01  0.15647201708E+02  0.00000000000E+00 0. -1.
<mgrwt>
<rscale>  0 0.82147585E+02</rscale>
<asrwt>0</asrwt>
<pdfrwt beam="1">  1        1 0.23701443E-01 0.82147585E+02</pdfrwt>
<pdfrwt beam="2">  1       -2 0.16847214E-02 0.82147585E+02</pdfrwt>
<totfact> 0.14781377E+05</totfact>
</mgrwt>
</event>
<event>
 8    1  0.1372337E-020  0.7922903E+02  0.7818608E-02  0.1331254E+00
          1   -1    0    0  501    0  0.00000000000E+00  0.00000000000E+00  0.91665563367E+02  0.91665563506E+02  0.50400000000E-02 0. -1.
         -2   -1    0    0    0  501 -0.00000000000E+00 -0.00000000000E+00 -0.17119949705E+02  0.17119949895E+02  0.25500000000E-02 0.  1.
        -24    2    1    2    0    0  0.00000000000E+00  0.71054273576E-14  0.74545613662E+02  0.10878551340E+03  0.79229031356E+02 0.  0.
         66    2    3    3    0    0 -0.17038543899E+02 -0.35730872303E+02  0.38045646501E+02  0.54940680960E+02  0.19999982239E+01 0.  0.
         13    1    3    3    0    0  0.17038543899E+02  0.35730872303E+02  0.36499967161E+02  0.53844832441E+02  0.10566000000E+00 0. -1.
         13    1    4    4    0    0 -0.52387987224E+01 -0.10296430805E+02  0.10749798791E+02  0.15780710930E+02  0.10566000000E+00 0. -1.
        -13    1    4    4    0    0 -0.11831919415E+02 -0.25333420872E+02  0.27106196343E+02  0.38942696034E+02  0.10566000000E+00 0.  1.
         14    1    4    4    0    0  0.32174238208E-01 -0.10102062583E+00  0.18965136657E+00  0.21727399589E+00  0.00000000000E+00 0. -1.
<mgrwt>
<rscale>  0 0.79229031E+02</rscale>
<asrwt>0</asrwt>
<pdfrwt beam="1">  1        1 0.14102394E-01 0.79229031E+02</pdfrwt>
<pdfrwt beam="2">  1       -2 0.26338385E-02 0.79229031E+02</pdfrwt>
<totfact> 0.14872487E+05</totfact>
</mgrwt>
</event>
<event>
 8    1  0.1372337E-020  0.7989925E+02  0.7818608E-02  0.1329338E+00
          1   -1    0    0  501    0  0.00000000000E+00  0.00000000000E+00  0.27488064653E+02  0.27488065115E+02  0.50400000000E-02 0. -1.
         -2   -1    0    0    0  501 -0.00000000000E+00 -0.00000000000E+00 -0.58060561221E+02  0.58060561276E+02  0.25500000000E-02 0.  1.
        -24    2    1    2    0    0 -0.35527136788E-14 -0.35527136788E-14 -0.30572496568E+02  0.85548626391E+02  0.79899248626E+02 0.  0.
         66    2    3    3    0    0  0.28662183432E+02  0.26709955388E+02 -0.70698030512E+01  0.39861316966E+02  0.19999997960E+01 0.  0.
         13    1    3    3    0    0 -0.28662183432E+02 -0.26709955388E+02 -0.23502693517E+02  0.45687309425E+02  0.10566000000E+00 0. -1.
         13    1    4    4    0    0  0.26545394770E+00  0.35670768772E+00 -0.30483959177E-01  0.45803873220E+00  0.10566000000E+00 0.  1.
        -13    1    4    4    0    0  0.14580285750E+02  0.13133161477E+02 -0.42536396484E+01  0.20079075607E+02  0.10566000000E+00 0.  1.
        -14    1    4    4    0    0  0.13816443734E+02  0.13220086223E+02 -0.27856794437E+01  0.19324202627E+02  0.00000000000E+00 0.  1.
<mgrwt>
<rscale>  0 0.79899249E+02</rscale>
<asrwt>0</asrwt>
<pdfrwt beam="1">  1        1 0.42289331E-02 0.79899249E+02</pdfrwt>
<pdfrwt beam="2">  1       -2 0.89323940E-02 0.79899249E+02</pdfrwt>
<totfact> 0.11949182E+05</totfact>
</mgrwt>
</event>
<event>
 8    1  0.1372337E-020  0.7959683E+02  0.7818608E-02  0.1330199E+00
          1   -1    0    0  501    0  0.00000000000E+00  0.00000000000E+00  0.47352904973E+01  0.47352931794E+01  0.50400000000E-02 0. -1.
         -2   -1    0    0    0  501 -0.00000000000E+00 -0.00000000000E+00 -0.33449130477E+03  0.33449130478E+03  0.25500000000E-02 0.  1.
        -24    2    1    2    0    0  0.00000000000E+00  0.44408920985E-15 -0.32975601427E+03  0.33922659796E+03  0.79596832938E+02 0.  0.
         66    2    3    3    0    0  0.37460640697E+02 -0.32539791877E+01 -0.10973898242E+03  0.11601953389E+03  0.19999997492E+01 0.  0.
         13    1    3    3    0    0 -0.37460640697E+02  0.32539791877E+01 -0.22001703185E+03  0.22320706407E+03  0.10566000000E+00 0. -1.
         13    1    4    4    0    0  0.65204023026E+01 -0.66737190797E+00 -0.20777823198E+02  0.21787384706E+02  0.10566000000E+00 0. -1.
        -13    1    4    4    0    0  0.10850540887E+02 -0.65312952693E+00 -0.29506147083E+02  0.31444947057E+02  0.10566000000E+00 0.  1.
        -14    1    4    4    0    0  0.20089697508E+02 -0.19334777528E+01 -0.59455012140E+02  0.62787202126E+02  0.00000000000E+00 0.  1.
<mgrwt>
<rscale>  0 0.79596833E+02</rscale>
<asrwt>0</asrwt>
<pdfrwt beam="1">  1        1 0.72850670E-03 0.79596833E+02</pdfrwt>
<pdfrwt beam="2">  1       -2 0.51460182E-01 0.79596833E+02</pdfrwt>
<totfact> 0.66945212E+04</totfact>
</mgrwt>
</event>
<event>
 8    1  0.1372337E-020  0.7651014E+02  0.7818608E-02  0.1339257E+00
          1   -1    0    0  501    0  0.00000000000E+00  0.00000000000E+00  0.39499847354E+02  0.39499847675E+02  0.50400000000E-02 0. -1.
         -2   -1    0    0    0  501 -0.00000000000E+00 -0.00000000000E+00 -0.37049519096E+02  0.37049519183E+02  0.25500000000E-02 0.  1.
        -24    2    1    2    0    0  0.00000000000E+00  0.00000000000E+00  0.24503282583E+01  0.76549366859E+02  0.76510139576E+02 0.  0.
         66    2    3    3    0    0 -0.25330414304E+02 -0.10196653100E+02 -0.25542976846E+02  0.37443895145E+02  0.19999985591E+01 0.  0.
         13    1    3    3    0    0  0.25330414304E+02  0.10196653100E+02  0.27993305104E+02  0.39105471714E+02  0.10566000000E+00 0. -1.
         13    1    4    4    0    0 -0.80705011656E+01 -0.27406101545E+01 -0.83836781912E+01  0.11955800146E+02  0.10566000000E+00 0. -1.
        -13    1    4    4    0    0 -0.11899778085E+02 -0.50875990293E+01 -0.10984514543E+02  0.16975249811E+02  0.10566000000E+00 0.  1.
         14    1    4    4    0    0 -0.53601350529E+01 -0.23684439168E+01 -0.61747841118E+01  0.85128451882E+01  0.00000000000E+00 0. -1.
<mgrwt>
<rscale>  0 0.76510140E+02</rscale>
<asrwt>0</asrwt>
<pdfrwt beam="1">  1        1 0.60768996E-02 0.76510140E+02</pdfrwt>
<pdfrwt beam="2">  1       -2 0.56999261E-02 0.76510140E+02</pdfrwt>
<totfact> 0.14362086E+05</totfact>
</mgrwt>
</event>
<event>
 8    1  0.1372337E-020  0.7906974E+02  0.7818608E-02  0.1331712E+00
          1   -1    0    0  501    0  0.00000000000E+00  0.00000000000E+00  0.16516041813E+03  0.16516041821E+03  0.50400000000E-02 0. -1.
         -2   -1    0    0    0  501 -0.00000000000E+00 -0.00000000000E+00 -0.94635618461E+01  0.94635621896E+01  0.25500000000E-02 0.  1.
        -24    2    1    2    0    0 -0.35527136788E-14  0.00000000000E+00  0.15569685629E+03  0.17462398040E+03  0.79069738035E+02 0.  0.
         66    2    3    3    0    0 -0.23683534514E+02 -0.98097788715E+01  0.11501775134E+02  0.28167931835E+02  0.19999960012E+01 0.  0.
         13    1    3    3    0    0  0.23683534514E+02  0.98097788715E+01  0.14419508115E+03  0.14645604857E+03  0.10566000000E+00 0. -1.
         13    1    4    4    0    0 -0.28932305266E+01 -0.16030068874E+01  0.95578939986E+00  0.34445770965E+01  0.10566000000E+00 0.  1.
        -13    1    4    4    0    0 -0.17065163522E+02 -0.69733919877E+01  0.88199285486E+01  0.20436494452E+02  0.10566000000E+00 0.  1.
        -14    1    4    4    0    0 -0.37251404661E+01 -0.12333799964E+01  0.17260571857E+01  0.42868602865E+01  0.00000000000E+00 0.  1.
<mgrwt>
<rscale>  0 0.79069738E+02</rscale>
<asrwt>0</asrwt>
<pdfrwt beam="1">  1        1 0.25409293E-01 0.79069738E+02</pdfrwt>
<pdfrwt beam="2">  1       -2 0.14559327E-02 0.79069738E+02</pdfrwt>
<totfact> 0.16582929E+05</totfact>
</mgrwt>
</event>
<event>
 8    1  0.1372337E-020  0.7971459E+02  0.7818608E-02  0.1329863E+00
          1   -1    0    0  501    0  0.00000000000E+00  0.00000000000E+00  0.10833974066E+02  0.10833975238E+02  0.50400000000E-02 0. -1.
         -2   -1    0    0    0  501 -0.00000000000E+00 -0.00000000000E+00 -0.14663168333E+03  0.14663168336E+03  0.25500000000E-02 0.  1.
        -24    2    1    2    0    0 -0.17763568394E-14 -0.35527136788E-14 -0.13579770927E+03  0.15746565859E+03  0.79714589594E+02 0.  0.
         66    2    3    3    0    0  0.99747491648E+01  0.20794096898E+02 -0.13209408892E+03  0.13410719001E+03  0.19999995483E+01 0.  0.
         13    1    3    3    0    0 -0.99747491648E+01 -0.20794096898E+02 -0.37036203433E+01  0.23358468579E+02  0.10566000000E+00 0. -1.
         13    1    4    4    0    0  0.12999428084E+01  0.34515065793E+01 -0.23546175649E+02  0.23833512135E+02  0.10566000000E+00 0. -1.
        -13    1    4    4    0    0  0.72609101688E+01  0.13867977681E+02 -0.89783832826E+02  0.91138298330E+02  0.10566000000E+00 0.  1.
        -14    1    4    4    0    0  0.14138961876E+01  0.34746126376E+01 -0.18764080449E+02  0.19135379549E+02  0.00000000000E+00 0.  1.
<mgrwt>
<rscale>  0 0.79714590E+02</rscale>
<asrwt>0</asrwt>
<pdfrwt beam="1">  1        1 0.16667654E-02 0.79714590E+02</pdfrwt>
<pdfrwt beam="2">  1       -2 0.22558719E-01 0.79714590E+02</pdfrwt>
<totfact> 0.96092051E+04</totfact>
</mgrwt>
</event>
<event>
 8    1  0.1372337E-020  0.8050406E+02  0.7818608E-02  0.1327627E+00
          1   -1    0    0  501    0  0.00000000000E+00  0.00000000000E+00  0.13803078317E+02  0.13803079237E+02  0.50400000000E-02 0. -1.
         -2   -1    0    0    0  501 -0.00000000000E+00 -0.00000000000E+00 -0.11738148877E+03  0.11738148880E+03  0.25500000000E-02 0.  1.
        -24    2    1    2    0    0  0.00000000000E+00  0.35527136788E-14 -0.10357841045E+03  0.13118456803E+03  0.80504060634E+02 0.  0.
         66    2    3    3    0    0 -0.13015340905E+01 -0.29978685370E+02 -0.95479531515E+02  0.10010372873E+03  0.20000001507E+01 0.  0.
         13    1    3    3    0    0  0.13015340905E+01  0.29978685370E+02 -0.80988789353E+01  0.31080839299E+02  0.10566000000E+00 0. -1.
         13    1    4    4    0    0 -0.43575580204E-01 -0.87659439887E+00 -0.21651428375E+01  0.23386586142E+01  0.10566000000E+00 0. -1.
        -13    1    4    4    0    0  0.19915359582E+00 -0.10016090870E+02 -0.32610066393E+02  0.34114356695E+02  0.10566000000E+00 0.  1.
         14    1    4    4    0    0 -0.14571121062E+01 -0.19086000100E+02 -0.60704322284E+02  0.63650713425E+02  0.00000000000E+00 0. -1.
<mgrwt>
<rscale>  0 0.80504061E+02</rscale>
<asrwt>0</asrwt>
<pdfrwt beam="1">  1        1 0.21235507E-02 0.80504061E+02</pdfrwt>
<pdfrwt beam="2">  1       -2 0.18058690E-01 0.80504061E+02</pdfrwt>
<totfact> 0.10014045E+05</totfact>
</mgrwt>
</event>
<event>
 8    1  0.1372337E-020  0.7971558E+02  0.7818608E-02  0.1329861E+00
         -2   -1    0    0    0  501 -0.00000000000E+00  0.00000000000E+00  0.61103504688E+02  0.61103504741E+02  0.25500000000E-02 0.  1.
          1   -1    0    0  501    0  0.00000000000E+00 -0.00000000000E+00 -0.25999217539E+02  0.25999218028E+02  0.50400000000E-02 0. -1.
        -24    2    1    2    0    0  0.00000000000E+00  0.00000000000E+00  0.35104287148E+02  0.87102722769E+02  0.79715577760E+02 0.  0.
         66    2    3    3    0    0 -0.13219774688E+02 -0.81935198846E+01  0.57632118762E+02  0.59727358440E+02  0.20000055858E+01 0.  0.
         13    1    3    3    0    0  0.13219774688E+02  0.81935198846E+01 -0.22527831614E+02  0.27375364329E+02  0.10566000000E+00 0. -1.
         13    1    4    4    0    0 -0.27035247036E+01 -0.10666163216E+01  0.11003420887E+02  0.11381263175E+02  0.10566000000E+00 0. -1.
        -13    1    4    4    0    0 -0.33509882344E+01 -0.29452813533E+01  0.15298531824E+02  0.15936123882E+02  0.10566000000E+00 0.  1.
         14    1    4    4    0    0 -0.71652617495E+01 -0.41816222097E+01  0.31330166051E+02  0.32409971383E+02  0.00000000000E+00 0. -1.
<mgrwt>
<rscale>  0 0.79715578E+02</rscale>
<asrwt>0</asrwt>
<pdfrwt beam="1">  1        1 0.39998797E-02 0.79715578E+02</pdfrwt>
<pdfrwt beam="2">  1       -2 0.94005392E-02 0.79715578E+02</pdfrwt>
<totfact> 0.11905420E+05</totfact>
</mgrwt>
</event>
<event>
 8    1  0.1372337E-020  0.7505406E+02  0.7818608E-02  0.1343704E+00
         -2   -1    0    0    0  501 -0.00000000000E+00  0.00000000000E+00  0.12800596451E+02  0.12800596705E+02  0.25500000000E-02 0.  1.
          1   -1    0    0  501    0  0.00000000000E+00 -0.00000000000E+00 -0.11001659933E+03  0.11001659944E+03  0.50400000000E-02 0. -1.
        -24    2    1    2    0    0  0.00000000000E+00 -0.35527136788E-14 -0.97216002876E+02  0.12281719615E+03  0.75054063544E+02 0.  0.
         66    2    3    3    0    0  0.17987145308E+02  0.30690460579E+02 -0.29223064877E+02  0.46080682358E+02  0.19999997152E+01 0.  0.
         13    1    3    3    0    0 -0.17987145308E+02 -0.30690460579E+02 -0.67992937999E+02  0.76736513790E+02  0.10566000000E+00 0. -1.
         13    1    4    4    0    0  0.12218957645E+01  0.22770764370E+01 -0.26090312694E+01  0.36737330550E+01  0.10566000000E+00 0. -1.
        -13    1    4    4    0    0  0.13320514639E+02  0.21557204889E+02 -0.20625294405E+02  0.32673584533E+02  0.10566000000E+00 0.  1.
         14    1    4    4    0    0  0.34447349039E+01  0.68561792529E+01 -0.59887392027E+01  0.97333647699E+01  0.00000000000E+00 0. -1.
<mgrwt>
<rscale>  0 0.75054064E+02</rscale>
<asrwt>0</asrwt>
<pdfrwt beam="1">  1        1 0.16925630E-01 0.75054064E+02</pdfrwt>
<pdfrwt beam="2">  1       -2 0.19693226E-02 0.75054064E+02</pdfrwt>
<totfact> 0.17729939E+05</totfact>
</mgrwt>
</event>
<event>
 8    1  0.1372337E-020  0.7362251E+02  0.7818608E-02  0.1348191E+00
          1   -1    0    0  501    0  0.00000000000E+00  0.00000000000E+00  0.25055042607E+02  0.25055043114E+02  0.50400000000E-02 0. -1.
         -2   -1    0    0    0  501 -0.00000000000E+00 -0.00000000000E+00 -0.54083663648E+02  0.54083663708E+02  0.25500000000E-02 0.  1.
        -24    2    1    2    0    0  0.00000000000E+00 -0.71054273576E-14 -0.29028621041E+02  0.79138706822E+02  0.73622510674E+02 0.  0.
         66    2    3    3    0    0  0.37634755461E+01  0.32102233967E+02 -0.33400464880E+02  0.46522125818E+02  0.19999906382E+01 0.  0.
         13    1    3    3    0    0 -0.37634755461E+01 -0.32102233967E+02  0.43718438399E+01  0.32616581005E+02  0.10566000000E+00 0. -1.
         13    1    4    4    0    0  0.19535567968E+01  0.13511329267E+02 -0.14620393204E+02  0.20003486301E+02  0.10566000000E+00 0. -1.
        -13    1    4    4    0    0  0.17518388074E+01  0.18572318655E+02 -0.18669989038E+02  0.26392794739E+02  0.10566000000E+00 0.  1.
         14    1    4    4    0    0  0.58079941937E-01  0.18586044063E-01 -0.11008263855E+00  0.12584477740E+00  0.00000000000E+00 0. -1.
<mgrwt>
<rscale>  0 0.73622511E+02</rscale>
<asrwt>0</asrwt>
<pdfrwt beam="1">  1        1 0.38546220E-02 0.73622511E+02</pdfrwt>
<pdfrwt beam="2">  1       -2 0.83205636E-02 0.73622511E+02</pdfrwt>
<totfact> 0.14871878E+05</totfact>
</mgrwt>
</event>
<event>
 8    1  0.1372337E-020  0.7685143E+02  0.7818608E-02  0.1338232E+00
          1   -1    0    0  501    0  0.00000000000E+00  0.00000000000E+00  0.40288979681E+02  0.40288979996E+02  0.50400000000E-02 0. -1.
         -2   -1    0    0    0  501 -0.00000000000E+00 -0.00000000000E+00 -0.36648619742E+02  0.36648619831E+02  0.25500000000E-02 0.  1.
        -24    2    1    2    0    0  0.00000000000E+00 -0.35527136788E-14  0.36403599391E+01  0.76937599827E+02  0.76851428397E+02 0.  0.
         66    2    3    3    0    0  0.14027096199E+02 -0.23234854193E+02 -0.25373598648E+02  0.37208028547E+02  0.20000007145E+01 0.  0.
         13    1    3    3    0    0 -0.14027096199E+02  0.23234854193E+02  0.29013958587E+02  0.39729571280E+02  0.10566000000E+00 0. -1.
         13    1    4    4    0    0  0.23041600259E+01 -0.48845296992E+01 -0.42956108699E+01  0.69015375525E+01  0.10566000000E+00 0. -1.
        -13    1    4    4    0    0  0.80210249192E+01 -0.12455865656E+02 -0.14407055225E+02  0.20665426061E+02  0.10566000000E+00 0.  1.
         14    1    4    4    0    0  0.37019112544E+01 -0.58944588381E+01 -0.66709325529E+01  0.96410649337E+01  0.00000000000E+00 0. -1.
<mgrwt>
<rscale>  0 0.76851428E+02</rscale>
<asrwt>0</asrwt>
<pdfrwt beam="1">  1        1 0.61983046E-02 0.76851428E+02</pdfrwt>
<pdfrwt beam="2">  1       -2 0.56382492E-02 0.76851428E+02</pdfrwt>
<totfact> 0.14228123E+05</totfact>
</mgrwt>
</event>
<event>
 8    1  0.1372337E-020  0.7765981E+02  0.7818608E-02  0.1335827E+00
          1   -1    0    0  501    0  0.00000000000E+00  0.00000000000E+00  0.42863836692E+02  0.42863836988E+02  0.50400000000E-02 0. -1.
         -2   -1    0    0    0  501 -0.00000000000E+00 -0.00000000000E+00 -0.35175605011E+02  0.35175605104E+02  0.25500000000E-02 0.  1.
        -24    2    1    2    0    0 -0.35527136788E-14  0.00000000000E+00  0.76882316809E+01  0.78039442092E+02  0.77659806951E+02 0.  0.
         66    2    3    3    0    0 -0.18114656026E+02  0.24374586798E+02 -0.20427071240E+02  0.36654146795E+02  0.19999983279E+01 0.  0.
         13    1    3    3    0    0  0.18114656026E+02 -0.24374586798E+02  0.28115302921E+02  0.41385295297E+02  0.10566000000E+00 0. -1.
         13    1    4    4    0    0 -0.32341947746E+01  0.52653023966E+01 -0.42759039171E+01  0.75151808702E+01  0.10566000000E+00 0. -1.
        -13    1    4    4    0    0 -0.14345439847E+02  0.18130971263E+02 -0.15160018171E+02  0.27647080828E+02  0.10566000000E+00 0.  1.
        -14    1    4    4    0    0 -0.53502140408E+00  0.97831313818E+00 -0.99114915163E+00  0.14918850961E+01  0.00000000000E+00 0.  1.
<mgrwt>
<rscale>  0 0.77659807E+02</rscale>
<asrwt>0</asrwt>
<pdfrwt beam="1">  1        1 0.65944364E-02 0.77659807E+02</pdfrwt>
<pdfrwt beam="2">  1       -2 0.54116316E-02 0.77659807E+02</pdfrwt>
<totfact> 0.13951958E+05</totfact>
</mgrwt>
</event>
<event>
 8    1  0.1372337E-020  0.8020548E+02  0.7818608E-02  0.1328469E+00
          1   -1    0    0  501    0  0.00000000000E+00  0.00000000000E+00  0.35582540311E+03  0.35582540314E+03  0.50400000000E-02 0. -1.
         -2   -1    0    0    0  501 -0.00000000000E+00 -0.00000000000E+00 -0.45197151587E+01  0.45197158780E+01  0.25500000000E-02 0.  1.
        -24    2    1    2    0    0  0.00000000000E+00  0.00000000000E+00  0.35130568795E+03  0.36034511902E+03  0.80205476230E+02 0.  0.
         66    2    3    3    0    0  0.34581878847E+02 -0.20226341749E+02  0.17081277139E+03  0.17545943722E+03  0.19999981573E+01 0.  0.
         13    1    3    3    0    0 -0.34581878847E+02  0.20226341749E+02  0.18049291655E+03  0.18488568180E+03  0.10566000000E+00 0. -1.
         13    1    4    4    0    0  0.42801450564E+01 -0.30888797483E+01  0.23674350326E+02  0.24255862120E+02  0.10566000000E+00 0. -1.
        -13    1    4    4    0    0  0.43791983444E+01 -0.28353323773E+01  0.22484344566E+02  0.23081884724E+02  0.10566000000E+00 0.  1.
        -14    1    4    4    0    0  0.25922535446E+02 -0.14302129624E+02  0.12465407650E+03  0.12812169037E+03  0.00000000000E+00 0.  1.
<mgrwt>
<rscale>  0 0.80205476E+02</rscale>
<asrwt>0</asrwt>
<pdfrwt beam="1">  1        1 0.54742382E-01 0.80205476E+02</pdfrwt>
<pdfrwt beam="2">  1       -2 0.69534069E-03 0.80205476E+02</pdfrwt>
<totfact> 0.18492607E+05</totfact>
</mgrwt>
</event>
<event>
 8    1  0.1372337E-020  0.7933156E+02  0.7818608E-02  0.1330959E+00
          1   -1    0    0  501    0  0.00000000000E+00  0.00000000000E+00  0.68521801372E+01  0.68521819907E+01  0.50400000000E-02 0. -1.
         -2   -1    0    0    0  501 -0.00000000000E+00 -0.00000000000E+00 -0.22961652781E+03  0.22961652783E+03  0.25500000000E-02 0.  1.
        -24    2    1    2    0    0 -0.35527136788E-14 -0.71054273576E-14 -0.22276434768E+03  0.23646870982E+03  0.79331558207E+02 0.  0.
         66    2    3    3    0    0  0.31066207779E+02  0.21081017313E+02 -0.14937420230E+03  0.15403301876E+03  0.20000002572E+01 0.  0.
         13    1    3    3    0    0 -0.31066207779E+02 -0.21081017313E+02 -0.73390145379E+02  0.82435691054E+02  0.10566000000E+00 0. -1.
         13    1    4    4    0    0  0.12462782284E+01  0.52993929287E+00 -0.47395764686E+01  0.49303949349E+01  0.10566000000E+00 0.  1.
        -13    1    4    4    0    0  0.37359993334E+01  0.23346054444E+01 -0.18446597400E+02  0.18965658261E+02  0.10566000000E+00 0. -1.
        -14    1    4    4    0    0  0.26083930218E+02  0.18216472575E+02 -0.12618802843E+03  0.13013696557E+03  0.00000000000E+00 0.  1.
<mgrwt>
<rscale>  0 0.79331558E+02</rscale>
<asrwt>0</asrwt>
<pdfrwt beam="1">  1        1 0.10541819E-02 0.79331558E+02</pdfrwt>
<pdfrwt beam="2">  1       -2 0.35325614E-01 0.79331558E+02</pdfrwt>
<totfact> 0.81964249E+04</totfact>
</mgrwt>
</event>
<event>
 8    1  0.1372337E-020  0.8337653E+02  0.7818608E-02  0.1319734E+00
         -2   -1    0    0    0  501 -0.00000000000E+00  0.00000000000E+00  0.66224295325E+02  0.66224295374E+02  0.25500000000E-02 0.  1.
          1   -1    0    0  501    0  0.00000000000E+00 -0.00000000000E+00 -0.26242804814E+02  0.26242805297E+02  0.50400000000E-02 0. -1.
        -24    2    1    2    0    0  0.00000000000E+00  0.44408920985E-15  0.39981490512E+02  0.92467100672E+02  0.83376526212E+02 0.  0.
         66    2    3    3    0    0  0.33093348432E+02 -0.37451872142E+01  0.47765881303E+02  0.58264702485E+02  0.20000003257E+01 0.  0.
         13    1    3    3    0    0 -0.33093348432E+02  0.37451872142E+01 -0.77843907911E+01  0.34202398187E+02  0.10566000000E+00 0. -1.
         13    1    4    4    0    0  0.24632136238E+02 -0.22665705103E+01  0.34796610151E+02  0.42693028934E+02  0.10566000000E+00 0. -1.
        -13    1    4    4    0    0  0.73971287298E+01 -0.10760094303E+01  0.11428139707E+02  0.13656092082E+02  0.10566000000E+00 0.  1.
         14    1    4    4    0    0  0.10640834645E+01 -0.40260727357E+00  0.15411314445E+01  0.19155814692E+01  0.00000000000E+00 0. -1.
<mgrwt>
<rscale>  0 0.83376526E+02</rscale>
<asrwt>0</asrwt>
<pdfrwt beam="1">  1        1 0.40373546E-02 0.83376526E+02</pdfrwt>
<pdfrwt beam="2">  1       -2 0.10188353E-01 0.83376526E+02</pdfrwt>
<totfact> 0.10461131E+05</totfact>
</mgrwt>
</event>
<event>
 8    1  0.1372337E-020  0.7866562E+02  0.7818608E-02  0.1332881E+00
         -2   -1    0    0    0  501 -0.00000000000E+00  0.00000000000E+00  0.28571989426E+03  0.28571989427E+03  0.25500000000E-02 0.  1.
          1   -1    0    0  501    0  0.00000000000E+00 -0.00000000000E+00 -0.54146374524E+01  0.54146397981E+01  0.50400000000E-02 0. -1.
        -24    2    1    2    0    0  0.00000000000E+00  0.00000000000E+00  0.28030525681E+03  0.29113453407E+03  0.78665621042E+02 0.  0.
         66    2    3    3    0    0  0.12939756918E+02  0.71882615582E+01  0.27500681742E+03  0.27541216029E+03  0.19999988260E+01 0.  0.
         13    1    3    3    0    0 -0.12939756918E+02 -0.71882615582E+01  0.52984393908E+01  0.15722373782E+02  0.10566000000E+00 0. -1.
         13    1    4    4    0    0  0.31642831218E+01  0.15286372010E+01  0.73365420556E+02  0.73449612094E+02  0.10566000000E+00 0. -1.
        -13    1    4    4    0    0  0.40984091466E+01  0.16368388281E+01  0.82965594298E+02  0.83082953727E+02  0.10566000000E+00 0.  1.
         14    1    4    4    0    0  0.56770646494E+01  0.40227855291E+01  0.11867580256E+03  0.11887959447E+03  0.00000000000E+00 0. -1.
<mgrwt>
<rscale>  0 0.78665621E+02</rscale>
<asrwt>0</asrwt>
<pdfrwt beam="1">  1        1 0.83302158E-03 0.78665621E+02</pdfrwt>
<pdfrwt beam="2">  1       -2 0.43956894E-01 0.78665621E+02</pdfrwt>
<totfact> 0.75326976E+04</totfact>
</mgrwt>
</event>
<event>
 8    1  0.1372337E-020  0.7920243E+02  0.7818608E-02  0.1331330E+00
          1   -1    0    0  501    0  0.00000000000E+00  0.00000000000E+00  0.16521034371E+02  0.16521035140E+02  0.50400000000E-02 0. -1.
         -2   -1    0    0    0  501 -0.00000000000E+00 -0.00000000000E+00 -0.94924827921E+02  0.94924827955E+02  0.25500000000E-02 0.  1.
        -24    2    1    2    0    0  0.00000000000E+00  0.00000000000E+00 -0.78403793550E+02  0.11144586310E+03  0.79202434041E+02 0.  0.
         66    2    3    3    0    0 -0.31418501855E+02 -0.19256363410E+02 -0.59536015357E+02  0.70046177003E+02  0.19999993920E+01 0.  0.
         13    1    3    3    0    0  0.31418501855E+02  0.19256363410E+02 -0.18867778192E+02  0.41399686092E+02  0.10566000000E+00 0. -1.
         13    1    4    4    0    0 -0.90282740719E+01 -0.46802792562E+01 -0.17356177495E+02  0.20116232448E+02  0.10566000000E+00 0. -1.
        -13    1    4    4    0    0 -0.71046795910E+01 -0.46275256993E+01 -0.13211392809E+02  0.15698488149E+02  0.10566000000E+00 0.  1.
         14    1    4    4    0    0 -0.15285548192E+02 -0.99485584543E+01 -0.28968445054E+02  0.34231456406E+02  0.00000000000E+00 0. -1.
<mgrwt>
<rscale>  0 0.79202434E+02</rscale>
<asrwt>0</asrwt>
<pdfrwt beam="1">  1        1 0.25416977E-02 0.79202434E+02</pdfrwt>
<pdfrwt beam="2">  1       -2 0.14603819E-01 0.79202434E+02</pdfrwt>
<totfact> 0.11027551E+05</totfact>
</mgrwt>
</event>
<event>
 8    1  0.1372337E-020  0.8079690E+02  0.7818608E-02  0.1326805E+00
          1   -1    0    0  501    0  0.00000000000E+00  0.00000000000E+00  0.39284861688E+03  0.39284861691E+03  0.50400000000E-02 0. -1.
         -2   -1    0    0    0  501 -0.00000000000E+00 -0.00000000000E+00 -0.41543602727E+01  0.41543610553E+01  0.25500000000E-02 0.  1.
        -24    2    1    2    0    0  0.00000000000E+00  0.17763568394E-14  0.38869425660E+03  0.39700297796E+03  0.80796902141E+02 0.  0.
         66    2    3    3    0    0 -0.39356167888E+02 -0.89194463778E+01  0.20061356513E+03  0.20464180168E+03  0.20000008931E+01 0.  0.
         13    1    3    3    0    0  0.39356167888E+02  0.89194463778E+01  0.18808069147E+03  0.19236117629E+03  0.10566000000E+00 0. -1.
         13    1    4    4    0    0 -0.83643246687E+01 -0.16570319578E+01  0.38767909724E+02  0.39694705824E+02  0.10566000000E+00 0. -1.
        -13    1    4    4    0    0 -0.15356667411E+02 -0.38024356387E+01  0.79569302424E+02  0.81126880891E+02  0.10566000000E+00 0.  1.
        -14    1    4    4    0    0 -0.15635175808E+02 -0.34599787814E+01  0.82276352986E+02  0.83820214963E+02  0.00000000000E+00 0.  1.
<mgrwt>
<rscale>  0 0.80796902E+02</rscale>
<asrwt>0</asrwt>
<pdfrwt beam="1">  1        1 0.60438267E-01 0.80796902E+02</pdfrwt>
<pdfrwt beam="2">  1       -2 0.63913222E-03 0.80796902E+02</pdfrwt>
<totfact> 0.18450153E+05</totfact>
</mgrwt>
</event>
<event>
 8    1  0.1372337E-020  0.7925963E+02  0.7818608E-02  0.1331166E+00
         -2   -1    0    0    0  501 -0.00000000000E+00  0.00000000000E+00  0.29224569708E+03  0.29224569709E+03  0.25500000000E-02 0.  1.
          1   -1    0    0  501    0  0.00000000000E+00 -0.00000000000E+00 -0.53739783499E+01  0.53739807133E+01  0.50400000000E-02 0. -1.
        -24    2    1    2    0    0  0.00000000000E+00 -0.17763568394E-14  0.28687171873E+03  0.29761967780E+03  0.79259634173E+02 0.  0.
         66    2    3    3    0    0  0.28908486013E+01  0.10381602339E+02  0.28663039118E+03  0.28683987837E+03  0.20000003499E+01 0.  0.
         13    1    3    3    0    0 -0.28908486013E+01 -0.10381602339E+02  0.24132754517E+00  0.10779799431E+02  0.10566000000E+00 0. -1.
         13    1    4    4    0    0  0.21477976553E+00  0.51069475033E-01  0.68623134544E+01  0.68666766650E+01  0.10566000000E+00 0. -1.
        -13    1    4    4    0    0  0.12773723658E+00  0.10402087059E+01  0.34272546706E+02  0.34288729529E+02  0.10566000000E+00 0.  1.
        -14    1    4    4    0    0  0.25483315992E+01  0.92903241582E+01  0.24549553102E+03  0.24568447218E+03  0.00000000000E+00 0.  1.
<mgrwt>
<rscale>  0 0.79259634E+02</rscale>
<asrwt>0</asrwt>
<pdfrwt beam="1">  1        1 0.82676626E-03 0.79259634E+02</pdfrwt>
<pdfrwt beam="2">  1       -2 0.44960867E-01 0.79259634E+02</pdfrwt>
<totfact> 0.73000368E+04</totfact>
</mgrwt>
</event>
<event>
 8    1  0.1372337E-020  0.8081701E+02  0.7818608E-02  0.1326749E+00
          1   -1    0    0  501    0  0.00000000000E+00  0.00000000000E+00  0.10536970184E+03  0.10536970196E+03  0.50400000000E-02 0. -1.
         -2   -1    0    0    0  501 -0.00000000000E+00 -0.00000000000E+00 -0.15496362103E+02  0.15496362312E+02  0.25500000000E-02 0.  1.
        -24    2    1    2    0    0  0.00000000000E+00 -0.55511151231E-16  0.89873339737E+02  0.12086606427E+03  0.80817005001E+02 0.  0.
         66    2    3    3    0    0 -0.38078353751E+02 -0.34133207103E+00  0.65071623209E+02  0.75421440402E+02  0.19999983250E+01 0.  0.
         13    1    3    3    0    0  0.38078353751E+02  0.34133207103E+00  0.24801716528E+02  0.45444623871E+02  0.10566000000E+00 0. -1.
         13    1    4    4    0    0 -0.88983847779E+01  0.45686752949E+00  0.15934351220E+02  0.18256634203E+02  0.10566000000E+00 0. -1.
        -13    1    4    4    0    0 -0.10786397238E+02 -0.25063642405E+00  0.19204779390E+02  0.22028252301E+02  0.10566000000E+00 0.  1.
         14    1    4    4    0    0 -0.18393571735E+02 -0.54756317648E+00  0.29932492599E+02  0.35136553898E+02  0.00000000000E+00 0. -1.
<mgrwt>
<rscale>  0 0.80817005E+02</rscale>
<asrwt>0</asrwt>
<pdfrwt beam="1">  1        1 0.16210723E-01 0.80817005E+02</pdfrwt>
<pdfrwt beam="2">  1       -2 0.23840558E-02 0.80817005E+02</pdfrwt>
<totfact> 0.14428436E+05</totfact>
</mgrwt>
</event>
<event>
 8    1  0.1372337E-020  0.7996981E+02  0.7818608E-02  0.1329137E+00
         -2   -1    0    0    0  501 -0.00000000000E+00  0.00000000000E+00  0.11232777095E+02  0.11232777385E+02  0.25500000000E-02 0.  1.
          1   -1    0    0  501    0  0.00000000000E+00 -0.00000000000E+00 -0.14233278486E+03  0.14233278495E+03  0.50400000000E-02 0. -1.
        -24    2    1    2    0    0  0.00000000000E+00  0.00000000000E+00 -0.13110000776E+03  0.15356556233E+03  0.79969806171E+02 0.  0.
         66    2    3    3    0    0  0.26964988341E+02 -0.22198555239E+02 -0.10287136760E+03  0.10865728091E+03  0.19999928826E+01 0.  0.
         13    1    3    3    0    0 -0.26964988341E+02  0.22198555239E+02 -0.28228640159E+02  0.44908281420E+02  0.10566000000E+00 0. -1.
         13    1    4    4    0    0  0.11577115642E+02 -0.88290676186E+01 -0.41994297990E+02  0.44446757692E+02  0.10566000000E+00 0.  1.
        -13    1    4    4    0    0  0.44788593625E+01 -0.42378508167E+01 -0.19943366349E+02  0.20875070924E+02  0.10566000000E+00 0. -1.
         14    1    4    4    0    0  0.10909013336E+02 -0.91316368032E+01 -0.40933703264E+02  0.43335452295E+02  0.00000000000E+00 0. -1.
<mgrwt>
<rscale>  0 0.79969806E+02</rscale>
<asrwt>0</asrwt>
<pdfrwt beam="1">  1        1 0.21897350E-01 0.79969806E+02</pdfrwt>
<pdfrwt beam="2">  1       -2 0.17281197E-02 0.79969806E+02</pdfrwt>
<totfact> 0.15652944E+05</totfact>
</mgrwt>
</event>
<event>
 8    1  0.1419052E-020  0.8042501E+02  0.7818608E-02  0.1327850E+00
          1   -1    0    0  501    0  0.00000000000E+00  0.00000000000E+00  0.58442399402E+02  0.58442399619E+02  0.50400000000E-02 0. -1.
         -2   -1    0    0    0  501 -0.00000000000E+00 -0.00000000000E+00 -0.27669046865E+02  0.27669046982E+02  0.25500000000E-02 0.  1.
        -24    2    1    2    0    0  0.00000000000E+00  0.17763568394E-14  0.30773352537E+02  0.86111446601E+02  0.80425008607E+02 0.  0.
         66    2    3    3    0    0 -0.21725605576E+02  0.15513521438E+02 -0.16767232090E+02  0.31588152169E+02  0.20000001160E+01 0.  0.
         13    1    3    3    0    0  0.21725605576E+02 -0.15513521438E+02  0.47540584627E+02  0.54523294432E+02  0.10566000000E+00 0. -1.
         13    1    4    4    0    0 -0.89719138074E+01  0.71224381368E+01 -0.70879534667E+01  0.13471251269E+02  0.10566000000E+00 0. -1.
        -13    1    4    4    0    0 -0.10230810701E+02  0.72841150090E+01 -0.79499199587E+01  0.14864057671E+02  0.10566000000E+00 0.  1.
         14    1    4    4    0    0 -0.25228810677E+01  0.11069682922E+01 -0.17293586643E+01  0.32528432289E+01  0.00000000000E+00 0. -1.
<mgrwt>
<rscale>  0 0.80425009E+02</rscale>
<asrwt>0</asrwt>
<pdfrwt beam="1">  1        1 0.89911384E-02 0.80425009E+02</pdfrwt>
<pdfrwt beam="2">  1       -2 0.42567765E-02 0.80425009E+02</pdfrwt>
<totfact> 0.13287032E+05</totfact>
</mgrwt>
</event>
<event>
 8    1  0.1372337E-020  0.7959238E+02  0.7818608E-02  0.1330212E+00
          1   -1    0    0  501    0  0.00000000000E+00  0.00000000000E+00  0.39074249224E+01  0.39074281728E+01  0.50400000000E-02 0. -1.
         -2   -1    0    0    0  501 -0.00000000000E+00 -0.00000000000E+00 -0.40531454499E+03  0.40531454500E+03  0.25500000000E-02 0.  1.
        -24    2    1    2    0    0  0.71054273576E-14  0.35527136788E-14 -0.40140712007E+03  0.40922197317E+03  0.79592382078E+02 0.  0.
         66    2    3    3    0    0 -0.30536339307E+02 -0.18918544392E+02 -0.28858998032E+03  0.29082392621E+03  0.19999931602E+01 0.  0.
         13    1    3    3    0    0  0.30536339307E+02  0.18918544392E+02 -0.11281713975E+03  0.11839804696E+03  0.10566000000E+00 0. -1.
         13    1    4    4    0    0 -0.55899701017E+01 -0.29856380653E+01 -0.55868230796E+02  0.56226614487E+02  0.10566000000E+00 0. -1.
        -13    1    4    4    0    0 -0.48119143773E+01 -0.31127656563E+01 -0.43541566332E+02  0.43917228882E+02  0.10566000000E+00 0.  1.
         14    1    4    4    0    0 -0.20134454828E+02 -0.12820140670E+02 -0.18918018319E+03  0.19068008284E+03  0.00000000000E+00 0. -1.
<mgrwt>
<rscale>  0 0.79592382E+02</rscale>
<asrwt>0</asrwt>
<pdfrwt beam="1">  1        1 0.60114287E-03 0.79592382E+02</pdfrwt>
<pdfrwt beam="2">  1       -2 0.62356051E-01 0.79592382E+02</pdfrwt>
<totfact> 0.59354715E+04</totfact>
</mgrwt>
</event>
<event>
 8    1  0.1372337E-020  0.7657393E+02  0.7818608E-02  0.1339065E+00
          1   -1    0    0  501    0  0.00000000000E+00  0.00000000000E+00  0.33473515027E+02  0.33473515407E+02  0.50400000000E-02 0. -1.
         -2   -1    0    0    0  501 -0.00000000000E+00 -0.00000000000E+00 -0.43792577224E+02  0.43792577298E+02  0.25500000000E-02 0.  1.
        -24    2    1    2    0    0  0.00000000000E+00  0.35527136788E-14 -0.10319062196E+02  0.77266092705E+02  0.76573925309E+02 0.  0.
         66    2    3    3    0    0 -0.23971425476E+01 -0.23741898290E+02 -0.35340948849E+02  0.42689655606E+02  0.20000008476E+01 0.  0.
         13    1    3    3    0    0  0.23971425476E+01  0.23741898290E+02  0.25021886653E+02  0.34576437099E+02  0.10566000000E+00 0. -1.
         13    1    4    4    0    0 -0.14274293641E+01 -0.15864075803E+02 -0.23012965476E+02  0.27987750887E+02  0.10566000000E+00 0. -1.
        -13    1    4    4    0    0 -0.10915364616E+01 -0.50806565771E+01 -0.76076234779E+01  0.92136649667E+01  0.10566000000E+00 0.  1.
        -14    1    4    4    0    0  0.12182327803E+00 -0.27971659096E+01 -0.47203598950E+01  0.54882397520E+01  0.00000000000E+00 0.  1.
<mgrwt>
<rscale>  0 0.76573925E+02</rscale>
<asrwt>0</asrwt>
<pdfrwt beam="1">  1        1 0.51497716E-02 0.76573925E+02</pdfrwt>
<pdfrwt beam="2">  1       -2 0.67373196E-02 0.76573925E+02</pdfrwt>
<totfact> 0.13957814E+05</totfact>
</mgrwt>
</event>
<event>
 8    1  0.1372337E-020  0.7986348E+02  0.7818608E-02  0.1329439E+00
         -2   -1    0    0    0  501 -0.00000000000E+00  0.00000000000E+00  0.20273176721E+02  0.20273176882E+02  0.25500000000E-02 0.  1.
          1   -1    0    0  501    0  0.00000000000E+00 -0.00000000000E+00 -0.78652882655E+02  0.78652882816E+02  0.50400000000E-02 0. -1.
        -24    2    1    2    0    0 -0.71054273576E-14 -0.88817841970E-15 -0.58379705933E+02  0.98926059698E+02  0.79863478653E+02 0.  0.
         66    2    3    3    0    0  0.37934419776E+02  0.56696893078E+01 -0.15561522166E+02  0.41440638887E+02  0.19999996654E+01 0.  0.
         13    1    3    3    0    0 -0.37934419776E+02 -0.56696893078E+01 -0.42818183767E+02  0.57485420811E+02  0.10566000000E+00 0. -1.
         13    1    4    4    0    0  0.10433711108E+02  0.89037374972E+00 -0.42018195008E+01  0.11283684861E+02  0.10566000000E+00 0. -1.
        -13    1    4    4    0    0  0.98610616013E+01  0.15670839318E+01 -0.35118044277E+01  0.10584905400E+02  0.10566000000E+00 0.  1.
         14    1    4    4    0    0  0.17639647067E+02  0.32122316263E+01 -0.78478982377E+01  0.19572048626E+02  0.00000000000E+00 0. -1.
<mgrwt>
<rscale>  0 0.79863479E+02</rscale>
<asrwt>0</asrwt>
<pdfrwt beam="1">  1        1 0.12100443E-01 0.79863479E+02</pdfrwt>
<pdfrwt beam="2">  1       -2 0.31189503E-02 0.79863479E+02</pdfrwt>
<totfact> 0.14196659E+05</totfact>
</mgrwt>
</event>
<event>
 8    1  0.1372337E-020  0.7998552E+02  0.7818608E-02  0.1329093E+00
          1   -1    0    0  501    0  0.00000000000E+00  0.00000000000E+00  0.14195639085E+02  0.14195639980E+02  0.50400000000E-02 0. -1.
         -2   -1    0    0    0  501 -0.00000000000E+00 -0.00000000000E+00 -0.11266986377E+03  0.11266986380E+03  0.25500000000E-02 0.  1.
        -24    2    1    2    0    0  0.17763568394E-14  0.00000000000E+00 -0.98474224688E+02  0.12686550378E+03  0.79985518201E+02 0.  0.
         66    2    3    3    0    0  0.86948439325E+01  0.14135568729E+02 -0.10693756644E+03  0.10823612022E+03  0.19999974476E+01 0.  0.
         13    1    3    3    0    0 -0.86948439325E+01 -0.14135568729E+02  0.84633417514E+01  0.18629383563E+02  0.10566000000E+00 0. -1.
         13    1    4    4    0    0  0.49670128244E+01  0.70178864561E+01 -0.56044216766E+02  0.56699976575E+02  0.10566000000E+00 0. -1.
        -13    1    4    4    0    0  0.15806065915E+01  0.22690754810E+01 -0.20087746783E+02  0.20277469161E+02  0.10566000000E+00 0.  1.
        -14    1    4    4    0    0  0.21472245166E+01  0.48486067914E+01 -0.30805602890E+02  0.31258674482E+02  0.00000000000E+00 0.  1.
<mgrwt>
<rscale>  0 0.79985518E+02</rscale>
<asrwt>0</asrwt>
<pdfrwt beam="1">  1        1 0.21839446E-02 0.79985518E+02</pdfrwt>
<pdfrwt beam="2">  1       -2 0.17333825E-01 0.79985518E+02</pdfrwt>
<totfact> 0.10295677E+05</totfact>
</mgrwt>
</event>
<event>
 8    1  0.1372337E-020  0.7793003E+02  0.7818608E-02  0.1335030E+00
         -2   -1    0    0    0  501 -0.00000000000E+00  0.00000000000E+00  0.14395578612E+03  0.14395578614E+03  0.25500000000E-02 0.  1.
          1   -1    0    0  501    0  0.00000000000E+00 -0.00000000000E+00 -0.10546796426E+02  0.10546797630E+02  0.50400000000E-02 0. -1.
        -24    2    1    2    0    0  0.00000000000E+00 -0.35527136788E-14  0.13340898969E+03  0.15450258377E+03  0.77930031830E+02 0.  0.
         66    2    3    3    0    0  0.15657882914E+02  0.16208918222E+02  0.12970482217E+03  0.13166335549E+03  0.19999897226E+01 0.  0.
         13    1    3    3    0    0 -0.15657882914E+02 -0.16208918222E+02  0.37041675263E+01  0.22839228279E+02  0.10566000000E+00 0. -1.
         13    1    4    4    0    0  0.12408518134E+01  0.92228608695E+00  0.84673467236E+01  0.86079875361E+01  0.10566000000E+00 0. -1.
        -13    1    4    4    0    0  0.66878475928E+01  0.65220345374E+01  0.57915638509E+02  0.58664270113E+02  0.10566000000E+00 0.  1.
        -14    1    4    4    0    0  0.77291835082E+01  0.87645975973E+01  0.63321836936E+02  0.64391097845E+02  0.00000000000E+00 0.  1.
<mgrwt>
<rscale>  0 0.77930032E+02</rscale>
<asrwt>0</asrwt>
<pdfrwt beam="1">  1        1 0.16225842E-02 0.77930032E+02</pdfrwt>
<pdfrwt beam="2">  1       -2 0.22147044E-01 0.77930032E+02</pdfrwt>
<totfact> 0.10245455E+05</totfact>
</mgrwt>
</event>
<event>
 8    1  0.1372337E-020  0.7896049E+02  0.7818608E-02  0.1332028E+00
          1   -1    0    0  501    0  0.00000000000E+00  0.00000000000E+00  0.12464453071E+02  0.12464454090E+02  0.50400000000E-02 0. -1.
         -2   -1    0    0    0  501 -0.00000000000E+00 -0.00000000000E+00 -0.12505078138E+03  0.12505078141E+03  0.25500000000E-02 0.  1.
        -24    2    1    2    0    0  0.00000000000E+00  0.00000000000E+00 -0.11258632831E+03  0.13751523550E+03  0.78960488041E+02 0.  0.
         66    2    3    3    0    0  0.32269917098E+02 -0.75254875504E+01 -0.93629052360E+02  0.99339719943E+02  0.20000000187E+01 0.  0.
         13    1    3    3    0    0 -0.32269917098E+02  0.75254875504E+01 -0.18957275951E+02  0.38175515556E+02  0.10566000000E+00 0. -1.
         13    1    4    4    0    0  0.13058785173E+02 -0.28997156960E+01 -0.39468477114E+02  0.41673877562E+02  0.10566000000E+00 0. -1.
        -13    1    4    4    0    0  0.13277203446E+02 -0.36983889627E+01 -0.38533117047E+02  0.40924008670E+02  0.10566000000E+00 0.  1.
        -14    1    4    4    0    0  0.59339284791E+01 -0.92738289168E+00 -0.15627458199E+02  0.16741833711E+02  0.00000000000E+00 0.  1.
<mgrwt>
<rscale>  0 0.78960488E+02</rscale>
<asrwt>0</asrwt>
<pdfrwt beam="1">  1        1 0.19176083E-02 0.78960488E+02</pdfrwt>
<pdfrwt beam="2">  1       -2 0.19238581E-01 0.78960488E+02</pdfrwt>
<totfact> 0.10337815E+05</totfact>
</mgrwt>
</event>
<event>
 8    1  0.1372337E-020  0.8025514E+02  0.7818608E-02  0.1328329E+00
         -2   -1    0    0    0  501 -0.00000000000E+00  0.00000000000E+00  0.36340095610E+02  0.36340095699E+02  0.25500000000E-02 0.  1.
          1   -1    0    0  501    0  0.00000000000E+00 -0.00000000000E+00 -0.44309785061E+02  0.44309785348E+02  0.50400000000E-02 0. -1.
        -24    2    1    2    0    0 -0.22204460493E-15 -0.71054273576E-14 -0.79696894514E+01  0.80649881047E+02  0.80255139168E+02 0.  0.
         66    2    3    3    0    0 -0.12925851192E+01 -0.40045841722E+02 -0.56917249837E+01  0.40518341060E+02  0.20000033693E+01 0.  0.
         13    1    3    3    0    0  0.12925851192E+01  0.40045841722E+02 -0.22779644677E+01  0.40131539986E+02  0.10566000000E+00 0. -1.
         13    1    4    4    0    0  0.10870599782E-01 -0.87308066038E+01 -0.16379053956E+01  0.88837492222E+01  0.10566000000E+00 0. -1.
        -13    1    4    4    0    0 -0.15900142803E+00 -0.60229226015E+01 -0.13256088720E+01  0.61700308780E+01  0.10566000000E+00 0.  1.
        -14    1    4    4    0    0 -0.11444542909E+01 -0.25292112517E+02 -0.27282107161E+01  0.25464560960E+02  0.00000000000E+00 0.  1.
<mgrwt>
<rscale>  0 0.80255139E+02</rscale>
<asrwt>0</asrwt>
<pdfrwt beam="1">  1        1 0.68168901E-02 0.80255139E+02</pdfrwt>
<pdfrwt beam="2">  1       -2 0.55907839E-02 0.80255139E+02</pdfrwt>
<totfact> 0.12793475E+05</totfact>
</mgrwt>
</event>
<event>
 8    1  0.1372337E-020  0.7857740E+02  0.7818608E-02  0.1333138E+00
         -2   -1    0    0    0  501 -0.00000000000E+00  0.00000000000E+00  0.91733779590E+02  0.91733779626E+02  0.25500000000E-02 0.  1.
          1   -1    0    0  501    0  0.00000000000E+00 -0.00000000000E+00 -0.16826972517E+02  0.16826973272E+02  0.50400000000E-02 0. -1.
        -24    2    1    2    0    0  0.35527136788E-14  0.00000000000E+00  0.74906807073E+02  0.10856075290E+03  0.78577397028E+02 0.  0.
         66    2    3    3    0    0 -0.30788121399E+02 -0.35812678676E+01  0.70775132854E+02  0.77290706611E+02  0.19999997803E+01 0.  0.
         13    1    3    3    0    0  0.30788121399E+02  0.35812678676E+01  0.41316742193E+01  0.31270046286E+02  0.10566000000E+00 0. -1.
         13    1    4    4    0    0 -0.61173061888E+01 -0.94441616426E+00  0.13850558879E+02  0.15171107480E+02  0.10566000000E+00 0. -1.
        -13    1    4    4    0    0 -0.14611431399E+02 -0.19427168559E+01  0.31954234466E+02  0.35190230756E+02  0.10566000000E+00 0.  1.
         14    1    4    4    0    0 -0.10059383812E+02 -0.69413484748E+00  0.24970339509E+02  0.26929368375E+02  0.00000000000E+00 0. -1.
<mgrwt>
<rscale>  0 0.78577397E+02</rscale>
<asrwt>0</asrwt>
<pdfrwt beam="1">  1        1 0.25887651E-02 0.78577397E+02</pdfrwt>
<pdfrwt beam="2">  1       -2 0.14112889E-01 0.78577397E+02</pdfrwt>
<totfact> 0.11344638E+05</totfact>
</mgrwt>
</event>
<event>
 8    1  0.1372337E-020  0.7811765E+02  0.7818608E-02  0.1334480E+00
          1   -1    0    0  501    0  0.00000000000E+00  0.00000000000E+00  0.76065138953E+01  0.76065155650E+01  0.50400000000E-02 0. -1.
         -2   -1    0    0    0  501 -0.00000000000E+00 -0.00000000000E+00 -0.20056383541E+03  0.20056383543E+03  0.25500000000E-02 0.  1.
        -24    2    1    2    0    0  0.00000000000E+00  0.17763568394E-14 -0.19295732152E+03  0.20817035100E+03  0.78117649131E+02 0.  0.
         66    2    3    3    0    0  0.25496158167E+02  0.13922682042E+02 -0.16601626480E+03  0.16855057238E+03  0.20000286506E+01 0.  0.
         13    1    3    3    0    0 -0.25496158167E+02 -0.13922682042E+02 -0.26941056723E+02  0.39619778620E+02  0.10566000000E+00 0. -1.
         13    1    4    4    0    0  0.14629548505E+02  0.75133075740E+01 -0.90843852685E+02  0.92320583918E+02  0.10566000000E+00 0. -1.
        -13    1    4    4    0    0  0.59319138667E+01  0.35583869142E+01 -0.44080815235E+02  0.44620389457E+02  0.10566000000E+00 0.  1.
         14    1    4    4    0    0  0.49346957954E+01  0.28509875537E+01 -0.31091596876E+02  0.31609599000E+02  0.00000000000E+00 0. -1.
<mgrwt>
<rscale>  0 0.78117649E+02</rscale>
<asrwt>0</asrwt>
<pdfrwt beam="1">  1        1 0.11702332E-02 0.78117649E+02</pdfrwt>
<pdfrwt beam="2">  1       -2 0.30855971E-01 0.78117649E+02</pdfrwt>
<totfact> 0.90357910E+04</totfact>
</mgrwt>
</event>
<event>
 8    1  0.1372337E-020  0.7919263E+02  0.7818608E-02  0.1331358E+00
         -2   -1    0    0    0  501 -0.00000000000E+00  0.00000000000E+00  0.29920362604E+03  0.29920362605E+03  0.25500000000E-02 0.  1.
          1   -1    0    0  501    0  0.00000000000E+00 -0.00000000000E+00 -0.52401358190E+01  0.52401382428E+01  0.50400000000E-02 0. -1.
        -24    2    1    2    0    0  0.17763568394E-14  0.00000000000E+00  0.29396349022E+03  0.30444376429E+03  0.79192626136E+02 0.  0.
         66    2    3    3    0    0 -0.85199092330E+01 -0.21609648660E+02  0.27023218100E+03  0.27123605479E+03  0.20000015494E+01 0.  0.
         13    1    3    3    0    0  0.85199092330E+01  0.21609648660E+02  0.23731309221E+02  0.33207709495E+02  0.10566000000E+00 0. -1.
         13    1    4    4    0    0 -0.17083307776E+01 -0.64114283762E+01  0.74104784392E+02  0.74401310752E+02  0.10566000000E+00 0. -1.
        -13    1    4    4    0    0 -0.17074800696E+01 -0.40499228175E+01  0.55470532263E+02  0.55644482895E+02  0.10566000000E+00 0.  1.
         14    1    4    4    0    0 -0.51040983858E+01 -0.11148297466E+02  0.14065686434E+03  0.14119026115E+03  0.00000000000E+00 0. -1.
<mgrwt>
<rscale>  0 0.79192626E+02</rscale>
<asrwt>0</asrwt>
<pdfrwt beam="1">  1        1 0.80617504E-03 0.79192626E+02</pdfrwt>
<pdfrwt beam="2">  1       -2 0.46031321E-01 0.79192626E+02</pdfrwt>
<totfact> 0.72239201E+04</totfact>
</mgrwt>
</event>
<event>
 8    1  0.1372337E-020  0.7974049E+02  0.7818608E-02  0.1329790E+00
          1   -1    0    0  501    0  0.00000000000E+00  0.00000000000E+00  0.82813962549E+02  0.82813962702E+02  0.50400000000E-02 0. -1.
         -2   -1    0    0    0  501 -0.00000000000E+00 -0.00000000000E+00 -0.19195270141E+02  0.19195270310E+02  0.25500000000E-02 0.  1.
        -24    2    1    2    0    0  0.17763568394E-14  0.00000000000E+00  0.63618692408E+02  0.10200923301E+03  0.79740489063E+02 0.  0.
         66    2    3    3    0    0 -0.10362948708E+02 -0.12119550729E+02 -0.14883278324E+02  0.21904022266E+02  0.20000004870E+01 0.  0.
         13    1    3    3    0    0  0.10362948708E+02  0.12119550729E+02  0.78501970732E+02  0.80105210746E+02  0.10566000000E+00 0. -1.
         13    1    4    4    0    0 -0.14363020772E+01 -0.97007490134E+00 -0.14796463064E+01  0.22813430690E+01  0.10566000000E+00 0. -1.
        -13    1    4    4    0    0 -0.89119252069E+01 -0.11156065367E+02 -0.13286433459E+02  0.19504376008E+02  0.10566000000E+00 0.  1.
        -14    1    4    4    0    0 -0.14721423872E-01  0.65895387846E-02 -0.11719855886E+00  0.11830318906E+00  0.00000000000E+00 0.  1.
<mgrwt>
<rscale>  0 0.79740489E+02</rscale>
<asrwt>0</asrwt>
<pdfrwt beam="1">  1        1 0.12740609E-01 0.79740489E+02</pdfrwt>
<pdfrwt beam="2">  1       -2 0.29531186E-02 0.79740489E+02</pdfrwt>
<totfact> 0.14375239E+05</totfact>
</mgrwt>
</event>
<event>
 8    1  0.1372337E-020  0.7961270E+02  0.7818608E-02  0.1330154E+00
         -2   -1    0    0    0  501 -0.00000000000E+00  0.00000000000E+00  0.12758822499E+03  0.12758822501E+03  0.25500000000E-02 0.  1.
          1   -1    0    0  501    0  0.00000000000E+00 -0.00000000000E+00 -0.12419214186E+02  0.12419215209E+02  0.50400000000E-02 0. -1.
        -24    2    1    2    0    0 -0.71054273576E-14  0.00000000000E+00  0.11516901080E+03  0.14000744022E+03  0.79612701679E+02 0.  0.
         66    2    3    3    0    0  0.34419083266E+02 -0.13787361800E+02  0.82970071383E+02  0.90899930594E+02  0.19999995757E+01 0.  0.
         13    1    3    3    0    0 -0.34419083266E+02  0.13787361800E+02  0.32198939419E+02  0.49107509629E+02  0.10566000000E+00 0. -1.
         13    1    4    4    0    0  0.27482678805E+02 -0.10894524564E+02  0.64548121421E+02  0.70996193157E+02  0.10566000000E+00 0.  1.
        -13    1    4    4    0    0  0.14353262141E+01 -0.82589597281E+00  0.40331992525E+01  0.43612069138E+01  0.10566000000E+00 0. -1.
        -14    1    4    4    0    0  0.55010782465E+01 -0.20669412631E+01  0.14388750710E+02  0.15542530523E+02  0.00000000000E+00 0.  1.
<mgrwt>
<rscale>  0 0.79612702E+02</rscale>
<asrwt>0</asrwt>
<pdfrwt beam="1">  1        1 0.19106484E-02 0.79612702E+02</pdfrwt>
<pdfrwt beam="2">  1       -2 0.19628958E-01 0.79612702E+02</pdfrwt>
<totfact> 0.10062792E+05</totfact>
</mgrwt>
</event>
<event>
 8    1  0.1372337E-020  0.7951457E+02  0.7818608E-02  0.1330435E+00
         -2   -1    0    0    0  501 -0.00000000000E+00  0.00000000000E+00  0.22112488961E+02  0.22112489108E+02  0.25500000000E-02 0.  1.
          1   -1    0    0  501    0  0.00000000000E+00 -0.00000000000E+00 -0.71481851828E+02  0.71481852005E+02  0.50400000000E-02 0. -1.
        -24    2    1    2    0    0  0.00000000000E+00 -0.35527136788E-14 -0.49369362866E+02  0.93594341114E+02  0.79514569097E+02 0.  0.
         66    2    3    3    0    0 -0.15852497841E+02 -0.28548808669E+02  0.19416514890E+01  0.32773559119E+02  0.20000006491E+01 0.  0.
         13    1    3    3    0    0  0.15852497841E+02  0.28548808669E+02 -0.51311014355E+02  0.60820781995E+02  0.10566000000E+00 0. -1.
         13    1    4    4    0    0 -0.17231104032E+01 -0.25653089243E+01  0.40281385910E+00  0.31182274419E+01  0.10566000000E+00 0. -1.
        -13    1    4    4    0    0 -0.40533755147E+01 -0.74744344344E+01  0.11231810628E+01  0.85772794587E+01  0.10566000000E+00 0.  1.
        -14    1    4    4    0    0 -0.10076011923E+02 -0.18509065310E+02  0.41565656712E+00  0.21078052218E+02  0.00000000000E+00 0.  1.
<mgrwt>
<rscale>  0 0.79514569E+02</rscale>
<asrwt>0</asrwt>
<pdfrwt beam="1">  1        1 0.10997208E-01 0.79514569E+02</pdfrwt>
<pdfrwt beam="2">  1       -2 0.34019214E-02 0.79514569E+02</pdfrwt>
<totfact> 0.14150305E+05</totfact>
</mgrwt>
</event>
<event>
 8    1  0.1372337E-020  0.7948101E+02  0.7818608E-02  0.1330531E+00
         -2   -1    0    0    0  501 -0.00000000000E+00  0.00000000000E+00  0.39764415932E+02  0.39764416014E+02  0.25500000000E-02 0.  1.
          1   -1    0    0  501    0  0.00000000000E+00 -0.00000000000E+00 -0.39716610482E+02  0.39716610802E+02  0.50400000000E-02 0. -1.
        -24    2    1    2    0    0  0.35527136788E-14  0.00000000000E+00  0.47805450300E-01  0.79481026816E+02  0.79481012439E+02 0.  0.
         66    2    3    3    0    0  0.29899014136E+02 -0.24427013945E+02  0.93337457523E+01  0.39771205513E+02  0.19999804164E+01 0.  0.
         13    1    3    3    0    0 -0.29899014136E+02  0.24427013945E+02 -0.92859403020E+01  0.39709821302E+02  0.10566000000E+00 0. -1.
         13    1    4    4    0    0  0.11290560382E+02 -0.87419384684E+01  0.35360950109E+01  0.14710995000E+02  0.10566000000E+00 0. -1.
        -13    1    4    4    0    0  0.68795934682E+01 -0.60343344737E+01  0.28752366800E+01  0.95927133195E+01  0.10566000000E+00 0.  1.
         14    1    4    4    0    0  0.11728860286E+02 -0.96507410029E+01  0.29224140614E+01  0.15467497194E+02  0.00000000000E+00 0. -1.
<mgrwt>
<rscale>  0 0.79481012E+02</rscale>
<asrwt>0</asrwt>
<pdfrwt beam="1">  1        1 0.61102478E-02 0.79481012E+02</pdfrwt>
<pdfrwt beam="2">  1       -2 0.61176025E-02 0.79481012E+02</pdfrwt>
<totfact> 0.12917583E+05</totfact>
</mgrwt>
</event>
<event>
 8    1  0.1372337E-020  0.8101674E+02  0.7818608E-02  0.1326191E+00
          1   -1    0    0  501    0  0.00000000000E+00  0.00000000000E+00  0.21774822237E+03  0.21774822243E+03  0.50400000000E-02 0. -1.
         -2   -1    0    0    0  501 -0.00000000000E+00 -0.00000000000E+00 -0.75358959565E+01  0.75358963880E+01  0.25500000000E-02 0.  1.
        -24    2    1    2    0    0  0.00000000000E+00  0.00000000000E+00  0.21021232641E+03  0.22528411882E+03  0.81016739102E+02 0.  0.
         66    2    3    3    0    0  0.84350588975E+01 -0.28860204932E+02  0.29789621258E+02  0.42373142254E+02  0.20000006137E+01 0.  0.
         13    1    3    3    0    0 -0.84350588975E+01  0.28860204932E+02  0.18042270516E+03  0.18291097656E+03  0.10566000000E+00 0. -1.
         13    1    4    4    0    0  0.51051436567E-01 -0.40773317064E+00  0.31510110899E+00  0.52849345512E+00  0.10566000000E+00 0. -1.
        -13    1    4    4    0    0  0.50518010268E+01 -0.17203801599E+02  0.18869860375E+02  0.26030256966E+02  0.10566000000E+00 0.  1.
        -14    1    4    4    0    0  0.33322064342E+01 -0.11248670162E+02  0.10604659774E+02  0.15814391833E+02  0.00000000000E+00 0.  1.
<mgrwt>
<rscale>  0 0.81016739E+02</rscale>
<asrwt>0</asrwt>
<pdfrwt beam="1">  1        1 0.33499726E-01 0.81016739E+02</pdfrwt>
<pdfrwt beam="2">  1       -2 0.11593686E-02 0.81016739E+02</pdfrwt>
<totfact> 0.16393700E+05</totfact>
</mgrwt>
</event>
<event>
 8    1  0.1372337E-020  0.8101573E+02  0.7818608E-02  0.1326193E+00
         -2   -1    0    0    0  501 -0.00000000000E+00  0.00000000000E+00  0.54937281853E+02  0.54937281913E+02  0.25500000000E-02 0.  1.
          1   -1    0    0  501    0  0.00000000000E+00 -0.00000000000E+00 -0.29868369435E+02  0.29868369861E+02  0.50400000000E-02 0. -1.
        -24    2    1    2    0    0 -0.44408920985E-15  0.35527136788E-14  0.25068912418E+02  0.84805651773E+02  0.81015728120E+02 0.  0.
         66    2    3    3    0    0  0.24643829520E+01 -0.24801202384E+02  0.45935987229E+02  0.52299978450E+02  0.20000000273E+01 0.  0.
         13    1    3    3    0    0 -0.24643829520E+01  0.24801202384E+02 -0.20867074811E+02  0.32505673324E+02  0.10566000000E+00 0. -1.
         13    1    4    4    0    0  0.24620852383E+01 -0.19223251825E+02  0.34555982262E+02  0.39619721713E+02  0.10566000000E+00 0. -1.
        -13    1    4    4    0    0 -0.81888442288E-01 -0.13682092203E+01  0.25181253807E+01  0.28689408596E+01  0.10566000000E+00 0.  1.
         14    1    4    4    0    0  0.84186155952E-01 -0.42097413385E+01  0.88618795856E+01  0.98113158769E+01  0.00000000000E+00 0. -1.
<mgrwt>
<rscale>  0 0.81015728E+02</rscale>
<asrwt>0</asrwt>
<pdfrwt beam="1">  1        1 0.45951338E-02 0.81015728E+02</pdfrwt>
<pdfrwt beam="2">  1       -2 0.84518895E-02 0.81015728E+02</pdfrwt>
<totfact> 0.11654268E+05</totfact>
</mgrwt>
</event>
<event>
 8    1  0.1372337E-020  0.8145851E+02  0.7818608E-02  0.1324963E+00
         -2   -1    0    0    0  501 -0.00000000000E+00  0.00000000000E+00  0.43932404814E+01  0.43932412215E+01  0.25500000000E-02 0.  1.
          1   -1    0    0  501    0  0.00000000000E+00 -0.00000000000E+00 -0.37759645435E+03  0.37759645439E+03  0.50400000000E-02 0. -1.
        -24    2    1    2    0    0  0.00000000000E+00  0.00000000000E+00 -0.37320321387E+03  0.38198969561E+03  0.81458509112E+02 0.  0.
         66    2    3    3    0    0  0.40338850270E+02  0.45719868454E+01 -0.20057823784E+03  0.20465521104E+03  0.20000010012E+01 0.  0.
         13    1    3    3    0    0 -0.40338850270E+02 -0.45719868454E+01 -0.17262497603E+03  0.17733448457E+03  0.10566000000E+00 0. -1.
         13    1    4    4    0    0  0.64084331268E+01  0.98508753261E+00 -0.29588463350E+02  0.30290703855E+02  0.10566000000E+00 0. -1.
        -13    1    4    4    0    0  0.28363519055E+02  0.29510277254E+01 -0.14067915697E+03  0.14354035721E+03  0.10566000000E+00 0.  1.
        -14    1    4    4    0    0  0.55668980881E+01  0.63587158736E+00 -0.30310617522E+02  0.30824149973E+02  0.00000000000E+00 0.  1.
<mgrwt>
<rscale>  0 0.81458509E+02</rscale>
<asrwt>0</asrwt>
<pdfrwt beam="1">  1        1 0.58091737E-01 0.81458509E+02</pdfrwt>
<pdfrwt beam="2">  1       -2 0.67588351E-03 0.81458509E+02</pdfrwt>
<totfact> 0.17937766E+05</totfact>
</mgrwt>
</event>
<event>
 8    1  0.1372337E-020  0.8013356E+02  0.7818608E-02  0.1328673E+00
          1   -1    0    0  501    0  0.00000000000E+00  0.00000000000E+00  0.68831015605E+02  0.68831015789E+02  0.50400000000E-02 0. -1.
         -2   -1    0    0    0  501 -0.00000000000E+00 -0.00000000000E+00 -0.23323015981E+02  0.23323016121E+02  0.25500000000E-02 0.  1.
        -24    2    1    2    0    0 -0.71054273576E-14  0.00000000000E+00  0.45507999623E+02  0.92154031910E+02  0.80133560806E+02 0.  0.
         66    2    3    3    0    0 -0.26008031787E+02  0.27679267263E+02  0.81860660571E+01  0.38904642779E+02  0.19999996394E+01 0.  0.
         13    1    3    3    0    0  0.26008031787E+02 -0.27679267263E+02  0.37321933566E+02  0.53249389131E+02  0.10566000000E+00 0. -1.
         13    1    4    4    0    0 -0.19920180084E+01  0.21389235811E+01  0.11511441927E+01  0.31431555513E+01  0.10566000000E+00 0. -1.
        -13    1    4    4    0    0 -0.93781232983E+01  0.98689690792E+01  0.29881985812E+01  0.13938659981E+02  0.10566000000E+00 0.  1.
         14    1    4    4    0    0 -0.14637890481E+02  0.15671374603E+02  0.40467232832E+01  0.21822827246E+02  0.00000000000E+00 0. -1.
<mgrwt>
<rscale>  0 0.80133561E+02</rscale>
<asrwt>0</asrwt>
<pdfrwt beam="1">  1        1 0.10589387E-01 0.80133561E+02</pdfrwt>
<pdfrwt beam="2">  1       -2 0.35881563E-02 0.80133561E+02</pdfrwt>
<totfact> 0.13770654E+05</totfact>
</mgrwt>
</event>
<event>
 8    1  0.1372337E-020  0.8091005E+02  0.7818608E-02  0.1326488E+00
          1   -1    0    0  501    0  0.00000000000E+00  0.00000000000E+00  0.22739185094E+03  0.22739185100E+03  0.50400000000E-02 0. -1.
         -2   -1    0    0    0  501 -0.00000000000E+00 -0.00000000000E+00 -0.71973077007E+01  0.71973081524E+01  0.25500000000E-02 0.  1.
        -24    2    1    2    0    0  0.35527136788E-14  0.71054273576E-14  0.22019454324E+03  0.23458915915E+03  0.80910053254E+02 0.  0.
         66    2    3    3    0    0  0.28512648906E+02  0.28031800103E+02  0.92804043139E+02  0.10107098194E+03  0.20000007960E+01 0.  0.
         13    1    3    3    0    0 -0.28512648906E+02 -0.28031800103E+02  0.12739050010E+03  0.13351817721E+03  0.10566000000E+00 0. -1.
         13    1    4    4    0    0  0.59218699072E+01  0.52112411347E+01  0.16792678580E+02  0.18553457771E+02  0.10566000000E+00 0. -1.
        -13    1    4    4    0    0  0.13815765407E+02  0.13845980574E+02  0.45672352327E+02  0.49684620185E+02  0.10566000000E+00 0.  1.
         14    1    4    4    0    0  0.87750135918E+01  0.89745783940E+01  0.30339012233E+02  0.32832903986E+02  0.00000000000E+00 0. -1.
<mgrwt>
<rscale>  0 0.80910053E+02</rscale>
<asrwt>0</asrwt>
<pdfrwt beam="1">  1        1 0.34983362E-01 0.80910053E+02</pdfrwt>
<pdfrwt beam="2">  1       -2 0.11072782E-02 0.80910053E+02</pdfrwt>
<totfact> 0.16591289E+05</totfact>
</mgrwt>
</event>
<event>
 8    1  0.1372337E-020  0.7919358E+02  0.7818608E-02  0.1331356E+00
          1   -1    0    0  501    0  0.00000000000E+00  0.00000000000E+00  0.20330920938E+03  0.20330920944E+03  0.50400000000E-02 0. -1.
         -2   -1    0    0    0  501 -0.00000000000E+00 -0.00000000000E+00 -0.77119258931E+01  0.77119263146E+01  0.25500000000E-02 0.  1.
        -24    2    1    2    0    0 -0.35527136788E-14  0.00000000000E+00  0.19559728349E+03  0.21102113576E+03  0.79193575678E+02 0.  0.
         66    2    3    3    0    0  0.25847561058E+02 -0.17095971136E+02  0.32290937415E+02  0.44800371491E+02  0.20000012221E+01 0.  0.
         13    1    3    3    0    0 -0.25847561058E+02  0.17095971136E+02  0.16330634607E+03  0.16622076426E+03  0.10566000000E+00 0. -1.
         13    1    4    4    0    0  0.31232595250E+01 -0.18339556484E+01  0.36886021296E+01  0.51705989099E+01  0.10566000000E+00 0. -1.
        -13    1    4    4    0    0  0.20101386682E+02 -0.13172442846E+02  0.24330473428E+02  0.34198861068E+02  0.10566000000E+00 0.  1.
         14    1    4    4    0    0  0.26229148508E+01 -0.20895726409E+01  0.42718618565E+01  0.54309115125E+01  0.00000000000E+00 0. -1.
<mgrwt>
<rscale>  0 0.79193576E+02</rscale>
<asrwt>0</asrwt>
<pdfrwt beam="1">  1        1 0.31278340E-01 0.79193576E+02</pdfrwt>
<pdfrwt beam="2">  1       -2 0.11864502E-02 0.79193576E+02</pdfrwt>
<totfact> 0.17182792E+05</totfact>
</mgrwt>
</event>
<event>
 8    1  0.1372337E-020  0.7879344E+02  0.7818608E-02  0.1332511E+00
         -2   -1    0    0    0  501 -0.00000000000E+00  0.00000000000E+00  0.26103886708E+02  0.26103886832E+02  0.25500000000E-02 0.  1.
          1   -1    0    0  501    0  0.00000000000E+00 -0.00000000000E+00 -0.59458640148E+02  0.59458640362E+02  0.50400000000E-02 0. -1.
        -24    2    1    2    0    0  0.00000000000E+00  0.00000000000E+00 -0.33354753441E+02  0.85562527194E+02  0.78793441876E+02 0.  0.
         66    2    3    3    0    0 -0.40242128619E+01  0.10893068119E+02  0.24163511910E+02  0.26883610749E+02  0.19999992135E+01 0.  0.
         13    1    3    3    0    0  0.40242128619E+01 -0.10893068119E+02 -0.57518265351E+02  0.58678916445E+02  0.10566000000E+00 0. -1.
         13    1    4    4    0    0 -0.29545061935E+01  0.83285983131E+01  0.17478078256E+02  0.19585429284E+02  0.10566000000E+00 0.  1.
        -13    1    4    4    0    0 -0.10917370349E+01  0.17202823466E+01  0.41227657142E+01  0.45999589428E+01  0.10566000000E+00 0. -1.
         14    1    4    4    0    0  0.22030366595E-01  0.84418745934E+00  0.25626679401E+01  0.26982225214E+01  0.00000000000E+00 0. -1.
<mgrwt>
<rscale>  0 0.78793442E+02</rscale>
<asrwt>0</asrwt>
<pdfrwt beam="1">  1        1 0.91474831E-02 0.78793442E+02</pdfrwt>
<pdfrwt beam="2">  1       -2 0.40159826E-02 0.78793442E+02</pdfrwt>
<totfact> 0.14097135E+05</totfact>
</mgrwt>
</event>
<event>
 8    1  0.1372337E-020  0.7925106E+02  0.7818608E-02  0.1331190E+00
         -2   -1    0    0    0  501 -0.00000000000E+00  0.00000000000E+00  0.28220879025E+03  0.28220879026E+03  0.25500000000E-02 0.  1.
          1   -1    0    0  501    0  0.00000000000E+00 -0.00000000000E+00 -0.55639035039E+01  0.55639057866E+01  0.50400000000E-02 0. -1.
        -24    2    1    2    0    0  0.00000000000E+00  0.35527136788E-14  0.27664488675E+03  0.28777269605E+03  0.79251064523E+02 0.  0.
         66    2    3    3    0    0 -0.56499905333E+01 -0.29578176442E+02  0.23179425161E+03  0.23375064915E+03  0.19999962249E+01 0.  0.
         13    1    3    3    0    0  0.56499905333E+01  0.29578176442E+02  0.44850635133E+02  0.54022046893E+02  0.10566000000E+00 0. -1.
         13    1    4    4    0    0 -0.20590532707E+00 -0.21830791325E+01  0.15485950071E+02  0.15640781475E+02  0.10566000000E+00 0. -1.
        -13    1    4    4    0    0 -0.28898541060E+01 -0.18360943654E+02  0.14360787776E+03  0.14480576379E+03  0.10566000000E+00 0.  1.
         14    1    4    4    0    0 -0.25542311002E+01 -0.90341536554E+01  0.72700423783E+02  0.73304103889E+02  0.00000000000E+00 0. -1.
<mgrwt>
<rscale>  0 0.79251065E+02</rscale>
<asrwt>0</asrwt>
<pdfrwt beam="1">  1        1 0.85598531E-03 0.79251065E+02</pdfrwt>
<pdfrwt beam="2">  1       -2 0.43416738E-01 0.79251065E+02</pdfrwt>
<totfact> 0.74378530E+04</totfact>
</mgrwt>
</event>
<event>
 8    1  0.1372337E-020  0.8186542E+02  0.7818608E-02  0.1323839E+00
         -2   -1    0    0    0  501 -0.00000000000E+00  0.00000000000E+00  0.86685410426E+01  0.86685414176E+01  0.25500000000E-02 0.  1.
          1   -1    0    0  501    0  0.00000000000E+00 -0.00000000000E+00 -0.19328357445E+03  0.19328357452E+03  0.50400000000E-02 0. -1.
        -24    2    1    2    0    0 -0.88817841970E-15  0.71054273576E-14 -0.18461503341E+03  0.20195211593E+03  0.81865417424E+02 0.  0.
         66    2    3    3    0    0 -0.46673170014E+01  0.40640373171E+02 -0.92955916670E+02  0.10157867012E+03  0.19999999519E+01 0.  0.
         13    1    3    3    0    0  0.46673170014E+01 -0.40640373171E+02 -0.91659116737E+02  0.10037344581E+03  0.10566000000E+00 0. -1.
         13    1    4    4    0    0 -0.16659036989E+01  0.17399748884E+02 -0.40193099652E+02  0.43829475471E+02  0.10566000000E+00 0. -1.
        -13    1    4    4    0    0 -0.26044959262E+01  0.15837988494E+02 -0.36876993201E+02  0.40218765149E+02  0.10566000000E+00 0.  1.
         14    1    4    4    0    0 -0.39691737634E+00  0.74026357925E+01 -0.15885823817E+02  0.17530429499E+02  0.00000000000E+00 0. -1.
<mgrwt>
<rscale>  0 0.81865417E+02</rscale>
<asrwt>0</asrwt>
<pdfrwt beam="1">  1        1 0.29735931E-01 0.81865417E+02</pdfrwt>
<pdfrwt beam="2">  1       -2 0.13336219E-02 0.81865417E+02</pdfrwt>
<totfact> 0.15578767E+05</totfact>
</mgrwt>
</event>
<event>
 8    1  0.1372337E-020  0.8550434E+02  0.7818608E-02  0.1314119E+00
          1   -1    0    0  501    0  0.00000000000E+00  0.00000000000E+00  0.22932858804E+01  0.22932914187E+01  0.50400000000E-02 0. -1.
         -2   -1    0    0    0  501 -0.00000000000E+00 -0.00000000000E+00 -0.79699863186E+03  0.79699863186E+03  0.25500000000E-02 0.  1.
        -24    2    1    2    0    0  0.00000000000E+00  0.00000000000E+00 -0.79470534598E+03  0.79929192328E+03  0.85504337296E+02 0.  0.
         66    2    3    3    0    0  0.11207669717E+02  0.30041601434E+02 -0.66157856407E+03  0.66235814037E+03  0.19999999865E+01 0.  0.
         13    1    3    3    0    0 -0.11207669717E+02 -0.30041601434E+02 -0.13312678190E+03  0.13693378291E+03  0.10566000000E+00 0. -1.
         13    1    4    4    0    0  0.64424763820E+00  0.27156969898E+01 -0.60722950123E+02  0.60787152433E+02  0.10566000000E+00 0. -1.
        -13    1    4    4    0    0  0.26643081651E+01  0.72232230541E+01 -0.14615818672E+03  0.14636085610E+03  0.10566000000E+00 0.  1.
        -14    1    4    4    0    0  0.78991139132E+01  0.20102681390E+02 -0.45469742723E+03  0.45521013184E+03  0.00000000000E+00 0.  1.
<mgrwt>
<rscale>  0 0.85504337E+02</rscale>
<asrwt>0</asrwt>
<pdfrwt beam="1">  1        1 0.35281428E-03 0.85504337E+02</pdfrwt>
<pdfrwt beam="2">  1       -2 0.12261495E+00 0.85504337E+02</pdfrwt>
<totfact> 0.28077487E+04</totfact>
</mgrwt>
</event>
<event>
 8    1  0.1372337E-020  0.8697670E+02  0.7818608E-02  0.1310343E+00
         -2   -1    0    0    0  501 -0.00000000000E+00  0.00000000000E+00  0.34798687283E+02  0.34798687376E+02  0.25500000000E-02 0.  1.
          1   -1    0    0  501    0  0.00000000000E+00 -0.00000000000E+00 -0.54347930697E+02  0.54347930930E+02  0.50400000000E-02 0. -1.
        -24    2    1    2    0    0  0.71054273576E-14  0.17763568394E-14 -0.19549243414E+02  0.89146618306E+02  0.86976701693E+02 0.  0.
         66    2    3    3    0    0 -0.40569048737E+02  0.11218577756E+02  0.13316940171E+01  0.42160142440E+02  0.19999998127E+01 0.  0.
         13    1    3    3    0    0  0.40569048737E+02 -0.11218577756E+02 -0.20880937431E+02  0.46986475867E+02  0.10566000000E+00 0. -1.
         13    1    4    4    0    0 -0.71914408414E+01  0.22505117249E+01  0.24982531348E+00  0.75402387974E+01  0.10566000000E+00 0. -1.
        -13    1    4    4    0    0 -0.24776969914E+02  0.72270042360E+01  0.12961484872E+01  0.25842194050E+02  0.10566000000E+00 0.  1.
         14    1    4    4    0    0 -0.86006379817E+01  0.17410617951E+01 -0.21427978356E+00  0.87777095927E+01  0.00000000000E+00 0. -1.
<mgrwt>
<rscale>  0 0.86976702E+02</rscale>
<asrwt>0</asrwt>
<pdfrwt beam="1">  1        1 0.83612201E-02 0.86976702E+02</pdfrwt>
<pdfrwt beam="2">  1       -2 0.53536442E-02 0.86976702E+02</pdfrwt>
<totfact> 0.10557163E+05</totfact>
</mgrwt>
</event>
<event>
 8    1  0.1372337E-020  0.7975143E+02  0.7818608E-02  0.1329758E+00
         -2   -1    0    0    0  501 -0.00000000000E+00  0.00000000000E+00  0.35867335388E+02  0.35867335478E+02  0.25500000000E-02 0.  1.
          1   -1    0    0  501    0  0.00000000000E+00 -0.00000000000E+00 -0.44332050543E+02  0.44332050830E+02  0.50400000000E-02 0. -1.
        -24    2    1    2    0    0  0.35527136788E-14 -0.35527136788E-14 -0.84647151557E+01  0.80199386308E+02  0.79751427332E+02 0.  0.
         66    2    3    3    0    0  0.27201319001E+02 -0.26334701020E+02  0.82702443549E+01  0.38804963168E+02  0.19999979025E+01 0.  0.
         13    1    3    3    0    0 -0.27201319001E+02  0.26334701020E+02 -0.16734959511E+02  0.41394423140E+02  0.10566000000E+00 0. -1.
         13    1    4    4    0    0  0.19978138559E+02 -0.19934858263E+02  0.60325527502E+01  0.28860482514E+02  0.10566000000E+00 0. -1.
        -13    1    4    4    0    0  0.39081128629E+00 -0.21088981731E+00  0.22372443579E+00  0.50835483209E+00  0.10566000000E+00 0.  1.
        -14    1    4    4    0    0  0.68323691559E+01 -0.61889529399E+01  0.20139671689E+01  0.94361258222E+01  0.00000000000E+00 0.  1.
<mgrwt>
<rscale>  0 0.79751427E+02</rscale>
<asrwt>0</asrwt>
<pdfrwt beam="1">  1        1 0.68203155E-02 0.79751427E+02</pdfrwt>
<pdfrwt beam="2">  1       -2 0.55180516E-02 0.79751427E+02</pdfrwt>
<totfact> 0.13022059E+05</totfact>
</mgrwt>
</event>
<event>
 8    1  0.1372337E-020  0.8094429E+02  0.7818608E-02  0.1326393E+00
          1   -1    0    0  501    0  0.00000000000E+00  0.00000000000E+00  0.14915833457E+02  0.14915834308E+02  0.50400000000E-02 0. -1.
         -2   -1    0    0    0  501 -0.00000000000E+00 -0.00000000000E+00 -0.10981582109E+03  0.10981582112E+03  0.25500000000E-02 0.  1.
        -24    2    1    2    0    0  0.00000000000E+00  0.88817841970E-15 -0.94899987632E+02  0.12473165543E+03  0.80944290799E+02 0.  0.
         66    2    3    3    0    0  0.36082845332E+02 -0.66121056382E+01 -0.73733904923E+02  0.82379490317E+02  0.20000053702E+01 0.  0.
         13    1    3    3    0    0 -0.36082845332E+02  0.66121056382E+01 -0.21166082709E+02  0.42352165110E+02  0.10566000000E+00 0. -1.
         13    1    4    4    0    0  0.11154869001E+02 -0.25915489002E+01 -0.21538015787E+02  0.24393534312E+02  0.10566000000E+00 0. -1.
        -13    1    4    4    0    0  0.61856052340E+01 -0.82020599908E+00 -0.12480446116E+02  0.13953750366E+02  0.10566000000E+00 0.  1.
         14    1    4    4    0    0  0.18742371097E+02 -0.32003507389E+01 -0.39715443020E+02  0.44032205639E+02  0.00000000000E+00 0. -1.
<mgrwt>
<rscale>  0 0.80944291E+02</rscale>
<asrwt>0</asrwt>
<pdfrwt beam="1">  1        1 0.22947438E-02 0.80944291E+02</pdfrwt>
<pdfrwt beam="2">  1       -2 0.16894741E-01 0.80944291E+02</pdfrwt>
<totfact> 0.10054300E+05</totfact>
</mgrwt>
</event>
<event>
 8    1  0.1372337E-020  0.7931764E+02  0.7818608E-02  0.1330999E+00
          1   -1    0    0  501    0  0.00000000000E+00  0.00000000000E+00  0.56883011552E+01  0.56883033880E+01  0.50400000000E-02 0. -1.
         -2   -1    0    0    0  501 -0.00000000000E+00 -0.00000000000E+00 -0.27650114893E+03  0.27650114895E+03  0.25500000000E-02 0.  1.
        -24    2    1    2    0    0  0.00000000000E+00  0.00000000000E+00 -0.27081284778E+03  0.28218945233E+03  0.79317642970E+02 0.  0.
         66    2    3    3    0    0  0.29620468899E+01 -0.39323251539E+02 -0.12138409647E+03  0.12764478334E+03  0.20000010181E+01 0.  0.
         13    1    3    3    0    0 -0.29620468899E+01  0.39323251539E+02 -0.14942875131E+03  0.15454466900E+03  0.10566000000E+00 0. -1.
         13    1    4    4    0    0 -0.11956766463E+00 -0.26684119119E+01 -0.80485419327E+01  0.84808554896E+01  0.10566000000E+00 0. -1.
        -13    1    4    4    0    0  0.76081131831E+00 -0.13770231374E+02 -0.40693844504E+02  0.42967409167E+02  0.10566000000E+00 0.  1.
         14    1    4    4    0    0  0.23208032362E+01 -0.22884608253E+02 -0.72641710034E+02  0.76196518682E+02  0.00000000000E+00 0. -1.
<mgrwt>
<rscale>  0 0.79317643E+02</rscale>
<asrwt>0</asrwt>
<pdfrwt beam="1">  1        1 0.87512364E-03 0.79317643E+02</pdfrwt>
<pdfrwt beam="2">  1       -2 0.42538628E-01 0.79317643E+02</pdfrwt>
<totfact> 0.75005387E+04</totfact>
</mgrwt>
</event>
<event>
 8    1  0.1372337E-020  0.8891040E+02  0.7818608E-02  0.1305512E+00
         -2   -1    0    0    0  501 -0.00000000000E+00  0.00000000000E+00  0.41610626031E+02  0.41610626109E+02  0.25500000000E-02 0.  1.
          1   -1    0    0  501    0  0.00000000000E+00 -0.00000000000E+00 -0.47494231998E+02  0.47494232265E+02  0.50400000000E-02 0. -1.
        -24    2    1    2    0    0 -0.35527136788E-14  0.17763568394E-14 -0.58836059666E+01  0.89104858374E+02  0.88910398530E+02 0.  0.
         66    2    3    3    0    0  0.26172617697E+02 -0.99967048281E+01  0.31618653411E+02  0.42292780371E+02  0.20000008739E+01 0.  0.
         13    1    3    3    0    0 -0.26172617697E+02  0.99967048281E+01 -0.37502259378E+02  0.46812078003E+02  0.10566000000E+00 0. -1.
         13    1    4    4    0    0  0.11648648227E+02 -0.49276863221E+01  0.13501065808E+02  0.18500352429E+02  0.10566000000E+00 0. -1.
        -13    1    4    4    0    0  0.58248769923E+01 -0.21883294857E+01  0.65503819126E+01  0.90352999480E+01  0.10566000000E+00 0.  1.
        -14    1    4    4    0    0  0.86990924777E+01 -0.28806890204E+01  0.11567205690E+02  0.14757127995E+02  0.00000000000E+00 0.  1.
<mgrwt>
<rscale>  0 0.88910399E+02</rscale>
<asrwt>0</asrwt>
<pdfrwt beam="1">  1        1 0.73068050E-02 0.88910399E+02</pdfrwt>
<pdfrwt beam="2">  1       -2 0.64016348E-02 0.88910399E+02</pdfrwt>
<totfact> 0.96937004E+04</totfact>
</mgrwt>
</event>
<event>
 8    1  0.1372337E-020  0.8133477E+02  0.7818608E-02  0.1325306E+00
          1   -1    0    0  501    0  0.00000000000E+00  0.00000000000E+00  0.13034077313E+03  0.13034077323E+03  0.50400000000E-02 0. -1.
         -2   -1    0    0    0  501 -0.00000000000E+00 -0.00000000000E+00 -0.12688555594E+02  0.12688555850E+02  0.25500000000E-02 0.  1.
        -24    2    1    2    0    0  0.00000000000E+00  0.00000000000E+00  0.11765221754E+03  0.14302932908E+03  0.81334769228E+02 0.  0.
         66    2    3    3    0    0 -0.16467552067E+02  0.15576134775E+02 -0.46190682960E+00  0.22759824280E+02  0.19999994301E+01 0.  0.
         13    1    3    3    0    0  0.16467552067E+02 -0.15576134775E+02  0.11811412437E+03  0.12026950480E+03  0.10566000000E+00 0. -1.
         13    1    4    4    0    0 -0.41224302063E+01  0.40144184903E+01  0.65222487274E+00  0.57919381852E+01  0.10566000000E+00 0.  1.
        -13    1    4    4    0    0 -0.41357097100E+01  0.34460491201E+01 -0.20032078310E+00  0.53880090753E+01  0.10566000000E+00 0.  1.
        -14    1    4    4    0    0 -0.82094121507E+01  0.81156671642E+01 -0.91381091924E+00  0.11579877019E+02  0.00000000000E+00 0.  1.
<mgrwt>
<rscale>  0 0.81334769E+02</rscale>
<asrwt>0</asrwt>
<pdfrwt beam="1">  1        1 0.20052427E-01 0.81334769E+02</pdfrwt>
<pdfrwt beam="2">  1       -2 0.19520854E-02 0.81334769E+02</pdfrwt>
<totfact> 0.14721664E+05</totfact>
</mgrwt>
</event>
<event>
 8    1  0.1372337E-020  0.7788576E+02  0.7818608E-02  0.1335161E+00
         -2   -1    0    0    0  501 -0.00000000000E+00  0.00000000000E+00  0.17682619908E+02  0.17682620092E+02  0.25500000000E-02 0.  1.
          1   -1    0    0  501    0  0.00000000000E+00 -0.00000000000E+00 -0.85764883536E+02  0.85764883684E+02  0.50400000000E-02 0. -1.
        -24    2    1    2    0    0  0.00000000000E+00  0.00000000000E+00 -0.68082263628E+02  0.10344750378E+03  0.77885758754E+02 0.  0.
         66    2    3    3    0    0 -0.25986555561E+02  0.11549240457E+02  0.12239357550E+01  0.28533910470E+02  0.20000007290E+01 0.  0.
         13    1    3    3    0    0  0.25986555561E+02 -0.11549240457E+02 -0.69306199383E+02  0.74913593306E+02  0.10566000000E+00 0. -1.
         13    1    4    4    0    0 -0.10952346046E+02  0.55135081450E+01  0.17821411960E+00  0.12263587578E+02  0.10566000000E+00 0. -1.
        -13    1    4    4    0    0 -0.13017142682E+02  0.51588968716E+01  0.53697484990E+00  0.14012841488E+02  0.10566000000E+00 0.  1.
         14    1    4    4    0    0 -0.20170668327E+01  0.87683544019E+00  0.50874678551E+00  0.22574814038E+01  0.00000000000E+00 0. -1.
<mgrwt>
<rscale>  0 0.77885759E+02</rscale>
<asrwt>0</asrwt>
<pdfrwt beam="1">  1        1 0.13194597E-01 0.77885759E+02</pdfrwt>
<pdfrwt beam="2">  1       -2 0.27204031E-02 0.77885759E+02</pdfrwt>
<totfact> 0.15409556E+05</totfact>
</mgrwt>
</event>
<event>
 8    1  0.1372337E-020  0.7891517E+02  0.7818608E-02  0.1332159E+00
          1   -1    0    0  501    0  0.00000000000E+00  0.00000000000E+00  0.13589148550E+03  0.13589148560E+03  0.50400000000E-02 0. -1.
         -2   -1    0    0    0  501 -0.00000000000E+00 -0.00000000000E+00 -0.11456943402E+02  0.11456943686E+02  0.25500000000E-02 0.  1.
        -24    2    1    2    0    0  0.00000000000E+00 -0.17763568394E-14  0.12443454210E+03  0.14734842928E+03  0.78915171826E+02 0.  0.
         66    2    3    3    0    0  0.27271504690E+02  0.11301821943E+02  0.13444512682E+02  0.32499554923E+02  0.20000004137E+01 0.  0.
         13    1    3    3    0    0 -0.27271504690E+02 -0.11301821943E+02  0.11099002942E+03  0.11484887436E+03  0.10566000000E+00 0. -1.
         13    1    4    4    0    0  0.36337303795E+00  0.27065661857E+00  0.13885440264E+00  0.48553017477E+00  0.10566000000E+00 0.  1.
        -13    1    4    4    0    0  0.37989407536E+01  0.10732327566E+01  0.15921745794E+01  0.42579294647E+01  0.10566000000E+00 0.  1.
        -14    1    4    4    0    0  0.23109190898E+02  0.99579325675E+01  0.11713483700E+02  0.27756095284E+02  0.00000000000E+00 0.  1.
<mgrwt>
<rscale>  0 0.78915172E+02</rscale>
<asrwt>0</asrwt>
<pdfrwt beam="1">  1        1 0.20906384E-01 0.78915172E+02</pdfrwt>
<pdfrwt beam="2">  1       -2 0.17626066E-02 0.78915172E+02</pdfrwt>
<totfact> 0.16083271E+05</totfact>
</mgrwt>
</event>
<event>
 8    1  0.1372337E-020  0.7602941E+02  0.7818608E-02  0.1340713E+00
         -2   -1    0    0    0  501 -0.00000000000E+00  0.00000000000E+00  0.93122745760E+02  0.93122745795E+02  0.25500000000E-02 0.  1.
          1   -1    0    0  501    0  0.00000000000E+00 -0.00000000000E+00 -0.15518419251E+02  0.15518420070E+02  0.50400000000E-02 0. -1.
        -24    2    1    2    0    0  0.00000000000E+00  0.00000000000E+00  0.77604326508E+02  0.10864116586E+03  0.76029411595E+02 0.  0.
         66    2    3    3    0    0 -0.28305643919E+02  0.82663668471E+01  0.73051007136E+02  0.78803502084E+02  0.19999996491E+01 0.  0.
         13    1    3    3    0    0  0.28305643919E+02 -0.82663668471E+01  0.45533193720E+01  0.29837663780E+02  0.10566000000E+00 0. -1.
         13    1    4    4    0    0 -0.86277938064E+01  0.26343356162E+01  0.21429648581E+02  0.23251226902E+02  0.10566000000E+00 0. -1.
        -13    1    4    4    0    0 -0.18210973989E+02  0.55507256925E+01  0.47286608794E+02  0.50975333885E+02  0.10566000000E+00 0.  1.
        -14    1    4    4    0    0 -0.14668761232E+01  0.81305538313E-01  0.43347497608E+01  0.45769412975E+01  0.00000000000E+00 0.  1.
<mgrwt>
<rscale>  0 0.76029412E+02</rscale>
<asrwt>0</asrwt>
<pdfrwt beam="1">  1        1 0.23874492E-02 0.76029412E+02</pdfrwt>
<pdfrwt beam="2">  1       -2 0.14326576E-01 0.76029412E+02</pdfrwt>
<totfact> 0.12297023E+05</totfact>
</mgrwt>
</event>
<event>
 8    1  0.1372337E-020  0.7986404E+02  0.7818608E-02  0.1329438E+00
         -2   -1    0    0    0  501 -0.00000000000E+00  0.00000000000E+00  0.35574263455E+02  0.35574263546E+02  0.25500000000E-02 0.  1.
          1   -1    0    0  501    0  0.00000000000E+00 -0.00000000000E+00 -0.44823590762E+02  0.44823591046E+02  0.50400000000E-02 0. -1.
        -24    2    1    2    0    0  0.35527136788E-14  0.00000000000E+00 -0.92493273074E+01  0.80397854592E+02  0.79864040515E+02 0.  0.
         66    2    3    3    0    0  0.23102227310E+02  0.20659869146E+02  0.20680452466E+02  0.37312520879E+02  0.20000000830E+01 0.  0.
         13    1    3    3    0    0 -0.23102227310E+02 -0.20659869146E+02 -0.29929779773E+02  0.43085333713E+02  0.10566000000E+00 0. -1.
         13    1    4    4    0    0  0.15216019283E+01  0.19549764503E+01  0.17470960104E+01  0.30332678507E+01  0.10566000000E+00 0. -1.
        -13    1    4    4    0    0  0.14191070923E+02  0.11973606652E+02  0.11821660312E+02  0.22011737023E+02  0.10566000000E+00 0.  1.
         14    1    4    4    0    0  0.73895544592E+01  0.67312860437E+01  0.71116961439E+01  0.12267516006E+02  0.00000000000E+00 0. -1.
<mgrwt>
<rscale>  0 0.79864041E+02</rscale>
<asrwt>0</asrwt>
<pdfrwt beam="1">  1        1 0.68959372E-02 0.79864041E+02</pdfrwt>
<pdfrwt beam="2">  1       -2 0.54729636E-02 0.79864041E+02</pdfrwt>
<totfact> 0.12993480E+05</totfact>
</mgrwt>
</event>
<event>
 8    1  0.1372337E-020  0.8085760E+02  0.7818608E-02  0.1326635E+00
         -2   -1    0    0    0  501 -0.00000000000E+00  0.00000000000E+00  0.23959561816E+02  0.23959561952E+02  0.25500000000E-02 0.  1.
          1   -1    0    0  501    0  0.00000000000E+00 -0.00000000000E+00 -0.68218602093E+02  0.68218602279E+02  0.50400000000E-02 0. -1.
        -24    2    1    2    0    0  0.00000000000E+00  0.00000000000E+00 -0.44259040276E+02  0.92178164231E+02  0.80857598992E+02 0.  0.
         66    2    3    3    0    0 -0.99078024303E+01 -0.34743651897E+02 -0.15219207215E+01  0.36216048045E+02  0.19999992960E+01 0.  0.
         13    1    3    3    0    0  0.99078024303E+01  0.34743651897E+02 -0.42737119555E+02  0.55962116186E+02  0.10566000000E+00 0. -1.
         13    1    4    4    0    0 -0.47357180898E+00 -0.13209344624E+01  0.17361748188E+00  0.14179016813E+01  0.10566000000E+00 0.  1.
        -13    1    4    4    0    0 -0.59219169651E+01 -0.23342273912E+02 -0.11607092803E+01  0.24109941144E+02  0.10566000000E+00 0.  1.
        -14    1    4    4    0    0 -0.35123136562E+01 -0.10080443523E+02 -0.53482892301E+00  0.10688205219E+02  0.00000000000E+00 0.  1.
<mgrwt>
<rscale>  0 0.80857599E+02</rscale>
<asrwt>0</asrwt>
<pdfrwt beam="1">  1        1 0.10495170E-01 0.80857599E+02</pdfrwt>
<pdfrwt beam="2">  1       -2 0.36860865E-02 0.80857599E+02</pdfrwt>
<totfact> 0.13416015E+05</totfact>
</mgrwt>
</event>
<event>
 8    1  0.1372337E-020  0.8024270E+02  0.7818608E-02  0.1328364E+00
         -2   -1    0    0    0  501 -0.00000000000E+00  0.00000000000E+00  0.41602585357E+03  0.41602585358E+03  0.25500000000E-02 0.  1.
          1   -1    0    0  501    0  0.00000000000E+00 -0.00000000000E+00 -0.38692838148E+01  0.38692870973E+01  0.50400000000E-02 0. -1.
        -24    2    1    2    0    0  0.17763568394E-14  0.00000000000E+00  0.41215656976E+03  0.41989514068E+03  0.80242701663E+02 0.  0.
         66    2    3    3    0    0  0.11049600201E+02  0.35054946058E+02  0.29005759763E+03  0.29238391346E+03  0.19999999992E+01 0.  0.
         13    1    3    3    0    0 -0.11049600201E+02 -0.35054946058E+02  0.12209897213E+03  0.12751122722E+03  0.10566000000E+00 0. -1.
         13    1    4    4    0    0  0.25215150728E+00  0.59260337475E+00  0.36942856930E+01  0.37514890323E+01  0.10566000000E+00 0. -1.
        -13    1    4    4    0    0  0.62617098285E+01  0.19793101702E+02  0.16728257674E+03  0.16856585517E+03  0.10566000000E+00 0.  1.
        -14    1    4    4    0    0  0.45357388652E+01  0.14669240981E+02  0.11908073519E+03  0.12006656925E+03  0.00000000000E+00 0.  1.
<mgrwt>
<rscale>  0 0.80242702E+02</rscale>
<asrwt>0</asrwt>
<pdfrwt beam="1">  1        1 0.59527447E-03 0.80242702E+02</pdfrwt>
<pdfrwt beam="2">  1       -2 0.64004001E-01 0.80242702E+02</pdfrwt>
<totfact> 0.57106049E+04</totfact>
</mgrwt>
</event>
<event>
 8    1  0.1372337E-020  0.7919154E+02  0.7818608E-02  0.1331362E+00
         -2   -1    0    0    0  501 -0.00000000000E+00  0.00000000000E+00  0.64096389659E+02  0.64096389709E+02  0.25500000000E-02 0.  1.
          1   -1    0    0  501    0  0.00000000000E+00 -0.00000000000E+00 -0.24460424516E+02  0.24460425035E+02  0.50400000000E-02 0. -1.
        -24    2    1    2    0    0  0.17763568394E-14  0.00000000000E+00  0.39635965142E+02  0.88556814745E+02  0.79191538089E+02 0.  0.
         66    2    3    3    0    0  0.92323114907E+01  0.34314538914E+02  0.39299150835E+02  0.53020245352E+02  0.20000011200E+01 0.  0.
         13    1    3    3    0    0 -0.92323114907E+01 -0.34314538914E+02  0.33681430740E+00  0.35536569393E+02  0.10566000000E+00 0. -1.
         13    1    4    4    0    0  0.39597321897E+01  0.15972500842E+02  0.17367041888E+02  0.23925416823E+02  0.10566000000E+00 0. -1.
        -13    1    4    4    0    0  0.21371099511E+01  0.94466665013E+01  0.11152224465E+02  0.14771256598E+02  0.10566000000E+00 0.  1.
        -14    1    4    4    0    0  0.31354693499E+01  0.88953715704E+01  0.10779884482E+02  0.14323571931E+02  0.00000000000E+00 0.  1.
<mgrwt>
<rscale>  0 0.79191538E+02</rscale>
<asrwt>0</asrwt>
<pdfrwt beam="1">  1        1 0.37631423E-02 0.79191538E+02</pdfrwt>
<pdfrwt beam="2">  1       -2 0.98609830E-02 0.79191538E+02</pdfrwt>
<totfact> 0.11996619E+05</totfact>
</mgrwt>
</event>
<event>
 8    1  0.1372337E-020  0.8093774E+02  0.7818608E-02  0.1326411E+00
         -2   -1    0    0    0  501 -0.00000000000E+00  0.00000000000E+00  0.88141035483E+01  0.88141039172E+01  0.25500000000E-02 0.  1.
          1   -1    0    0  501    0  0.00000000000E+00 -0.00000000000E+00 -0.18580780395E+03  0.18580780401E+03  0.50400000000E-02 0. -1.
        -24    2    1    2    0    0  0.00000000000E+00  0.00000000000E+00 -0.17699370040E+03  0.19462190793E+03  0.80937735738E+02 0.  0.
         66    2    3    3    0    0 -0.34480551081E+02 -0.21129981036E+02 -0.89952397327E+02  0.98644910137E+02  0.20000023759E+01 0.  0.
         13    1    3    3    0    0  0.34480551081E+02  0.21129981036E+02 -0.87041303070E+02  0.95976997794E+02  0.10566000000E+00 0. -1.
         13    1    4    4    0    0 -0.17499486257E+02 -0.11468272627E+02 -0.47873579690E+02  0.52245995949E+02  0.10566000000E+00 0. -1.
        -13    1    4    4    0    0 -0.73732336970E+01 -0.43547567504E+01 -0.17678618795E+02  0.19643655669E+02  0.10566000000E+00 0.  1.
         14    1    4    4    0    0 -0.96078311272E+01 -0.53069516594E+01 -0.24400198842E+02  0.26755258519E+02  0.00000000000E+00 0. -1.
<mgrwt>
<rscale>  0 0.80937736E+02</rscale>
<asrwt>0</asrwt>
<pdfrwt beam="1">  1        1 0.28585813E-01 0.80937736E+02</pdfrwt>
<pdfrwt beam="2">  1       -2 0.13560161E-02 0.80937736E+02</pdfrwt>
<totfact> 0.15936467E+05</totfact>
</mgrwt>
</event>
<event>
 8    1  0.1372337E-020  0.7918471E+02  0.7818608E-02  0.1331381E+00
         -2   -1    0    0    0  501 -0.00000000000E+00  0.00000000000E+00  0.81951911888E+03  0.81951911888E+03  0.25500000000E-02 0.  1.
          1   -1    0    0  501    0  0.00000000000E+00 -0.00000000000E+00 -0.19127702034E+01  0.19127768434E+01  0.50400000000E-02 0. -1.
        -24    2    1    2    0    0  0.00000000000E+00  0.88817841970E-15  0.81760634868E+03  0.82143189573E+03  0.79184707628E+02 0.  0.
         66    2    3    3    0    0  0.32986075265E+02 -0.52771068396E+01  0.62902809637E+03  0.62991767321E+03  0.19999965755E+01 0.  0.
         13    1    3    3    0    0 -0.32986075265E+02  0.52771068396E+01  0.18857825231E+03  0.19151422251E+03  0.10566000000E+00 0. -1.
         13    1    4    4    0    0  0.43188375077E+01 -0.12983896758E+01  0.86145761819E+02  0.86263790878E+02  0.10566000000E+00 0. -1.
        -13    1    4    4    0    0  0.10899476898E+02 -0.11683548389E+01  0.20205059663E+03  0.20234776602E+03  0.10566000000E+00 0.  1.
        -14    1    4    4    0    0  0.17767760859E+02 -0.28103623248E+01  0.34083173792E+03  0.34130611632E+03  0.00000000000E+00 0.  1.
<mgrwt>
<rscale>  0 0.79184708E+02</rscale>
<asrwt>0</asrwt>
<pdfrwt beam="1">  1        1 0.29427241E-03 0.79184708E+02</pdfrwt>
<pdfrwt beam="2">  1       -2 0.12608005E+00 0.79184708E+02</pdfrwt>
<totfact> 0.33284941E+04</totfact>
</mgrwt>
</event>
<event>
 8    1  0.1372337E-020  0.8028230E+02  0.7818608E-02  0.1328252E+00
         -2   -1    0    0    0  501 -0.00000000000E+00  0.00000000000E+00  0.91150881522E+02  0.91150881558E+02  0.25500000000E-02 0.  1.
          1   -1    0    0  501    0  0.00000000000E+00 -0.00000000000E+00 -0.17677412426E+02  0.17677413145E+02  0.50400000000E-02 0. -1.
        -24    2    1    2    0    0 -0.11102230246E-15  0.00000000000E+00  0.73473469096E+02  0.10882829470E+03  0.80282296099E+02 0.  0.
         66    2    3    3    0    0 -0.75592927443E+00  0.10944050760E+02  0.89066975784E+02  0.89762296408E+02  0.20000012584E+01 0.  0.
         13    1    3    3    0    0  0.75592927443E+00 -0.10944050760E+02 -0.15593506688E+02  0.19065998295E+02  0.10566000000E+00 0. -1.
         13    1    4    4    0    0 -0.78621196949E+00  0.21434101509E+01  0.19344217929E+02  0.19478764531E+02  0.10566000000E+00 0. -1.
        -13    1    4    4    0    0 -0.44646552487E+00  0.61824515020E+01  0.48796632791E+02  0.49188866361E+02  0.10566000000E+00 0.  1.
         14    1    4    4    0    0  0.47674821993E+00  0.26181891073E+01  0.20926125064E+02  0.21094665516E+02  0.00000000000E+00 0. -1.
<mgrwt>
<rscale>  0 0.80282296E+02</rscale>
<asrwt>0</asrwt>
<pdfrwt beam="1">  1        1 0.27196019E-02 0.80282296E+02</pdfrwt>
<pdfrwt beam="2">  1       -2 0.14023213E-01 0.80282296E+02</pdfrwt>
<totfact> 0.10755373E+05</totfact>
</mgrwt>
</event>
<event>
 8    1  0.1372337E-020  0.8102050E+02  0.7818608E-02  0.1326180E+00
          1   -1    0    0  501    0  0.00000000000E+00  0.00000000000E+00  0.15975789845E+01  0.15975869345E+01  0.50400000000E-02 0. -1.
         -2   -1    0    0    0  501 -0.00000000000E+00 -0.00000000000E+00 -0.10272269065E+04  0.10272269065E+04  0.25500000000E-02 0.  1.
        -24    2    1    2    0    0  0.00000000000E+00 -0.35527136788E-14 -0.10256293275E+04  0.10288244934E+04  0.81020496403E+02 0.  0.
         66    2    3    3    0    0  0.13834709398E+02 -0.26454616471E+02 -0.86038058263E+03  0.86090068700E+03  0.20000002196E+01 0.  0.
         13    1    3    3    0    0 -0.13834709398E+02  0.26454616471E+02 -0.16524874487E+03  0.16792380642E+03  0.10566000000E+00 0. -1.
         13    1    4    4    0    0  0.55154278910E+00 -0.72883848691E+00 -0.31430088080E+02  0.31443552690E+02  0.10566000000E+00 0. -1.
        -13    1    4    4    0    0  0.68691456136E+00 -0.21039398250E+01 -0.62433318385E+02  0.62472624589E+02  0.10566000000E+00 0.  1.
         14    1    4    4    0    0  0.12596252047E+02 -0.23621838159E+02 -0.76651717616E+03  0.76698450972E+03  0.00000000000E+00 0. -1.
<mgrwt>
<rscale>  0 0.81020496E+02</rscale>
<asrwt>0</asrwt>
<pdfrwt beam="1">  1        1 0.24578282E-03 0.81020496E+02</pdfrwt>
<pdfrwt beam="2">  1       -2 0.15803438E+00 0.81020496E+02</pdfrwt>
<totfact> 0.24452080E+04</totfact>
</mgrwt>
</event>
<event>
 8    1  0.1372337E-020  0.7605232E+02  0.7818608E-02  0.1340643E+00
         -2   -1    0    0    0  501 -0.00000000000E+00  0.00000000000E+00  0.20201338696E+03  0.20201338697E+03  0.25500000000E-02 0.  1.
          1   -1    0    0  501    0  0.00000000000E+00 -0.00000000000E+00 -0.71578861860E+01  0.71578879604E+01  0.50400000000E-02 0. -1.
        -24    2    1    2    0    0 -0.35527136788E-14  0.17763568394E-14  0.19485550077E+03  0.20917127493E+03  0.76052324597E+02 0.  0.
         66    2    3    3    0    0  0.20834163207E+02 -0.15825284384E+02  0.17329129751E+03  0.17526658487E+03  0.19999988121E+01 0.  0.
         13    1    3    3    0    0 -0.20834163207E+02  0.15825284384E+02  0.21564203263E+02  0.33904690070E+02  0.10566000000E+00 0. -1.
         13    1    4    4    0    0  0.59730709270E+01 -0.39688366201E+01  0.49645189434E+02  0.50160594478E+02  0.10566000000E+00 0. -1.
        -13    1    4    4    0    0  0.51646290750E+01 -0.35822490817E+01  0.37980348101E+02  0.38497063626E+02  0.10566000000E+00 0.  1.
        -14    1    4    4    0    0  0.96964632048E+01 -0.82741986819E+01  0.85665759975E+02  0.86608926761E+02  0.00000000000E+00 0.  1.
<mgrwt>
<rscale>  0 0.76052325E+02</rscale>
<asrwt>0</asrwt>
<pdfrwt beam="1">  1        1 0.11012134E-02 0.76052325E+02</pdfrwt>
<pdfrwt beam="2">  1       -2 0.31078982E-01 0.76052325E+02</pdfrwt>
<totfact> 0.96525204E+04</totfact>
</mgrwt>
</event>
<event>
 8    1  0.1372337E-020  0.7908830E+02  0.7818608E-02  0.1331659E+00
         -2   -1    0    0    0  501 -0.00000000000E+00  0.00000000000E+00  0.37840241722E+01  0.37840250314E+01  0.25500000000E-02 0.  1.
          1   -1    0    0  501    0  0.00000000000E+00 -0.00000000000E+00 -0.41324777949E+03  0.41324777952E+03  0.50400000000E-02 0. -1.
        -24    2    1    2    0    0  0.00000000000E+00  0.71054273576E-14 -0.40946375531E+03  0.41703180455E+03  0.79088299318E+02 0.  0.
         66    2    3    3    0    0 -0.16156168876E+02  0.36016894988E+02 -0.19500282105E+03  0.19896818538E+03  0.20000142113E+01 0.  0.
         13    1    3    3    0    0  0.16156168876E+02 -0.36016894988E+02 -0.21446093426E+03  0.21806361917E+03  0.10566000000E+00 0. -1.
         13    1    4    4    0    0 -0.35029177704E+01  0.95038097328E+01 -0.48573194454E+02  0.49618133942E+02  0.10566000000E+00 0. -1.
        -13    1    4    4    0    0 -0.27252543503E+01  0.55214899971E+01 -0.29044832725E+02  0.29690526017E+02  0.10566000000E+00 0.  1.
         14    1    4    4    0    0 -0.99279967550E+01  0.20991595258E+02 -0.11738479388E+03  0.11965952542E+03  0.00000000000E+00 0. -1.
<mgrwt>
<rscale>  0 0.79088299E+02</rscale>
<asrwt>0</asrwt>
<pdfrwt beam="1">  1        1 0.63576546E-01 0.79088299E+02</pdfrwt>
<pdfrwt beam="2">  1       -2 0.58215796E-03 0.79088299E+02</pdfrwt>
<totfact> 0.19676289E+05</totfact>
</mgrwt>
</event>
<event>
 8    1  0.1372337E-020  0.7738626E+02  0.7818608E-02  0.1336637E+00
          1   -1    0    0  501    0  0.00000000000E+00  0.00000000000E+00  0.50300048924E+01  0.50300074174E+01  0.50400000000E-02 0. -1.
         -2   -1    0    0    0  501 -0.00000000000E+00 -0.00000000000E+00 -0.29764544732E+03  0.29764544733E+03  0.25500000000E-02 0.  1.
        -24    2    1    2    0    0  0.00000000000E+00  0.00000000000E+00 -0.29261544242E+03  0.30267545474E+03  0.77386263380E+02 0.  0.
         66    2    3    3    0    0  0.11956343326E+01 -0.36226342760E+02 -0.19908002358E+03  0.20236262808E+03  0.20000008691E+01 0.  0.
         13    1    3    3    0    0 -0.11956343326E+01  0.36226342760E+02 -0.93535418847E+02  0.10031282667E+03  0.10566000000E+00 0. -1.
         13    1    4    4    0    0  0.90715788600E+00 -0.25413506288E+02 -0.14247691502E+03  0.14472854492E+03  0.10566000000E+00 0. -1.
        -13    1    4    4    0    0 -0.21362160231E+00 -0.60760298413E+01 -0.30608933059E+02  0.31207078041E+02  0.10566000000E+00 0.  1.
        -14    1    4    4    0    0  0.50209804892E+00 -0.47368066307E+01 -0.25994175501E+02  0.26427005118E+02  0.00000000000E+00 0.  1.
<mgrwt>
<rscale>  0 0.77386263E+02</rscale>
<asrwt>0</asrwt>
<pdfrwt beam="1">  1        1 0.77384734E-03 0.77386263E+02</pdfrwt>
<pdfrwt beam="2">  1       -2 0.45791593E-01 0.77386263E+02</pdfrwt>
<totfact> 0.76886681E+04</totfact>
</mgrwt>
</event>
<event>
 8    1  0.1372337E-020  0.7867067E+02  0.7818608E-02  0.1332867E+00
         -2   -1    0    0    0  501 -0.00000000000E+00  0.00000000000E+00  0.15781970043E+02  0.15781970249E+02  0.25500000000E-02 0.  1.
          1   -1    0    0  501    0  0.00000000000E+00 -0.00000000000E+00 -0.98040266561E+02  0.98040266690E+02  0.50400000000E-02 0. -1.
        -24    2    1    2    0    0  0.00000000000E+00  0.00000000000E+00 -0.82258296518E+02  0.11382223694E+03  0.78670669731E+02 0.  0.
         66    2    3    3    0    0 -0.43028046256E+01  0.29393867685E+02 -0.39088400046E+01  0.30029862078E+02  0.20000002776E+01 0.  0.
         13    1    3    3    0    0  0.43028046256E+01 -0.29393867685E+02 -0.78349456513E+02  0.83792374862E+02  0.10566000000E+00 0. -1.
         13    1    4    4    0    0 -0.33273647592E+01  0.20234673396E+02 -0.21791984286E+01  0.20622158799E+02  0.10566000000E+00 0. -1.
        -13    1    4    4    0    0 -0.11296773171E+00  0.47321990016E+01 -0.99255648884E+00  0.48376442116E+01  0.10566000000E+00 0.  1.
        -14    1    4    4    0    0 -0.86247213462E+00  0.44269952868E+01 -0.73708508722E+00  0.45700590673E+01  0.00000000000E+00 0.  1.
<mgrwt>
<rscale>  0 0.78670670E+02</rscale>
<asrwt>0</asrwt>
<pdfrwt beam="1">  1        1 0.15083118E-01 0.78670670E+02</pdfrwt>
<pdfrwt beam="2">  1       -2 0.24279955E-02 0.78670670E+02</pdfrwt>
<totfact> 0.15328746E+05</totfact>
</mgrwt>
</event>
<event>
 8    1  0.1372337E-020  0.7658164E+02  0.7818608E-02  0.1339042E+00
          1   -1    0    0  501    0  0.00000000000E+00  0.00000000000E+00  0.13960717533E+03  0.13960717542E+03  0.50400000000E-02 0. -1.
         -2   -1    0    0    0  501 -0.00000000000E+00 -0.00000000000E+00 -0.10502232044E+02  0.10502232353E+02  0.25500000000E-02 0.  1.
        -24    2    1    2    0    0  0.00000000000E+00  0.00000000000E+00  0.12910494329E+03  0.15010940778E+03  0.76581642197E+02 0.  0.
         66    2    3    3    0    0  0.19736305695E+02 -0.32510500016E+02  0.56343421422E+02  0.68007613630E+02  0.20000000695E+01 0.  0.
         13    1    3    3    0    0 -0.19736305695E+02  0.32510500016E+02  0.72761521868E+02  0.82101794148E+02  0.10566000000E+00 0. -1.
         13    1    4    4    0    0  0.55625845225E+01 -0.87616387566E+01  0.16550183190E+02  0.19535311308E+02  0.10566000000E+00 0. -1.
        -13    1    4    4    0    0  0.11557935606E+02 -0.20090984966E+02  0.33558481158E+02  0.40785001827E+02  0.10566000000E+00 0.  1.
        -14    1    4    4    0    0  0.26157855670E+01 -0.36578762935E+01  0.62347570740E+01  0.76873004938E+01  0.00000000000E+00 0.  1.
<mgrwt>
<rscale>  0 0.76581642E+02</rscale>
<asrwt>0</asrwt>
<pdfrwt beam="1">  1        1 0.21478026E-01 0.76581642E+02</pdfrwt>
<pdfrwt beam="2">  1       -2 0.16157281E-02 0.76581642E+02</pdfrwt>
<totfact> 0.17509014E+05</totfact>
</mgrwt>
</event>
<event>
 8    1  0.1372337E-020  0.7958390E+02  0.7818608E-02  0.1330236E+00
         -2   -1    0    0    0  501 -0.00000000000E+00  0.00000000000E+00  0.15242784602E+02  0.15242784815E+02  0.25500000000E-02 0.  1.
          1   -1    0    0  501    0  0.00000000000E+00 -0.00000000000E+00 -0.10387861520E+03  0.10387861533E+03  0.50400000000E-02 0. -1.
        -24    2    1    2    0    0  0.00000000000E+00  0.00000000000E+00 -0.88635830603E+02  0.11912140014E+03  0.79583902299E+02 0.  0.
         66    2    3    3    0    0  0.33610360027E+02 -0.15384475199E+02 -0.22395529866E+02  0.43265438055E+02  0.19999984618E+01 0.  0.
         13    1    3    3    0    0 -0.33610360027E+02  0.15384475199E+02 -0.66240300737E+02  0.75855962087E+02  0.10566000000E+00 0. -1.
         13    1    4    4    0    0  0.77576846262E+01 -0.38098603823E+01 -0.56139683113E+01  0.10306527598E+02  0.10566000000E+00 0. -1.
        -13    1    4    4    0    0  0.13695105749E+02 -0.54089916709E+01 -0.91534775619E+01  0.17338120656E+02  0.10566000000E+00 0.  1.
         14    1    4    4    0    0  0.12157569652E+02 -0.61656231458E+01 -0.76280839923E+01  0.15620789801E+02  0.00000000000E+00 0. -1.
<mgrwt>
<rscale>  0 0.79583902E+02</rscale>
<asrwt>0</asrwt>
<pdfrwt beam="1">  1        1 0.15981325E-01 0.79583902E+02</pdfrwt>
<pdfrwt beam="2">  1       -2 0.23450439E-02 0.79583902E+02</pdfrwt>
<totfact> 0.15003542E+05</totfact>
</mgrwt>
</event>
<event>
 8    1  0.1372337E-020  0.8311732E+02  0.7818608E-02  0.1320431E+00
         -2   -1    0    0    0  501 -0.00000000000E+00  0.00000000000E+00  0.32767010314E+02  0.32767010413E+02  0.25500000000E-02 0.  1.
          1   -1    0    0  501    0  0.00000000000E+00 -0.00000000000E+00 -0.52709182144E+02  0.52709182385E+02  0.50400000000E-02 0. -1.
        -24    2    1    2    0    0  0.00000000000E+00  0.00000000000E+00 -0.19942171830E+02  0.85476192798E+02  0.83117322610E+02 0.  0.
         66    2    3    3    0    0 -0.17960574081E+02 -0.22971261251E+02  0.20440549186E+02  0.35666189932E+02  0.19999971235E+01 0.  0.
         13    1    3    3    0    0  0.17960574081E+02  0.22971261251E+02 -0.40382721016E+02  0.49810002866E+02  0.10566000000E+00 0. -1.
         13    1    4    4    0    0 -0.15686012572E+02 -0.20118774941E+02  0.17218179337E+02  0.30778124687E+02  0.10566000000E+00 0. -1.
        -13    1    4    4    0    0 -0.16175188787E+01 -0.21011783902E+01  0.20850018730E+01  0.33748651523E+01  0.10566000000E+00 0.  1.
         14    1    4    4    0    0 -0.65704262964E+00 -0.75130791934E+00  0.11373679763E+01  0.15132000926E+01  0.00000000000E+00 0. -1.
<mgrwt>
<rscale>  0 0.83117323E+02</rscale>
<asrwt>0</asrwt>
<pdfrwt beam="1">  1        1 0.81091050E-02 0.83117323E+02</pdfrwt>
<pdfrwt beam="2">  1       -2 0.50410785E-02 0.83117323E+02</pdfrwt>
<totfact> 0.11927653E+05</totfact>
</mgrwt>
</event>
<event>
 8    1  0.1372337E-020  0.7778201E+02  0.7818608E-02  0.1335466E+00
         -2   -1    0    0    0  501 -0.00000000000E+00  0.00000000000E+00  0.68546993004E+02  0.68546993051E+02  0.25500000000E-02 0.  1.
          1   -1    0    0  501    0  0.00000000000E+00 -0.00000000000E+00 -0.22065301214E+02  0.22065301790E+02  0.50400000000E-02 0. -1.
        -24    2    1    2    0    0 -0.35527136788E-14  0.17763568394E-14  0.46481691790E+02  0.90612294841E+02  0.77782005019E+02 0.  0.
         66    2    3    3    0    0 -0.17935554591E+02 -0.15646838801E+02  0.59048782225E+02  0.63696674674E+02  0.19999998108E+01 0.  0.
         13    1    3    3    0    0  0.17935554591E+02  0.15646838801E+02 -0.12567090436E+02  0.26915620168E+02  0.10566000000E+00 0. -1.
         13    1    4    4    0    0 -0.72888570117E+00 -0.46834485603E+00  0.29847905121E+01  0.31097845112E+01  0.10566000000E+00 0. -1.
        -13    1    4    4    0    0 -0.13087489968E+02 -0.12105235718E+02  0.43147492409E+02  0.46685505145E+02  0.10566000000E+00 0.  1.
        -14    1    4    4    0    0 -0.41191789217E+01 -0.30732582265E+01  0.12916499305E+02  0.13901385017E+02  0.00000000000E+00 0.  1.
<mgrwt>
<rscale>  0 0.77782005E+02</rscale>
<asrwt>0</asrwt>
<pdfrwt beam="1">  1        1 0.33946619E-02 0.77782005E+02</pdfrwt>
<pdfrwt beam="2">  1       -2 0.10545691E-01 0.77782005E+02</pdfrwt>
<totfact> 0.12392904E+05</totfact>
</mgrwt>
</event>
<event>
 8    1  0.1372337E-020  0.8430600E+02  0.7818608E-02  0.1317257E+00
         -2   -1    0    0    0  501 -0.00000000000E+00  0.00000000000E+00  0.79681159192E+02  0.79681159233E+02  0.25500000000E-02 0.  1.
          1   -1    0    0  501    0  0.00000000000E+00 -0.00000000000E+00 -0.22299819364E+02  0.22299819933E+02  0.50400000000E-02 0. -1.
        -24    2    1    2    0    0 -0.35527136788E-14 -0.71054273576E-14  0.57381339828E+02  0.10198097917E+03  0.84306001869E+02 0.  0.
         66    2    3    3    0    0 -0.23603975988E+02 -0.32301932207E+02  0.44677300212E+02  0.60005196941E+02  0.19999997417E+01 0.  0.
         13    1    3    3    0    0  0.23603975988E+02  0.32301932207E+02  0.12704039617E+02  0.41975782225E+02  0.10566000000E+00 0. -1.
         13    1    4    4    0    0 -0.97032661755E+01 -0.12053437352E+02  0.16953213479E+02  0.22953460257E+02  0.10566000000E+00 0. -1.
        -13    1    4    4    0    0 -0.20835715805E+01 -0.26817244535E+01  0.34542066595E+01  0.48451650392E+01  0.10566000000E+00 0.  1.
        -14    1    4    4    0    0 -0.11817138232E+02 -0.17566770402E+02  0.24269880074E+02  0.32206571645E+02  0.00000000000E+00 0.  1.
<mgrwt>
<rscale>  0 0.84306002E+02</rscale>
<asrwt>0</asrwt>
<pdfrwt beam="1">  1        1 0.34307415E-02 0.84306002E+02</pdfrwt>
<pdfrwt beam="2">  1       -2 0.12258640E-01 0.84306002E+02</pdfrwt>
<totfact> 0.97859569E+04</totfact>
</mgrwt>
</event>
<event>
 8    1  0.1372337E-020  0.7873364E+02  0.7818608E-02  0.1332684E+00
         -2   -1    0    0    0  501 -0.00000000000E+00  0.00000000000E+00  0.34890901665E+02  0.34890901758E+02  0.25500000000E-02 0.  1.
          1   -1    0    0  501    0  0.00000000000E+00 -0.00000000000E+00 -0.44416917965E+02  0.44416918251E+02  0.50400000000E-02 0. -1.
        -24    2    1    2    0    0  0.00000000000E+00  0.00000000000E+00 -0.95260163003E+01  0.79307820009E+02  0.78733635303E+02 0.  0.
         66    2    3    3    0    0 -0.23159660176E+02  0.31005820129E+02 -0.11889466812E+02  0.40535048588E+02  0.20000003896E+01 0.  0.
         13    1    3    3    0    0  0.23159660176E+02 -0.31005820129E+02  0.23634505115E+01  0.38772771422E+02  0.10566000000E+00 0. -1.
         13    1    4    4    0    0 -0.20194702716E+02  0.25990784899E+02 -0.10104575463E+02  0.34430517376E+02  0.10566000000E+00 0. -1.
        -13    1    4    4    0    0 -0.18783031532E+01  0.30369408463E+01 -0.93357287247E+00  0.36923914721E+01  0.10566000000E+00 0.  1.
         14    1    4    4    0    0 -0.10866543070E+01  0.19780943839E+01 -0.85131847590E+00  0.24121397393E+01  0.00000000000E+00 0. -1.
<mgrwt>
<rscale>  0 0.78733635E+02</rscale>
<asrwt>0</asrwt>
<pdfrwt beam="1">  1        1 0.68333721E-02 0.78733635E+02</pdfrwt>
<pdfrwt beam="2">  1       -2 0.53678310E-02 0.78733635E+02</pdfrwt>
<totfact> 0.13502113E+05</totfact>
</mgrwt>
</event>
<event>
 8    1  0.1372337E-020  0.8400633E+02  0.7818608E-02  0.1318052E+00
          1   -1    0    0  501    0  0.00000000000E+00  0.00000000000E+00  0.63492821162E+02  0.63492821362E+02  0.50400000000E-02 0. -1.
         -2   -1    0    0    0  501 -0.00000000000E+00 -0.00000000000E+00 -0.27786855860E+02  0.27786855977E+02  0.25500000000E-02 0.  1.
        -24    2    1    2    0    0  0.00000000000E+00 -0.35527136788E-14  0.35705965303E+02  0.91279677339E+02  0.84006330338E+02 0.  0.
         66    2    3    3    0    0  0.21412959203E+01  0.16431028974E+02 -0.24047087041E+02  0.29271594884E+02  0.20000026248E+01 0.  0.
         13    1    3    3    0    0 -0.21412959203E+01 -0.16431028974E+02  0.59753052344E+02  0.62008082455E+02  0.10566000000E+00 0. -1.
         13    1    4    4    0    0  0.17553240479E+01  0.10565541108E+02 -0.15483104970E+02  0.18826829923E+02  0.10566000000E+00 0. -1.
        -13    1    4    4    0    0 -0.11253851308E+00  0.11111423659E+01 -0.23565114974E+01  0.26099066549E+01  0.10566000000E+00 0.  1.
         14    1    4    4    0    0  0.49851038551E+00  0.47543455007E+01 -0.62074705738E+01  0.78348583057E+01  0.00000000000E+00 0. -1.
<mgrwt>
<rscale>  0 0.84006330E+02</rscale>
<asrwt>0</asrwt>
<pdfrwt beam="1">  1        1 0.97681264E-02 0.84006330E+02</pdfrwt>
<pdfrwt beam="2">  1       -2 0.42749009E-02 0.84006330E+02</pdfrwt>
<totfact> 0.11935680E+05</totfact>
</mgrwt>
</event>
<event>
 8    1  0.1372337E-020  0.8153807E+02  0.7818608E-02  0.1324742E+00
         -2   -1    0    0    0  501 -0.00000000000E+00  0.00000000000E+00  0.10263318725E+03  0.10263318728E+03  0.25500000000E-02 0.  1.
          1   -1    0    0  501    0  0.00000000000E+00 -0.00000000000E+00 -0.16194704846E+02  0.16194705630E+02  0.50400000000E-02 0. -1.
        -24    2    1    2    0    0  0.71054273576E-14  0.00000000000E+00  0.86438482399E+02  0.11882789291E+03  0.81538070208E+02 0.  0.
         66    2    3    3    0    0  0.20335278598E+02 -0.18553689099E+02  0.87022029271E+02  0.91294011492E+02  0.20000052284E+01 0.  0.
         13    1    3    3    0    0 -0.20335278598E+02  0.18553689099E+02 -0.58354687204E+00  0.27533881415E+02  0.10566000000E+00 0. -1.
         13    1    4    4    0    0  0.30100964098E+01 -0.27829057535E+01  0.11508439580E+02  0.12217225153E+02  0.10566000000E+00 0.  1.
        -13    1    4    4    0    0  0.86508981464E+01 -0.85786255545E+01  0.37677073225E+02  0.39598028562E+02  0.10566000000E+00 0.  1.
         14    1    4    4    0    0  0.86742840413E+01 -0.71921577908E+01  0.37836516466E+02  0.39478757777E+02  0.00000000000E+00 0. -1.
<mgrwt>
<rscale>  0 0.81538070E+02</rscale>
<asrwt>0</asrwt>
<pdfrwt beam="1">  1        1 0.24914931E-02 0.81538070E+02</pdfrwt>
<pdfrwt beam="2">  1       -2 0.15789721E-01 0.81538070E+02</pdfrwt>
<totfact> 0.10041927E+05</totfact>
</mgrwt>
</event>
<event>
 8    1  0.1372337E-020  0.7907607E+02  0.7818608E-02  0.1331694E+00
         -2   -1    0    0    0  501 -0.00000000000E+00  0.00000000000E+00  0.92895739363E+01  0.92895742863E+01  0.25500000000E-02 0.  1.
          1   -1    0    0  501    0  0.00000000000E+00 -0.00000000000E+00 -0.16828069724E+03  0.16828069731E+03  0.50400000000E-02 0. -1.
        -24    2    1    2    0    0  0.00000000000E+00  0.00000000000E+00 -0.15899112330E+03  0.17757027160E+03  0.79076065071E+02 0.  0.
         66    2    3    3    0    0 -0.81005510592E+01  0.33196745105E+02 -0.12409725740E+03  0.12873139513E+03  0.19999963300E+01 0.  0.
         13    1    3    3    0    0  0.81005510592E+01 -0.33196745105E+02 -0.34893865902E+02  0.48838876468E+02  0.10566000000E+00 0. -1.
         13    1    4    4    0    0 -0.93840580281E+00  0.25148114401E+01 -0.93389560861E+01  0.97176204311E+01  0.10566000000E+00 0. -1.
        -13    1    4    4    0    0 -0.26882430505E+01  0.12078960620E+02 -0.47726487653E+02  0.49304733323E+02  0.10566000000E+00 0.  1.
         14    1    4    4    0    0 -0.44739022059E+01  0.18602973046E+02 -0.67031813658E+02  0.69709041375E+02  0.00000000000E+00 0. -1.
<mgrwt>
<rscale>  0 0.79076065E+02</rscale>
<asrwt>0</asrwt>
<pdfrwt beam="1">  1        1 0.25889336E-01 0.79076065E+02</pdfrwt>
<pdfrwt beam="2">  1       -2 0.14291654E-02 0.79076065E+02</pdfrwt>
<totfact> 0.16637695E+05</totfact>
</mgrwt>
</event>
<event>
 8    1  0.1372337E-020  0.7935951E+02  0.7818608E-02  0.1330879E+00
         -2   -1    0    0    0  501 -0.00000000000E+00  0.00000000000E+00  0.37966724955E+01  0.37966733519E+01  0.25500000000E-02 0.  1.
          1   -1    0    0  501    0  0.00000000000E+00 -0.00000000000E+00 -0.41470067211E+03  0.41470067214E+03  0.50400000000E-02 0. -1.
        -24    2    1    2    0    0  0.00000000000E+00  0.71054273576E-14 -0.41090399962E+03  0.41849734549E+03  0.79359506583E+02 0.  0.
         66    2    3    3    0    0  0.55633818629E+01 -0.37430546993E+02 -0.26808532242E+03  0.27075032256E+03  0.20000008020E+01 0.  0.
         13    1    3    3    0    0 -0.55633818629E+01  0.37430546993E+02 -0.14281867720E+03  0.14774702294E+03  0.10566000000E+00 0. -1.
         13    1    4    4    0    0  0.11157029134E+00 -0.22916279257E+01 -0.15861200299E+02  0.16026629260E+02  0.10566000000E+00 0. -1.
        -13    1    4    4    0    0  0.40625487209E+01 -0.29888383242E+02 -0.21265062452E+03  0.21477923324E+03  0.10566000000E+00 0.  1.
         14    1    4    4    0    0  0.13892628507E+01 -0.52505358255E+01 -0.39573497593E+02  0.39944460059E+02  0.00000000000E+00 0. -1.
<mgrwt>
<rscale>  0 0.79359507E+02</rscale>
<asrwt>0</asrwt>
<pdfrwt beam="1">  1        1 0.63800068E-01 0.79359507E+02</pdfrwt>
<pdfrwt beam="2">  1       -2 0.58410386E-03 0.79359507E+02</pdfrwt>
<totfact> 0.19511225E+05</totfact>
</mgrwt>
</event>
<event>
 8    1  0.1372337E-020  0.8264814E+02  0.7818608E-02  0.1321700E+00
         -2   -1    0    0    0  501 -0.00000000000E+00  0.00000000000E+00  0.12558007884E+02  0.12558008143E+02  0.25500000000E-02 0.  1.
          1   -1    0    0  501    0  0.00000000000E+00 -0.00000000000E+00 -0.13598326196E+03  0.13598326205E+03  0.50400000000E-02 0. -1.
        -24    2    1    2    0    0 -0.71054273576E-14  0.00000000000E+00 -0.12342525408E+03  0.14854127020E+03  0.82648143403E+02 0.  0.
         66    2    3    3    0    0  0.40993775534E+02  0.47818626624E+01 -0.59012285718E+02  0.72040306151E+02  0.20000004262E+01 0.  0.
         13    1    3    3    0    0 -0.40993775534E+02 -0.47818626624E+01 -0.64412968359E+02  0.76500964045E+02  0.10566000000E+00 0. -1.
         13    1    4    4    0    0  0.76024603775E+01  0.12540374997E+01 -0.11074690499E+02  0.13491847446E+02  0.10566000000E+00 0. -1.
        -13    1    4    4    0    0  0.96052179972E+01  0.14898217887E+01 -0.12962222954E+02  0.16202165586E+02  0.10566000000E+00 0.  1.
         14    1    4    4    0    0  0.23786097159E+02  0.20380033740E+01 -0.34975372265E+02  0.42346293119E+02  0.00000000000E+00 0. -1.
<mgrwt>
<rscale>  0 0.82648143E+02</rscale>
<asrwt>0</asrwt>
<pdfrwt beam="1">  1        1 0.20920501E-01 0.82648143E+02</pdfrwt>
<pdfrwt beam="2">  1       -2 0.19320013E-02 0.82648143E+02</pdfrwt>
<totfact> 0.14210160E+05</totfact>
</mgrwt>
</event>
<event>
 8    1  0.1372337E-020  0.8121768E+02  0.7818608E-02  0.1325631E+00
          1   -1    0    0  501    0  0.00000000000E+00  0.00000000000E+00  0.69506659347E+02  0.69506659530E+02  0.50400000000E-02 0. -1.
         -2   -1    0    0    0  501 -0.00000000000E+00 -0.00000000000E+00 -0.23725464691E+02  0.23725464828E+02  0.25500000000E-02 0.  1.
        -24    2    1    2    0    0 -0.17763568394E-14  0.71054273576E-14  0.45781194657E+02  0.93232124358E+02  0.81217678052E+02 0.  0.
         66    2    3    3    0    0  0.11273448701E+02 -0.38977512695E+02  0.21919835968E+02  0.46160766357E+02  0.20000000915E+01 0.  0.
         13    1    3    3    0    0 -0.11273448701E+02  0.38977512695E+02  0.23861358689E+02  0.47071358000E+02  0.10566000000E+00 0. -1.
         13    1    4    4    0    0  0.12070413983E+01 -0.49250263545E+01  0.26181113417E+01  0.57077582782E+01  0.10566000000E+00 0.  1.
        -13    1    4    4    0    0  0.32441229575E+01 -0.97869627417E+01  0.48114613214E+01  0.11378501551E+02  0.10566000000E+00 0. -1.
        -14    1    4    4    0    0  0.68222843453E+01 -0.24265523599E+02  0.14490263304E+02  0.29074506528E+02  0.00000000000E+00 0.  1.
<mgrwt>
<rscale>  0 0.81217678E+02</rscale>
<asrwt>0</asrwt>
<pdfrwt beam="1">  1        1 0.10693332E-01 0.81217678E+02</pdfrwt>
<pdfrwt beam="2">  1       -2 0.36500716E-02 0.81217678E+02</pdfrwt>
<totfact> 0.13292949E+05</totfact>
</mgrwt>
</event>
<event>
 8    1  0.1372337E-020  0.7957922E+02  0.7818608E-02  0.1330250E+00
          1   -1    0    0  501    0  0.00000000000E+00  0.00000000000E+00  0.64817576059E+02  0.64817576255E+02  0.50400000000E-02 0. -1.
         -2   -1    0    0    0  501 -0.00000000000E+00 -0.00000000000E+00 -0.24425675966E+02  0.24425676099E+02  0.25500000000E-02 0.  1.
        -24    2    1    2    0    0 -0.71054273576E-14  0.71054273576E-14  0.40391900093E+02  0.89243252355E+02  0.79579221520E+02 0.  0.
         66    2    3    3    0    0  0.23139241892E+02 -0.31729965423E+02  0.13205917640E+02  0.41480253840E+02  0.19999942130E+01 0.  0.
         13    1    3    3    0    0 -0.23139241892E+02  0.31729965423E+02  0.27185982453E+02  0.47762998514E+02  0.10566000000E+00 0. -1.
         13    1    4    4    0    0  0.92299788527E+00 -0.13658254586E+01  0.80682427647E+00  0.18383508175E+01  0.10566000000E+00 0. -1.
        -13    1    4    4    0    0  0.18864279249E+02 -0.26453573223E+02  0.10364519082E+02  0.34104061162E+02  0.10566000000E+00 0.  1.
         14    1    4    4    0    0  0.33519647573E+01 -0.39105667413E+01  0.20345742817E+01  0.55378418613E+01  0.00000000000E+00 0. -1.
<mgrwt>
<rscale>  0 0.79579222E+02</rscale>
<asrwt>0</asrwt>
<pdfrwt beam="1">  1        1 0.99719349E-02 0.79579222E+02</pdfrwt>
<pdfrwt beam="2">  1       -2 0.37577963E-02 0.79579222E+02</pdfrwt>
<totfact> 0.13903297E+05</totfact>
</mgrwt>
</event>
<event>
 8    1  0.1372337E-020  0.7951055E+02  0.7818608E-02  0.1330446E+00
         -2   -1    0    0    0  501 -0.00000000000E+00  0.00000000000E+00  0.93044917401E+02  0.93044917436E+02  0.25500000000E-02 0.  1.
          1   -1    0    0  501    0  0.00000000000E+00 -0.00000000000E+00 -0.16986222496E+02  0.16986223243E+02  0.50400000000E-02 0. -1.
        -24    2    1    2    0    0  0.00000000000E+00  0.00000000000E+00  0.76058694906E+02  0.11003114068E+03  0.79510545517E+02 0.  0.
         66    2    3    3    0    0  0.24984963064E+02  0.15950519000E+02  0.74661741856E+02  0.80355728677E+02  0.19999996286E+01 0.  0.
         13    1    3    3    0    0 -0.24984963064E+02 -0.15950519000E+02  0.13969530501E+01  0.29675412003E+02  0.10566000000E+00 0. -1.
         13    1    4    4    0    0  0.12732771793E+02  0.86182119223E+01  0.38485803061E+02  0.41443518861E+02  0.10566000000E+00 0. -1.
        -13    1    4    4    0    0  0.88553293529E+01  0.57196570737E+01  0.27759603975E+02  0.29694075367E+02  0.10566000000E+00 0.  1.
        -14    1    4    4    0    0  0.33968619184E+01  0.16126500040E+01  0.84163348193E+01  0.92181344489E+01  0.00000000000E+00 0.  1.
<mgrwt>
<rscale>  0 0.79510546E+02</rscale>
<asrwt>0</asrwt>
<pdfrwt beam="1">  1        1 0.26132651E-02 0.79510546E+02</pdfrwt>
<pdfrwt beam="2">  1       -2 0.14314602E-01 0.79510546E+02</pdfrwt>
<totfact> 0.10970852E+05</totfact>
</mgrwt>
</event>
<event>
 8    1  0.1372337E-020  0.7986452E+02  0.7818608E-02  0.1329436E+00
          1   -1    0    0  501    0  0.00000000000E+00  0.00000000000E+00  0.30877505992E+02  0.30877506403E+02  0.50400000000E-02 0. -1.
         -2   -1    0    0    0  501 -0.00000000000E+00 -0.00000000000E+00 -0.51642301586E+02  0.51642301649E+02  0.25500000000E-02 0.  1.
        -24    2    1    2    0    0  0.17763568394E-14  0.00000000000E+00 -0.20764795594E+02  0.82519808052E+02  0.79864522692E+02 0.  0.
         66    2    3    3    0    0 -0.95568012681E+01 -0.36254856852E+02 -0.24512042213E+02  0.44839572952E+02  0.19999983135E+01 0.  0.
         13    1    3    3    0    0  0.95568012681E+01  0.36254856852E+02  0.37472466188E+01  0.37680235099E+02  0.10566000000E+00 0. -1.
         13    1    4    4    0    0 -0.28496624776E+01 -0.12401211998E+02 -0.76390699362E+01  0.14841738065E+02  0.10566000000E+00 0. -1.
        -13    1    4    4    0    0 -0.66281062767E+00 -0.36870949143E+01 -0.24103751072E+01  0.44559015955E+01  0.10566000000E+00 0.  1.
        -14    1    4    4    0    0 -0.60443281628E+01 -0.20166549940E+02 -0.14462597169E+02  0.25541933292E+02  0.00000000000E+00 0.  1.
<mgrwt>
<rscale>  0 0.79864523E+02</rscale>
<asrwt>0</asrwt>
<pdfrwt beam="1">  1        1 0.47503856E-02 0.79864523E+02</pdfrwt>
<pdfrwt beam="2">  1       -2 0.79449695E-02 0.79864523E+02</pdfrwt>
<totfact> 0.12215605E+05</totfact>
</mgrwt>
</event>
<event>
 8    1  0.1372337E-020  0.7968236E+02  0.7818608E-02  0.1329955E+00
         -2   -1    0    0    0  501 -0.00000000000E+00  0.00000000000E+00  0.36877742836E+02  0.36877742924E+02  0.25500000000E-02 0.  1.
          1   -1    0    0  501    0  0.00000000000E+00 -0.00000000000E+00 -0.43042758884E+02  0.43042759179E+02  0.50400000000E-02 0. -1.
        -24    2    1    2    0    0  0.35527136788E-14  0.00000000000E+00 -0.61650160475E+01  0.79920502103E+02  0.79682364633E+02 0.  0.
         66    2    3    3    0    0 -0.26923547279E+02 -0.17314731800E+02  0.20664103737E+02  0.38153407784E+02  0.20000017167E+01 0.  0.
         13    1    3    3    0    0  0.26923547279E+02  0.17314731800E+02 -0.26829119784E+02  0.41767094319E+02  0.10566000000E+00 0. -1.
         13    1    4    4    0    0 -0.10765800924E+02 -0.75521766973E+01  0.79686021394E+01  0.15376853596E+02  0.10566000000E+00 0. -1.
        -13    1    4    4    0    0 -0.28042488479E+01 -0.15650652545E+01  0.17056417480E+01  0.36378040986E+01  0.10566000000E+00 0.  1.
        -14    1    4    4    0    0 -0.13353497507E+02 -0.81974898485E+01  0.10989859849E+02  0.19138750089E+02  0.00000000000E+00 0.  1.
<mgrwt>
<rscale>  0 0.79682365E+02</rscale>
<asrwt>0</asrwt>
<pdfrwt beam="1">  1        1 0.66219630E-02 0.79682365E+02</pdfrwt>
<pdfrwt beam="2">  1       -2 0.56734989E-02 0.79682365E+02</pdfrwt>
<totfact> 0.12992547E+05</totfact>
</mgrwt>
</event>
<event>
 8    1  0.1372337E-020  0.7968938E+02  0.7818608E-02  0.1329935E+00
         -2   -1    0    0    0  501 -0.00000000000E+00  0.00000000000E+00  0.26798043090E+03  0.26798043091E+03  0.25500000000E-02 0.  1.
          1   -1    0    0  501    0  0.00000000000E+00 -0.00000000000E+00 -0.59243091919E+01  0.59243113358E+01  0.50400000000E-02 0. -1.
        -24    2    1    2    0    0 -0.71054273576E-14  0.00000000000E+00  0.26205612171E+03  0.27390474225E+03  0.79689377593E+02 0.  0.
         66    2    3    3    0    0  0.32338311587E+02  0.21033523153E+02  0.16503540955E+03  0.16949590525E+03  0.19999992782E+01 0.  0.
         13    1    3    3    0    0 -0.32338311587E+02 -0.21033523153E+02  0.97020712157E+02  0.10440883700E+03  0.10566000000E+00 0. -1.
         13    1    4    4    0    0  0.11280489510E+02  0.76804500427E+01  0.60102033748E+02  0.61632007765E+02  0.10566000000E+00 0.  1.
        -13    1    4    4    0    0  0.24204968512E+01  0.12025181545E+01  0.12747502475E+02  0.13031302249E+02  0.10566000000E+00 0. -1.
         14    1    4    4    0    0  0.18637325225E+02  0.12150554956E+02  0.92185873328E+02  0.94832595233E+02  0.00000000000E+00 0. -1.
<mgrwt>
<rscale>  0 0.79689378E+02</rscale>
<asrwt>0</asrwt>
<pdfrwt beam="1">  1        1 0.91143228E-03 0.79689378E+02</pdfrwt>
<pdfrwt beam="2">  1       -2 0.41227762E-01 0.79689378E+02</pdfrwt>
<totfact> 0.75291638E+04</totfact>
</mgrwt>
</event>
<event>
 8    1  0.1372337E-020  0.7342839E+02  0.7818608E-02  0.1348808E+00
         -2   -1    0    0    0  501 -0.00000000000E+00  0.00000000000E+00  0.89377715599E+01  0.89377719236E+01  0.25500000000E-02 0.  1.
          1   -1    0    0  501    0  0.00000000000E+00 -0.00000000000E+00 -0.15081299782E+03  0.15081299790E+03  0.50400000000E-02 0. -1.
        -24    2    1    2    0    0  0.00000000000E+00  0.00000000000E+00 -0.14187522626E+03  0.15975076983E+03  0.73428391200E+02 0.  0.
         66    2    3    3    0    0  0.20780151043E+02 -0.24673490395E+02 -0.32974238841E+02  0.46172461905E+02  0.20000013933E+01 0.  0.
         13    1    3    3    0    0 -0.20780151043E+02  0.24673490395E+02 -0.10890098742E+03  0.11357830792E+03  0.10566000000E+00 0. -1.
         13    1    4    4    0    0  0.62451084842E+01 -0.71622752583E+01 -0.10878126119E+02  0.14444526948E+02  0.10566000000E+00 0.  1.
        -13    1    4    4    0    0  0.11636367228E+02 -0.13959772634E+02 -0.18030587561E+02  0.25600655188E+02  0.10566000000E+00 0. -1.
         14    1    4    4    0    0  0.28986753303E+01 -0.35514425035E+01 -0.40655251611E+01  0.61272797685E+01  0.00000000000E+00 0. -1.
<mgrwt>
<rscale>  0 0.73428391E+02</rscale>
<asrwt>0</asrwt>
<pdfrwt beam="1">  1        1 0.23201998E-01 0.73428391E+02</pdfrwt>
<pdfrwt beam="2">  1       -2 0.13750419E-02 0.73428391E+02</pdfrwt>
<totfact> 0.19846066E+05</totfact>
</mgrwt>
</event>
<event>
 8    1  0.1372337E-020  0.8214740E+02  0.7818608E-02  0.1323066E+00
          1   -1    0    0  501    0  0.00000000000E+00  0.00000000000E+00  0.54389227724E+02  0.54389227957E+02  0.50400000000E-02 0. -1.
         -2   -1    0    0    0  501 -0.00000000000E+00 -0.00000000000E+00 -0.31018068766E+02  0.31018068871E+02  0.25500000000E-02 0.  1.
        -24    2    1    2    0    0  0.00000000000E+00  0.00000000000E+00  0.23371158957E+02  0.85407296829E+02  0.82147399719E+02 0.  0.
         66    2    3    3    0    0 -0.23552133164E+02 -0.28457696205E+02 -0.69204726562E+01  0.37635573396E+02  0.19999982909E+01 0.  0.
         13    1    3    3    0    0  0.23552133164E+02  0.28457696205E+02  0.30291631614E+02  0.47771723433E+02  0.10566000000E+00 0. -1.
         13    1    4    4    0    0 -0.83070499707E+01 -0.93305847399E+01 -0.25109875834E+01  0.12742963293E+02  0.10566000000E+00 0.  1.
        -13    1    4    4    0    0 -0.22675889256E+01 -0.21222869386E+01 -0.52308756905E+00  0.31513244875E+01  0.10566000000E+00 0.  1.
        -14    1    4    4    0    0 -0.12977494268E+02 -0.17004824527E+02 -0.38863975038E+01  0.21741285615E+02  0.00000000000E+00 0.  1.
<mgrwt>
<rscale>  0 0.82147400E+02</rscale>
<asrwt>0</asrwt>
<pdfrwt beam="1">  1        1 0.83675735E-02 0.82147400E+02</pdfrwt>
<pdfrwt beam="2">  1       -2 0.47720106E-02 0.82147400E+02</pdfrwt>
<totfact> 0.12386847E+05</totfact>
</mgrwt>
</event>
<event>
 8    1  0.1372337E-020  0.8081456E+02  0.7818608E-02  0.1326756E+00
          1   -1    0    0  501    0  0.00000000000E+00  0.00000000000E+00  0.12863227620E+03  0.12863227629E+03  0.50400000000E-02 0. -1.
         -2   -1    0    0    0  501 -0.00000000000E+00 -0.00000000000E+00 -0.12693144608E+02  0.12693144865E+02  0.25500000000E-02 0.  1.
        -24    2    1    2    0    0  0.17763568394E-14 -0.35527136788E-14  0.11593913159E+03  0.14132542116E+03  0.80814555821E+02 0.  0.
         66    2    3    3    0    0  0.12453392963E+02 -0.27457156367E+02  0.11023423636E+02  0.32163617532E+02  0.19999980125E+01 0.  0.
         13    1    3    3    0    0 -0.12453392963E+02  0.27457156367E+02  0.10491570795E+03  0.10916180363E+03  0.10566000000E+00 0. -1.
         13    1    4    4    0    0  0.16938556505E+01 -0.39444915668E+01  0.94158919032E+00  0.43961249896E+01  0.10566000000E+00 0. -1.
        -13    1    4    4    0    0  0.58398930638E+01 -0.11986417000E+02  0.55092048249E+01  0.14427094141E+02  0.10566000000E+00 0.  1.
         14    1    4    4    0    0  0.49196442490E+01 -0.11526247800E+02  0.45726296208E+01  0.13340398402E+02  0.00000000000E+00 0. -1.
<mgrwt>
<rscale>  0 0.80814556E+02</rscale>
<asrwt>0</asrwt>
<pdfrwt beam="1">  1        1 0.19789581E-01 0.80814556E+02</pdfrwt>
<pdfrwt beam="2">  1       -2 0.19527915E-02 0.80814556E+02</pdfrwt>
<totfact> 0.14942152E+05</totfact>
</mgrwt>
</event>
<event>
 8    1  0.1372337E-020  0.8037602E+02  0.7818608E-02  0.1327988E+00
          1   -1    0    0  501    0  0.00000000000E+00  0.00000000000E+00  0.91167176108E+02  0.91167176247E+02  0.50400000000E-02 0. -1.
         -2   -1    0    0    0  501 -0.00000000000E+00 -0.00000000000E+00 -0.17715542310E+02  0.17715542494E+02  0.25500000000E-02 0.  1.
        -24    2    1    2    0    0 -0.71054273576E-14  0.00000000000E+00  0.73451633797E+02  0.10888271874E+03  0.80376015906E+02 0.  0.
         66    2    3    3    0    0 -0.37582938994E+02  0.28718915097E+01  0.17960775918E+02  0.41800891571E+02  0.20000000730E+01 0.  0.
         13    1    3    3    0    0  0.37582938994E+02 -0.28718915097E+01  0.55490857879E+02  0.67081827170E+02  0.10566000000E+00 0. -1.
         13    1    4    4    0    0 -0.81746863453E+00  0.18471479286E+00  0.30262651290E+00  0.89728555379E+00  0.10566000000E+00 0.  1.
        -13    1    4    4    0    0 -0.23395268728E+02  0.11520747760E+01  0.11752135494E+02  0.26206673346E+02  0.10566000000E+00 0.  1.
        -14    1    4    4    0    0 -0.13370201631E+02  0.15351019408E+01  0.59060139113E+01  0.14696932671E+02  0.00000000000E+00 0.  1.
<mgrwt>
<rscale>  0 0.80376016E+02</rscale>
<asrwt>0</asrwt>
<pdfrwt beam="1">  1        1 0.14025720E-01 0.80376016E+02</pdfrwt>
<pdfrwt beam="2">  1       -2 0.27254680E-02 0.80376016E+02</pdfrwt>
<totfact> 0.14291547E+05</totfact>
</mgrwt>
</event>
<event>
 8    1  0.1372337E-020  0.7741728E+02  0.7818608E-02  0.1336545E+00
         -2   -1    0    0    0  501 -0.00000000000E+00  0.00000000000E+00  0.46207315872E+02  0.46207315943E+02  0.25500000000E-02 0.  1.
          1   -1    0    0  501    0  0.00000000000E+00 -0.00000000000E+00 -0.32426870808E+02  0.32426871199E+02  0.50400000000E-02 0. -1.
        -24    2    1    2    0    0  0.00000000000E+00  0.00000000000E+00  0.13780445065E+02  0.78634187142E+02  0.77417276633E+02 0.  0.
         66    2    3    3    0    0 -0.73192137964E+01 -0.37924016080E+02  0.90618554777E+01  0.39723030156E+02  0.20000034631E+01 0.  0.
         13    1    3    3    0    0  0.73192137964E+01  0.37924016080E+02  0.47185895870E+01  0.38911156986E+02  0.10566000000E+00 0. -1.
         13    1    4    4    0    0 -0.47163724832E+00 -0.21139656077E+01  0.85332041967E+00  0.23303673656E+01  0.10566000000E+00 0. -1.
        -13    1    4    4    0    0 -0.48204606567E+01 -0.23681103307E+02  0.49089158985E+01  0.24660497037E+02  0.10566000000E+00 0.  1.
        -14    1    4    4    0    0 -0.20271158914E+01 -0.12128947165E+02  0.32996191596E+01  0.12732165754E+02  0.00000000000E+00 0.  1.
<mgrwt>
<rscale>  0 0.77417277E+02</rscale>
<asrwt>0</asrwt>
<pdfrwt beam="1">  1        1 0.49887494E-02 0.77417277E+02</pdfrwt>
<pdfrwt beam="2">  1       -2 0.71088178E-02 0.77417277E+02</pdfrwt>
<totfact> 0.13461259E+05</totfact>
</mgrwt>
</event>
<event>
 8    1  0.1372337E-020  0.8065563E+02  0.7818608E-02  0.1327201E+00
         -2   -1    0    0    0  501 -0.00000000000E+00  0.00000000000E+00  0.22162711536E+02  0.22162711682E+02  0.25500000000E-02 0.  1.
          1   -1    0    0  501    0  0.00000000000E+00 -0.00000000000E+00 -0.73381478032E+02  0.73381478205E+02  0.50400000000E-02 0. -1.
        -24    2    1    2    0    0  0.22204460493E-15  0.35527136788E-14 -0.51218766497E+02  0.95544189887E+02  0.80655627081E+02 0.  0.
         66    2    3    3    0    0  0.15711592194E+01  0.29353014241E+02  0.70374997813E+01  0.30291820497E+02  0.19999998788E+01 0.  0.
         13    1    3    3    0    0 -0.15711592194E+01 -0.29353014241E+02 -0.58256266278E+02  0.65252369390E+02  0.10566000000E+00 0. -1.
         13    1    4    4    0    0 -0.18799372136E-01  0.97087755559E+00 -0.22834509702E-01  0.97705787688E+00  0.10566000000E+00 0. -1.
        -13    1    4    4    0    0  0.35881995821E+00  0.30080157230E+01  0.10659304042E+01  0.32131420781E+01  0.10566000000E+00 0.  1.
        -14    1    4    4    0    0  0.12311386334E+01  0.25374120963E+02  0.59944038868E+01  0.26101620542E+02  0.00000000000E+00 0.  1.
<mgrwt>
<rscale>  0 0.80655627E+02</rscale>
<asrwt>0</asrwt>
<pdfrwt beam="1">  1        1 0.11289458E-01 0.80655627E+02</pdfrwt>
<pdfrwt beam="2">  1       -2 0.34096480E-02 0.80655627E+02</pdfrwt>
<totfact> 0.13666408E+05</totfact>
</mgrwt>
</event>
<event>
 8    1  0.1372337E-020  0.8163251E+02  0.7818608E-02  0.1324481E+00
         -2   -1    0    0    0  501 -0.00000000000E+00  0.00000000000E+00  0.17076683053E+02  0.17076683243E+02  0.25500000000E-02 0.  1.
          1   -1    0    0  501    0  0.00000000000E+00 -0.00000000000E+00 -0.97557966929E+02  0.97557967059E+02  0.50400000000E-02 0. -1.
        -24    2    1    2    0    0 -0.35527136788E-14 -0.11102230246E-15 -0.80481283876E+02  0.11463465030E+03  0.81632505754E+02 0.  0.
         66    2    3    3    0    0  0.20479842242E+02  0.69641222492E+00  0.92657070756E+01  0.22577915203E+02  0.19999997659E+01 0.  0.
         13    1    3    3    0    0 -0.20479842242E+02 -0.69641222492E+00 -0.89746990951E+02  0.92056735099E+02  0.10566000000E+00 0. -1.
         13    1    4    4    0    0  0.45126972080E+01 -0.27678868460E+00  0.22286424498E+01  0.50417317731E+01  0.10566000000E+00 0. -1.
        -13    1    4    4    0    0  0.99682801434E+01  0.10033239193E+01  0.37677561697E+01  0.10704224329E+02  0.10566000000E+00 0.  1.
        -14    1    4    4    0    0  0.59988648907E+01 -0.30123009748E-01  0.32693084561E+01  0.68319591007E+01  0.00000000000E+00 0.  1.
<mgrwt>
<rscale>  0 0.81632506E+02</rscale>
<asrwt>0</asrwt>
<pdfrwt beam="1">  1        1 0.15008918E-01 0.81632506E+02</pdfrwt>
<pdfrwt beam="2">  1       -2 0.26271821E-02 0.81632506E+02</pdfrwt>
<totfact> 0.13858906E+05</totfact>
</mgrwt>
</event>
<event>
 8    1  0.1372337E-020  0.7864836E+02  0.7818608E-02  0.1332932E+00
         -2   -1    0    0    0  501 -0.00000000000E+00  0.00000000000E+00  0.79953175213E+02  0.79953175254E+02  0.25500000000E-02 0.  1.
          1   -1    0    0  501    0  0.00000000000E+00 -0.00000000000E+00 -0.19341209279E+02  0.19341209936E+02  0.50400000000E-02 0. -1.
        -24    2    1    2    0    0  0.00000000000E+00  0.00000000000E+00  0.60611965934E+02  0.99294385190E+02  0.78648359905E+02 0.  0.
         66    2    3    3    0    0  0.20994892157E+02  0.29154820215E+02  0.10220380997E+02  0.37406486252E+02  0.19999968855E+01 0.  0.
         13    1    3    3    0    0 -0.20994892157E+02 -0.29154820215E+02  0.50391584937E+02  0.61887898938E+02  0.10566000000E+00 0. -1.
         13    1    4    4    0    0  0.15616016961E+01  0.21459104732E+01  0.71852703074E+00  0.27515407948E+01  0.10566000000E+00 0. -1.
        -13    1    4    4    0    0  0.31328679911E+01  0.32692184630E+01  0.12274918974E+01  0.46926060566E+01  0.10566000000E+00 0.  1.
         14    1    4    4    0    0  0.16300422470E+02  0.23739691278E+02  0.82743620693E+01  0.29962339400E+02  0.00000000000E+00 0. -1.
<mgrwt>
<rscale>  0 0.78648360E+02</rscale>
<asrwt>0</asrwt>
<pdfrwt beam="1">  1        1 0.29755708E-02 0.78648360E+02</pdfrwt>
<pdfrwt beam="2">  1       -2 0.12300488E-01 0.78648360E+02</pdfrwt>
<totfact> 0.11673349E+05</totfact>
</mgrwt>
</event>
<event>
 8    1  0.1372337E-020  0.7238428E+02  0.7818608E-02  0.1352168E+00
         -2   -1    0    0    0  501 -0.00000000000E+00  0.00000000000E+00  0.29264083484E+02  0.29264083595E+02  0.25500000000E-02 0.  1.
          1   -1    0    0  501    0  0.00000000000E+00 -0.00000000000E+00 -0.44760368544E+02  0.44760368828E+02  0.50400000000E-02 0. -1.
        -24    2    1    2    0    0 -0.17763568394E-14 -0.71054273576E-14 -0.15496285061E+02  0.74024452423E+02  0.72384284937E+02 0.  0.
         66    2    3    3    0    0 -0.13109944842E+02 -0.20058168020E+02  0.19945973010E+02  0.31241680432E+02  0.19999997127E+01 0.  0.
         13    1    3    3    0    0  0.13109944842E+02  0.20058168020E+02 -0.35442258070E+02  0.42782771991E+02  0.10566000000E+00 0. -1.
         13    1    4    4    0    0 -0.13553832118E+01 -0.16766329514E+01  0.13316864254E+01  0.25362796525E+01  0.10566000000E+00 0. -1.
        -13    1    4    4    0    0 -0.76345732113E+01 -0.11100214145E+02  0.10996102923E+02  0.17390425691E+02  0.10566000000E+00 0.  1.
         14    1    4    4    0    0 -0.41199884193E+01 -0.72813209231E+01  0.76181836611E+01  0.11314975089E+02  0.00000000000E+00 0. -1.
<mgrwt>
<rscale>  0 0.72384285E+02</rscale>
<asrwt>0</asrwt>
<pdfrwt beam="1">  1        1 0.68862106E-02 0.72384285E+02</pdfrwt>
<pdfrwt beam="2">  1       -2 0.45021667E-02 0.72384285E+02</pdfrwt>
<totfact> 0.17059476E+05</totfact>
</mgrwt>
</event>
<event>
 8    1  0.1372337E-020  0.8030038E+02  0.7818608E-02  0.1328201E+00
          1   -1    0    0  501    0  0.00000000000E+00  0.00000000000E+00  0.25630566998E+03  0.25630567003E+03  0.50400000000E-02 0. -1.
         -2   -1    0    0    0  501 -0.00000000000E+00 -0.00000000000E+00 -0.62895128121E+01  0.62895133290E+01  0.25500000000E-02 0.  1.
        -24    2    1    2    0    0  0.00000000000E+00  0.00000000000E+00  0.25001615717E+03  0.26259518336E+03  0.80300382803E+02 0.  0.
         66    2    3    3    0    0 -0.34385606359E+02 -0.20651140036E+02  0.12865782173E+03  0.13478009718E+03  0.19999988160E+01 0.  0.
         13    1    3    3    0    0  0.34385606359E+02  0.20651140036E+02  0.12135833544E+03  0.12781508618E+03  0.10566000000E+00 0. -1.
         13    1    4    4    0    0 -0.75912109647E+01 -0.39446570556E+01  0.28173128637E+02  0.29443558624E+02  0.10566000000E+00 0. -1.
        -13    1    4    4    0    0 -0.22747833503E+02 -0.13647958676E+02  0.84523888973E+02  0.88589105856E+02  0.10566000000E+00 0.  1.
         14    1    4    4    0    0 -0.40465618918E+01 -0.30585243043E+01  0.15960804119E+02  0.16747432704E+02  0.00000000000E+00 0. -1.
<mgrwt>
<rscale>  0 0.80300383E+02</rscale>
<asrwt>0</asrwt>
<pdfrwt beam="1">  1        1 0.39431649E-01 0.80300383E+02</pdfrwt>
<pdfrwt beam="2">  1       -2 0.96761721E-03 0.80300383E+02</pdfrwt>
<totfact> 0.17327341E+05</totfact>
</mgrwt>
</event>
<event>
 8    1  0.1372337E-020  0.7970767E+02  0.7818608E-02  0.1329883E+00
         -2   -1    0    0    0  501 -0.00000000000E+00  0.00000000000E+00  0.38683929787E+01  0.38683938192E+01  0.25500000000E-02 0.  1.
          1   -1    0    0  501    0  0.00000000000E+00 -0.00000000000E+00 -0.41059115676E+03  0.41059115679E+03  0.50400000000E-02 0. -1.
        -24    2    1    2    0    0  0.00000000000E+00  0.00000000000E+00 -0.40672276378E+03  0.41445955061E+03  0.79707669104E+02 0.  0.
         66    2    3    3    0    0 -0.25411316285E+02  0.30446835062E+02 -0.18432857846E+03  0.18855707256E+03  0.20000036289E+01 0.  0.
         13    1    3    3    0    0  0.25411316285E+02 -0.30446835062E+02 -0.22239418532E+03  0.22590247805E+03  0.10566000000E+00 0. -1.
         13    1    4    4    0    0 -0.14682951016E+01  0.17677818294E+01 -0.11517042951E+02  0.11744547053E+02  0.10566000000E+00 0. -1.
        -13    1    4    4    0    0 -0.18520127627E+02  0.23285728804E+02 -0.13741554608E+03  0.14059965776E+03  0.10566000000E+00 0.  1.
        -14    1    4    4    0    0 -0.54228935569E+01  0.53933244280E+01 -0.35395989435E+02  0.36212867755E+02  0.00000000000E+00 0.  1.
<mgrwt>
<rscale>  0 0.79707669E+02</rscale>
<asrwt>0</asrwt>
<pdfrwt beam="1">  1        1 0.63167836E-01 0.79707669E+02</pdfrwt>
<pdfrwt beam="2">  1       -2 0.59513777E-03 0.79707669E+02</pdfrwt>
<totfact> 0.19257996E+05</totfact>
</mgrwt>
</event>
<event>
 8    1  0.1372337E-020  0.7913531E+02  0.7818608E-02  0.1331523E+00
          1   -1    0    0  501    0  0.00000000000E+00  0.00000000000E+00  0.13031459599E+02  0.13031460574E+02  0.50400000000E-02 0. -1.
         -2   -1    0    0    0  501 -0.00000000000E+00 -0.00000000000E+00 -0.12013998014E+03  0.12013998016E+03  0.25500000000E-02 0.  1.
        -24    2    1    2    0    0  0.00000000000E+00  0.00000000000E+00 -0.10710852054E+03  0.13317144074E+03  0.79135311059E+02 0.  0.
         66    2    3    3    0    0  0.34858857367E+02 -0.18227385649E+02 -0.60365181737E+02  0.72078655478E+02  0.19999712068E+01 0.  0.
         13    1    3    3    0    0 -0.34858857367E+02  0.18227385649E+02 -0.46743338799E+02  0.61092785259E+02  0.10566000000E+00 0. -1.
         13    1    4    4    0    0  0.12796357323E+02 -0.65298734207E+01 -0.20666315435E+02  0.25169302043E+02  0.10566000000E+00 0. -1.
        -13    1    4    4    0    0  0.21596047091E+02 -0.11469261926E+02 -0.38593873878E+02  0.45688417394E+02  0.10566000000E+00 0.  1.
        -14    1    4    4    0    0  0.46645295354E+00 -0.22825030280E+00 -0.11049924239E+01  0.12209360407E+01  0.00000000000E+00 0.  1.
<mgrwt>
<rscale>  0 0.79135311E+02</rscale>
<asrwt>0</asrwt>
<pdfrwt beam="1">  1        1 0.20048401E-02 0.79135311E+02</pdfrwt>
<pdfrwt beam="2">  1       -2 0.18483073E-01 0.79135311E+02</pdfrwt>
<totfact> 0.10397188E+05</totfact>
</mgrwt>
</event>
<event>
 8    1  0.1372337E-020  0.7920028E+02  0.7818608E-02  0.1331336E+00
          1   -1    0    0  501    0  0.00000000000E+00  0.00000000000E+00  0.31349570284E+03  0.31349570288E+03  0.50400000000E-02 0. -1.
         -2   -1    0    0    0  501 -0.00000000000E+00 -0.00000000000E+00 -0.50022086075E+01  0.50022092575E+01  0.25500000000E-02 0.  1.
        -24    2    1    2    0    0  0.00000000000E+00 -0.35527136788E-14  0.30849349423E+03  0.31849791214E+03  0.79200278108E+02 0.  0.
         66    2    3    3    0    0 -0.30330609554E+02 -0.24682101246E+02  0.12987881104E+03  0.13565270926E+03  0.19999939360E+01 0.  0.
         13    1    3    3    0    0  0.30330609554E+02  0.24682101246E+02  0.17861468319E+03  0.18284520287E+03  0.10566000000E+00 0. -1.
         13    1    4    4    0    0 -0.45140798795E+01 -0.33644620610E+01  0.17273641039E+02  0.18168278975E+02  0.10566000000E+00 0.  1.
        -13    1    4    4    0    0 -0.62074169372E+01 -0.50468257129E+01  0.28882216564E+02  0.29969919461E+02  0.10566000000E+00 0. -1.
         14    1    4    4    0    0 -0.19609112737E+02 -0.16270813472E+02  0.83722953432E+02  0.87514510825E+02  0.00000000000E+00 0. -1.
<mgrwt>
<rscale>  0 0.79200278E+02</rscale>
<asrwt>0</asrwt>
<pdfrwt beam="1">  1        1 0.48230120E-01 0.79200278E+02</pdfrwt>
<pdfrwt beam="2">  1       -2 0.76957042E-03 0.79200278E+02</pdfrwt>
<totfact> 0.18680040E+05</totfact>
</mgrwt>
</event>
<event>
 8    1  0.1372337E-020  0.8057460E+02  0.7818608E-02  0.1327429E+00
          1   -1    0    0  501    0  0.00000000000E+00  0.00000000000E+00  0.14942423163E+01  0.14942508161E+01  0.50400000000E-02 0. -1.
         -2   -1    0    0    0  501 -0.00000000000E+00 -0.00000000000E+00 -0.10862106535E+04  0.10862106535E+04  0.25500000000E-02 0.  1.
        -24    2    1    2    0    0  0.00000000000E+00  0.35527136788E-14 -0.10847164112E+04  0.10877049043E+04  0.80574600145E+02 0.  0.
         66    2    3    3    0    0 -0.13042726631E+02  0.20699715814E+02 -0.97434799159E+03  0.97465717033E+03  0.20000008191E+01 0.  0.
         13    1    3    3    0    0  0.13042726631E+02 -0.20699715814E+02 -0.11036841956E+03  0.11304773396E+03  0.10566000000E+00 0. -1.
         13    1    4    4    0    0 -0.19056802350E+01  0.28559750564E+01 -0.12105940706E+03  0.12110813108E+03  0.10566000000E+00 0. -1.
        -13    1    4    4    0    0 -0.68892208648E+01  0.11611406123E+02 -0.52166864779E+03  0.52184334370E+03  0.10566000000E+00 0.  1.
        -14    1    4    4    0    0 -0.42478255314E+01  0.62323346341E+01 -0.33161993674E+03  0.33170569555E+03  0.00000000000E+00 0.  1.
<mgrwt>
<rscale>  0 0.80574600E+02</rscale>
<asrwt>0</asrwt>
<pdfrwt beam="1">  1        1 0.22988496E-03 0.80574600E+02</pdfrwt>
<pdfrwt beam="2">  1       -2 0.16710870E+00 0.80574600E+02</pdfrwt>
<totfact> 0.23176674E+04</totfact>
</mgrwt>
</event>
<event>
 8    1  0.1372337E-020  0.7939797E+02  0.7818608E-02  0.1330769E+00
          1   -1    0    0  501    0  0.00000000000E+00  0.00000000000E+00  0.26476495423E+02  0.26476495903E+02  0.50400000000E-02 0. -1.
         -2   -1    0    0    0  501 -0.00000000000E+00 -0.00000000000E+00 -0.59524856017E+02  0.59524856071E+02  0.25500000000E-02 0.  1.
        -24    2    1    2    0    0  0.00000000000E+00 -0.17763568394E-14 -0.33048360593E+02  0.86001351974E+02  0.79397974807E+02 0.  0.
         66    2    3    3    0    0 -0.26200779898E+02 -0.15655848708E+02 -0.43988581359E+02  0.53577810211E+02  0.19999977485E+01 0.  0.
         13    1    3    3    0    0  0.26200779898E+02  0.15655848708E+02  0.10940220766E+02  0.32423541763E+02  0.10566000000E+00 0. -1.
         13    1    4    4    0    0 -0.65554306146E+01 -0.31070469923E+01 -0.10331963929E+02  0.12624898186E+02  0.10566000000E+00 0. -1.
        -13    1    4    4    0    0 -0.13200540435E+02 -0.89641492838E+01 -0.22920836969E+02  0.27928232518E+02  0.10566000000E+00 0.  1.
        -14    1    4    4    0    0 -0.64448088482E+01 -0.35846524316E+01 -0.10735780461E+02  0.13024679507E+02  0.00000000000E+00 0.  1.
<mgrwt>
<rscale>  0 0.79397975E+02</rscale>
<asrwt>0</asrwt>
<pdfrwt beam="1">  1        1 0.40733071E-02 0.79397975E+02</pdfrwt>
<pdfrwt beam="2">  1       -2 0.91576701E-02 0.79397975E+02</pdfrwt>
<totfact> 0.12085108E+05</totfact>
</mgrwt>
</event>
<event>
 8    1  0.1372337E-020  0.7899798E+02  0.7818608E-02  0.1331919E+00
         -2   -1    0    0    0  501 -0.00000000000E+00  0.00000000000E+00  0.92913763838E+02  0.92913763873E+02  0.25500000000E-02 0.  1.
          1   -1    0    0  501    0  0.00000000000E+00 -0.00000000000E+00 -0.16791593321E+02  0.16791594077E+02  0.50400000000E-02 0. -1.
        -24    2    1    2    0    0  0.35527136788E-14  0.35527136788E-14  0.76122170517E+02  0.10970535795E+03  0.78997979207E+02 0.  0.
         66    2    3    3    0    0  0.26272852182E+02  0.28500887630E+02  0.27730258153E+02  0.47702521695E+02  0.20000003343E+01 0.  0.
         13    1    3    3    0    0 -0.26272852182E+02 -0.28500887630E+02  0.48391912365E+02  0.62002836256E+02  0.10566000000E+00 0. -1.
         13    1    4    4    0    0  0.74489953321E+01  0.86470820435E+01  0.80127382721E+01  0.13945418530E+02  0.10566000000E+00 0. -1.
        -13    1    4    4    0    0  0.12068224583E+02  0.13722867609E+02  0.12945759115E+02  0.22395601870E+02  0.10566000000E+00 0.  1.
        -14    1    4    4    0    0  0.67556322678E+01  0.61309379766E+01  0.67717607649E+01  0.11361501295E+02  0.00000000000E+00 0.  1.
<mgrwt>
<rscale>  0 0.78997979E+02</rscale>
<asrwt>0</asrwt>
<pdfrwt beam="1">  1        1 0.25833221E-02 0.78997979E+02</pdfrwt>
<pdfrwt beam="2">  1       -2 0.14294426E-01 0.78997979E+02</pdfrwt>
<totfact> 0.11157380E+05</totfact>
</mgrwt>
</event>
<event>
 8    1  0.1372337E-020  0.7887452E+02  0.7818608E-02  0.1332276E+00
          1   -1    0    0  501    0  0.00000000000E+00  0.00000000000E+00  0.30379711866E+02  0.30379712284E+02  0.50400000000E-02 0. -1.
         -2   -1    0    0    0  501 -0.00000000000E+00 -0.00000000000E+00 -0.51195263358E+02  0.51195263422E+02  0.25500000000E-02 0.  1.
        -24    2    1    2    0    0 -0.35527136788E-14  0.00000000000E+00 -0.20815551492E+02  0.81574975706E+02  0.78874517289E+02 0.  0.
         66    2    3    3    0    0 -0.24326685583E+02 -0.73104802472E+01 -0.41580222474E+02  0.48766234829E+02  0.20000013714E+01 0.  0.
         13    1    3    3    0    0  0.24326685583E+02  0.73104802472E+01  0.20764670982E+02  0.32808740877E+02  0.10566000000E+00 0. -1.
         13    1    4    4    0    0 -0.10968478584E+01 -0.49648107326E-01 -0.17408582691E+01  0.20608958508E+01  0.10566000000E+00 0. -1.
        -13    1    4    4    0    0 -0.12180216982E+02 -0.36490538931E+01 -0.22077813131E+02  0.25477721183E+02  0.10566000000E+00 0.  1.
        -14    1    4    4    0    0 -0.11049620743E+02 -0.36117782467E+01 -0.17761551075E+02  0.21227617795E+02  0.00000000000E+00 0.  1.
<mgrwt>
<rscale>  0 0.78874517E+02</rscale>
<asrwt>0</asrwt>
<pdfrwt beam="1">  1        1 0.46738019E-02 0.78874517E+02</pdfrwt>
<pdfrwt beam="2">  1       -2 0.78761944E-02 0.78874517E+02</pdfrwt>
<totfact> 0.12624247E+05</totfact>
</mgrwt>
</event>
<event>
 8    1  0.1372337E-020  0.7803454E+02  0.7818608E-02  0.1334723E+00
         -2   -1    0    0    0  501 -0.00000000000E+00  0.00000000000E+00  0.32158456869E+03  0.32158456870E+03  0.25500000000E-02 0.  1.
          1   -1    0    0  501    0  0.00000000000E+00 -0.00000000000E+00 -0.47338932362E+01  0.47338959191E+01  0.50400000000E-02 0. -1.
        -24    2    1    2    0    0  0.00000000000E+00  0.00000000000E+00  0.31685067546E+03  0.32631846462E+03  0.78034542454E+02 0.  0.
         66    2    3    3    0    0  0.13948917309E+01 -0.25353721387E+02  0.28226739219E+03  0.28341425088E+03  0.19999996909E+01 0.  0.
         13    1    3    3    0    0 -0.13948917309E+01  0.25353721387E+02  0.34583283273E+02  0.42904213745E+02  0.10566000000E+00 0. -1.
         13    1    4    4    0    0  0.21035406620E+00 -0.18242134508E+01  0.19282548060E+02  0.19370075562E+02  0.10566000000E+00 0.  1.
        -13    1    4    4    0    0  0.15277302385E+01 -0.21056911380E+02  0.23170319623E+03  0.23266308212E+03  0.10566000000E+00 0.  1.
        -14    1    4    4    0    0 -0.34319257375E+00 -0.24725965566E+01  0.31281647899E+02  0.31381093196E+02  0.00000000000E+00 0.  1.
<mgrwt>
<rscale>  0 0.78034542E+02</rscale>
<asrwt>0</asrwt>
<pdfrwt beam="1">  1        1 0.72829136E-03 0.78034542E+02</pdfrwt>
<pdfrwt beam="2">  1       -2 0.49474557E-01 0.78034542E+02</pdfrwt>
<totfact> 0.72083754E+04</totfact>
</mgrwt>
</event>
<event>
 8    1  0.1693956E-020  0.7970766E+02  0.7818608E-02  0.1329883E+00
          1   -1    0    0  501    0  0.00000000000E+00  0.00000000000E+00  0.15491424529E+03  0.15491424537E+03  0.50400000000E-02 0. -1.
         -2   -1    0    0    0  501 -0.00000000000E+00 -0.00000000000E+00 -0.10252948452E+02  0.10252948769E+02  0.25500000000E-02 0.  1.
        -24    2    1    2    0    0 -0.13877787808E-16  0.00000000000E+00  0.14466129684E+03  0.16516719414E+03  0.79707660972E+02 0.  0.
         66    2    3    3    0    0  0.95539003355E-01 -0.25124492161E+02  0.83374128622E+01  0.26547348014E+02  0.19999998268E+01 0.  0.
         13    1    3    3    0    0 -0.95539003355E-01  0.25124492161E+02  0.13632388398E+03  0.13861984613E+03  0.10566000000E+00 0. -1.
         13    1    4    4    0    0 -0.13358012675E+00 -0.44326589044E+01  0.20052222503E+01  0.48680991077E+01  0.10566000000E+00 0. -1.
        -13    1    4    4    0    0  0.11358569255E+00 -0.12765559545E+02  0.45600706524E+01  0.13556467851E+02  0.10566000000E+00 0.  1.
         14    1    4    4    0    0  0.11553343755E+00 -0.79262737109E+01  0.17721199595E+01  0.81227810549E+01  0.00000000000E+00 0. -1.
<mgrwt>
<rscale>  0 0.79707661E+02</rscale>
<asrwt>0</asrwt>
<pdfrwt beam="1">  1        1 0.23832958E-01 0.79707661E+02</pdfrwt>
<pdfrwt beam="2">  1       -2 0.15773769E-02 0.79707661E+02</pdfrwt>
<totfact> 0.16038922E+05</totfact>
</mgrwt>
</event>
<event>
 8    1  0.1372337E-020  0.8094597E+02  0.7818608E-02  0.1326388E+00
         -2   -1    0    0    0  501 -0.00000000000E+00  0.00000000000E+00  0.83599294583E+02  0.83599294622E+02  0.25500000000E-02 0.  1.
          1   -1    0    0  501    0  0.00000000000E+00 -0.00000000000E+00 -0.19594216321E+02  0.19594216969E+02  0.50400000000E-02 0. -1.
        -24    2    1    2    0    0  0.35527136788E-14 -0.71054273576E-14  0.64005078263E+02  0.10319351159E+03  0.80945974520E+02 0.  0.
         66    2    3    3    0    0 -0.21409325767E+02  0.33608472200E+02  0.40869945402E+02  0.57116031517E+02  0.19999964297E+01 0.  0.
         13    1    3    3    0    0  0.21409325767E+02 -0.33608472200E+02  0.23135132861E+02  0.46077480074E+02  0.10566000000E+00 0. -1.
         13    1    4    4    0    0 -0.51121004067E+01  0.70873010426E+01  0.94077299291E+01  0.12840558909E+02  0.10566000000E+00 0. -1.
        -13    1    4    4    0    0 -0.38577440885E+01  0.57344564538E+01  0.75704396271E+01  0.10251287746E+02  0.10566000000E+00 0.  1.
         14    1    4    4    0    0 -0.12439481272E+02  0.20786714704E+02  0.23891775845E+02  0.34024184862E+02  0.00000000000E+00 0. -1.
<mgrwt>
<rscale>  0 0.80945975E+02</rscale>
<asrwt>0</asrwt>
<pdfrwt beam="1">  1        1 0.30144949E-02 0.80945975E+02</pdfrwt>
<pdfrwt beam="2">  1       -2 0.12861430E-01 0.80945975E+02</pdfrwt>
<totfact> 0.10741876E+05</totfact>
</mgrwt>
</event>
<event>
 8    1  0.1372337E-020  0.8107052E+02  0.7818608E-02  0.1326041E+00
         -2   -1    0    0    0  501 -0.00000000000E+00  0.00000000000E+00  0.10129440070E+02  0.10129440391E+02  0.25500000000E-02 0.  1.
          1   -1    0    0  501    0  0.00000000000E+00 -0.00000000000E+00 -0.16221104837E+03  0.16221104845E+03  0.50400000000E-02 0. -1.
        -24    2    1    2    0    0  0.00000000000E+00  0.00000000000E+00 -0.15208160830E+03  0.17234048884E+03  0.81070515665E+02 0.  0.
         66    2    3    3    0    0  0.16332008136E+02  0.36224966724E+02 -0.92841712126E+02  0.10100775325E+03  0.20000005709E+01 0.  0.
         13    1    3    3    0    0 -0.16332008136E+02 -0.36224966724E+02 -0.59239896178E+02  0.71332735592E+02  0.10566000000E+00 0. -1.
         13    1    4    4    0    0  0.42854661103E+01  0.83795083521E+01 -0.22449717789E+02  0.24343014868E+02  0.10566000000E+00 0. -1.
        -13    1    4    4    0    0  0.73369498793E+01  0.16250948843E+02 -0.39772049611E+02  0.43586136169E+02  0.10566000000E+00 0.  1.
        -14    1    4    4    0    0  0.47095921462E+01  0.11594509529E+02 -0.30619944726E+02  0.33078602214E+02  0.00000000000E+00 0.  1.
<mgrwt>
<rscale>  0 0.81070516E+02</rscale>
<asrwt>0</asrwt>
<pdfrwt beam="1">  1        1 0.24955544E-01 0.81070516E+02</pdfrwt>
<pdfrwt beam="2">  1       -2 0.15583755E-02 0.81070516E+02</pdfrwt>
<totfact> 0.15461438E+05</totfact>
</mgrwt>
</event>
<event>
 8    1  0.1372337E-020  0.7421236E+02  0.7818608E-02  0.1346328E+00
         -2   -1    0    0    0  501 -0.00000000000E+00  0.00000000000E+00  0.47099276043E+01  0.47099282946E+01  0.25500000000E-02 0.  1.
          1   -1    0    0  501    0  0.00000000000E+00 -0.00000000000E+00 -0.29233327224E+03  0.29233327228E+03  0.50400000000E-02 0. -1.
        -24    2    1    2    0    0  0.17763568394E-14  0.00000000000E+00 -0.28762334463E+03  0.29704320057E+03  0.74212361707E+02 0.  0.
         66    2    3    3    0    0  0.15795362620E+02  0.32722845145E+02 -0.17348796918E+03  0.17726351461E+03  0.20000222735E+01 0.  0.
         13    1    3    3    0    0 -0.15795362620E+02 -0.32722845145E+02 -0.11413537545E+03  0.11977968596E+03  0.10566000000E+00 0. -1.
         13    1    4    4    0    0  0.44549745510E+01  0.78980052572E+01 -0.40652256655E+02  0.41651439597E+02  0.10566000000E+00 0.  1.
        -13    1    4    4    0    0  0.68467635782E+01  0.15112916922E+02 -0.79208354835E+02  0.80927455595E+02  0.10566000000E+00 0. -1.
        -14    1    4    4    0    0  0.44936244904E+01  0.97119229660E+01 -0.53627357686E+02  0.54684619420E+02  0.00000000000E+00 0.  1.
<mgrwt>
<rscale>  0 0.74212362E+02</rscale>
<asrwt>0</asrwt>
<pdfrwt beam="1">  1        1 0.44974335E-01 0.74212362E+02</pdfrwt>
<pdfrwt beam="2">  1       -2 0.72460453E-03 0.74212362E+02</pdfrwt>
<totfact> 0.21866461E+05</totfact>
</mgrwt>
</event>
<event>
 8    1  0.1372337E-020  0.8245203E+02  0.7818608E-02  0.1322234E+00
          1   -1    0    0  501    0  0.00000000000E+00  0.00000000000E+00  0.30008858183E+02  0.30008858606E+02  0.50400000000E-02 0. -1.
         -2   -1    0    0    0  501 -0.00000000000E+00 -0.00000000000E+00 -0.56636085764E+02  0.56636085821E+02  0.25500000000E-02 0.  1.
        -24    2    1    2    0    0 -0.35527136788E-14  0.22204460493E-15 -0.26627227581E+02  0.86644944427E+02  0.82452029363E+02 0.  0.
         66    2    3    3    0    0 -0.24316359051E+02  0.17023226054E+01 -0.48228029047E+02  0.54075188398E+02  0.19999986952E+01 0.  0.
         13    1    3    3    0    0  0.24316359051E+02 -0.17023226054E+01  0.21600801466E+02  0.32569756029E+02  0.10566000000E+00 0. -1.
         13    1    4    4    0    0 -0.47919033541E+01  0.20810243127E+00 -0.79464899220E+01  0.92824302040E+01  0.10566000000E+00 0. -1.
        -13    1    4    4    0    0 -0.11695443304E+02  0.11785638727E+01 -0.24156523345E+02  0.26864869086E+02  0.10566000000E+00 0.  1.
         14    1    4    4    0    0 -0.78290123929E+01  0.31565630133E+00 -0.16125015780E+02  0.17927889108E+02  0.00000000000E+00 0. -1.
<mgrwt>
<rscale>  0 0.82452029E+02</rscale>
<asrwt>0</asrwt>
<pdfrwt beam="1">  1        1 0.46167475E-02 0.82452029E+02</pdfrwt>
<pdfrwt beam="2">  1       -2 0.87132439E-02 0.82452029E+02</pdfrwt>
<totfact> 0.11086982E+05</totfact>
</mgrwt>
</event>
<event>
 8    1  0.1372337E-020  0.7694692E+02  0.7818608E-02  0.1337946E+00
          1   -1    0    0  501    0  0.00000000000E+00  0.00000000000E+00  0.45880577856E+02  0.45880578132E+02  0.50400000000E-02 0. -1.
         -2   -1    0    0    0  501 -0.00000000000E+00 -0.00000000000E+00 -0.32262175920E+02  0.32262176021E+02  0.25500000000E-02 0.  1.
        -24    2    1    2    0    0  0.00000000000E+00  0.00000000000E+00  0.13618401935E+02  0.78142754154E+02  0.76946924275E+02 0.  0.
         66    2    3    3    0    0 -0.23388308433E+01  0.18165249717E+02 -0.27516242628E+02  0.33114800898E+02  0.20000007980E+01 0.  0.
         13    1    3    3    0    0  0.23388308433E+01 -0.18165249717E+02  0.41134644563E+02  0.45027953255E+02  0.10566000000E+00 0. -1.
         13    1    4    4    0    0 -0.15955124246E+01  0.92248277297E+01 -0.13440725326E+02  0.16380090594E+02  0.10566000000E+00 0. -1.
        -13    1    4    4    0    0 -0.45491176457E+00  0.39334076032E+01 -0.51559172386E+01  0.65017910374E+01  0.10566000000E+00 0.  1.
         14    1    4    4    0    0 -0.28840665408E+00  0.50070143844E+01 -0.89196000626E+01  0.10232919267E+02  0.00000000000E+00 0. -1.
<mgrwt>
<rscale>  0 0.76946924E+02</rscale>
<asrwt>0</asrwt>
<pdfrwt beam="1">  1        1 0.70585504E-02 0.76946924E+02</pdfrwt>
<pdfrwt beam="2">  1       -2 0.49634117E-02 0.76946924E+02</pdfrwt>
<totfact> 0.14465350E+05</totfact>
</mgrwt>
</event>
<event>
 8    1  0.1372337E-020  0.7971294E+02  0.7818608E-02  0.1329868E+00
         -2   -1    0    0    0  501 -0.00000000000E+00  0.00000000000E+00  0.23936567959E+03  0.23936567960E+03  0.25500000000E-02 0.  1.
          1   -1    0    0  501    0  0.00000000000E+00 -0.00000000000E+00 -0.66364479913E+01  0.66364499051E+01  0.50400000000E-02 0. -1.
        -24    2    1    2    0    0  0.35527136788E-14 -0.35527136788E-14  0.23272923160E+03  0.24600212951E+03  0.79712937986E+02 0.  0.
         66    2    3    3    0    0 -0.17962804387E+02  0.19999894337E+02  0.20714355960E+03  0.20889019220E+03  0.20000000843E+01 0.  0.
         13    1    3    3    0    0  0.17962804387E+02 -0.19999894337E+02  0.25585672002E+02  0.37111937308E+02  0.10566000000E+00 0. -1.
         13    1    4    4    0    0 -0.14098767420E+02  0.14732947576E+02  0.15414318579E+03  0.15548623050E+03  0.10566000000E+00 0. -1.
        -13    1    4    4    0    0 -0.21573400822E+01  0.25604022479E+01  0.26216556234E+02  0.26429694677E+02  0.10566000000E+00 0.  1.
         14    1    4    4    0    0 -0.17066968847E+01  0.27065445128E+01  0.26783817577E+02  0.26974267024E+02  0.00000000000E+00 0. -1.
<mgrwt>
<rscale>  0 0.79712938E+02</rscale>
<asrwt>0</asrwt>
<pdfrwt beam="1">  1        1 0.10209923E-02 0.79712938E+02</pdfrwt>
<pdfrwt beam="2">  1       -2 0.36825483E-01 0.79712938E+02</pdfrwt>
<totfact> 0.79438478E+04</totfact>
</mgrwt>
</event>
<event>
 8    1  0.1372337E-020  0.8073202E+02  0.7818608E-02  0.1326987E+00
          1   -1    0    0  501    0  0.00000000000E+00  0.00000000000E+00  0.25010862896E+02  0.25010863403E+02  0.50400000000E-02 0. -1.
         -2   -1    0    0    0  501 -0.00000000000E+00 -0.00000000000E+00 -0.65148278323E+02  0.65148278373E+02  0.25500000000E-02 0.  1.
        -24    2    1    2    0    0  0.35527136788E-14  0.88817841970E-15 -0.40137415428E+02  0.90159141776E+02  0.80732017989E+02 0.  0.
         66    2    3    3    0    0  0.25210789730E+02  0.63311685699E+01 -0.54533716599E+02  0.60444965602E+02  0.20000015495E+01 0.  0.
         13    1    3    3    0    0 -0.25210789730E+02 -0.63311685699E+01  0.14396301172E+02  0.29714176175E+02  0.10566000000E+00 0. -1.
         13    1    4    4    0    0  0.60490707381E+01  0.20788306650E+01 -0.12944739807E+02  0.14439191336E+02  0.10566000000E+00 0. -1.
        -13    1    4    4    0    0  0.11962558605E+02  0.32178237947E+01 -0.26838526276E+02  0.29559682933E+02  0.10566000000E+00 0.  1.
         14    1    4    4    0    0  0.71991603870E+01  0.10345141103E+01 -0.14750450516E+02  0.16446091333E+02  0.00000000000E+00 0. -1.
<mgrwt>
<rscale>  0 0.80732018E+02</rscale>
<asrwt>0</asrwt>
<pdfrwt beam="1">  1        1 0.38478251E-02 0.80732018E+02</pdfrwt>
<pdfrwt beam="2">  1       -2 0.10022812E-01 0.80732018E+02</pdfrwt>
<totfact> 0.11389043E+05</totfact>
</mgrwt>
</event>
<event>
 8    1  0.1372337E-020  0.7532955E+02  0.7818608E-02  0.1342854E+00
          1   -1    0    0  501    0  0.00000000000E+00  0.00000000000E+00  0.13508782152E+02  0.13508783093E+02  0.50400000000E-02 0. -1.
         -2   -1    0    0    0  501 -0.00000000000E+00 -0.00000000000E+00 -0.10501577684E+03  0.10501577687E+03  0.25500000000E-02 0.  1.
        -24    2    1    2    0    0  0.35527136788E-14 -0.44408920985E-15 -0.91506994686E+02  0.11852455996E+03  0.75329550893E+02 0.  0.
         66    2    3    3    0    0 -0.29601682996E+02  0.30304310419E+01 -0.95224022611E+01  0.31306857014E+02  0.20000006976E+01 0.  0.
         13    1    3    3    0    0  0.29601682996E+02 -0.30304310419E+01 -0.81984592425E+02  0.87217702948E+02  0.10566000000E+00 0. -1.
         13    1    4    4    0    0 -0.72337837312E+00  0.69519651975E-02 -0.11710614056E+00  0.74040697206E+00  0.10566000000E+00 0. -1.
        -13    1    4    4    0    0 -0.97639364141E+01  0.14452695773E+01 -0.38905772018E+01  0.10609948796E+02  0.10566000000E+00 0.  1.
        -14    1    4    4    0    0 -0.19114368208E+02  0.15782094993E+01 -0.55147189187E+01  0.19956501246E+02  0.00000000000E+00 0.  1.
<mgrwt>
<rscale>  0 0.75329551E+02</rscale>
<asrwt>0</asrwt>
<pdfrwt beam="1">  1        1 0.20782743E-02 0.75329551E+02</pdfrwt>
<pdfrwt beam="2">  1       -2 0.16156273E-01 0.75329551E+02</pdfrwt>
<totfact> 0.12226424E+05</totfact>
</mgrwt>
</event>
<event>
 8    1  0.1372337E-020  0.8013744E+02  0.7818608E-02  0.1328662E+00
         -2   -1    0    0    0  501 -0.00000000000E+00  0.00000000000E+00  0.30759848416E+01  0.30759858985E+01  0.25500000000E-02 0.  1.
          1   -1    0    0  501    0  0.00000000000E+00 -0.00000000000E+00 -0.52194735550E+03  0.52194735552E+03  0.50400000000E-02 0. -1.
        -24    2    1    2    0    0  0.00000000000E+00  0.35527136788E-14 -0.51887137066E+03  0.52502334142E+03  0.80137442871E+02 0.  0.
         66    2    3    3    0    0  0.16539241821E+02  0.22180412826E+02 -0.44924995871E+03  0.45010559053E+03  0.19999979159E+01 0.  0.
         13    1    3    3    0    0 -0.16539241821E+02 -0.22180412826E+02 -0.69621411941E+02  0.74917750886E+02  0.10566000000E+00 0. -1.
         13    1    4    4    0    0  0.36805961620E+01  0.41286566737E+01 -0.93333499131E+02  0.93497303802E+02  0.10566000000E+00 0. -1.
        -13    1    4    4    0    0  0.84536666091E+01  0.12491860799E+02 -0.24984034058E+03  0.25029526166E+03  0.10566000000E+00 0.  1.
         14    1    4    4    0    0  0.44049790501E+01  0.55598953530E+01 -0.10607611901E+03  0.10631302507E+03  0.00000000000E+00 0. -1.
<mgrwt>
<rscale>  0 0.80137443E+02</rscale>
<asrwt>0</asrwt>
<pdfrwt beam="1">  1        1 0.80299523E-01 0.80137443E+02</pdfrwt>
<pdfrwt beam="2">  1       -2 0.47322893E-03 0.80137443E+02</pdfrwt>
<totfact> 0.19614816E+05</totfact>
</mgrwt>
</event>
<event>
 8    1  0.1372337E-020  0.7796824E+02  0.7818608E-02  0.1334918E+00
          1   -1    0    0  501    0  0.00000000000E+00  0.00000000000E+00  0.62953893576E+01  0.62953913751E+01  0.50400000000E-02 0. -1.
         -2   -1    0    0    0  501 -0.00000000000E+00 -0.00000000000E+00 -0.24140865799E+03  0.24140865801E+03  0.25500000000E-02 0.  1.
        -24    2    1    2    0    0  0.00000000000E+00  0.35527136788E-14 -0.23511326863E+03  0.24770404938E+03  0.77968243482E+02 0.  0.
         66    2    3    3    0    0 -0.17364639164E+02 -0.21991172083E+02 -0.20362479123E+03  0.20555339439E+03  0.19999997716E+01 0.  0.
         13    1    3    3    0    0  0.17364639164E+02  0.21991172083E+02 -0.31488477407E+02  0.42150654993E+02  0.10566000000E+00 0. -1.
         13    1    4    4    0    0 -0.23173321585E+00 -0.87706411319E-01 -0.14459856089E+01  0.14708606714E+01  0.10566000000E+00 0. -1.
        -13    1    4    4    0    0 -0.46176576423E+01 -0.60982121714E+01 -0.55632876615E+02  0.56156380566E+02  0.10566000000E+00 0.  1.
         14    1    4    4    0    0 -0.12515248306E+02 -0.15805253500E+02 -0.14654592900E+03  0.14792615315E+03  0.00000000000E+00 0. -1.
<mgrwt>
<rscale>  0 0.77968243E+02</rscale>
<asrwt>0</asrwt>
<pdfrwt beam="1">  1        1 0.96852179E-03 0.77968243E+02</pdfrwt>
<pdfrwt beam="2">  1       -2 0.37139786E-01 0.77968243E+02</pdfrwt>
<totfact> 0.83774731E+04</totfact>
</mgrwt>
</event>
<event>
 8    1  0.1372337E-020  0.7713565E+02  0.7818608E-02  0.1337382E+00
          1   -1    0    0  501    0  0.00000000000E+00  0.00000000000E+00  0.88756303220E+02  0.88756303363E+02  0.50400000000E-02 0. -1.
         -2   -1    0    0    0  501 -0.00000000000E+00 -0.00000000000E+00 -0.16759113159E+02  0.16759113353E+02  0.25500000000E-02 0.  1.
        -24    2    1    2    0    0 -0.71054273576E-14  0.44408920985E-15  0.71997190061E+02  0.10551541672E+03  0.77135645379E+02 0.  0.
         66    2    3    3    0    0 -0.29701043555E+02  0.28881998154E+01  0.26561727083E+01  0.30025804596E+02  0.20000004402E+01 0.  0.
         13    1    3    3    0    0  0.29701043555E+02 -0.28881998154E+01  0.69341017353E+02  0.75489612120E+02  0.10566000000E+00 0. -1.
         13    1    4    4    0    0 -0.61731943946E+01  0.48767473924E+00  0.53610038874E+00  0.62164880235E+01  0.10566000000E+00 0. -1.
        -13    1    4    4    0    0 -0.16100615572E+02  0.18354571229E+01  0.65874359544E+00  0.16218626076E+02  0.10566000000E+00 0.  1.
        -14    1    4    4    0    0 -0.74272335887E+01  0.56506795324E+00  0.14613287241E+01  0.75906904964E+01  0.00000000000E+00 0.  1.
<mgrwt>
<rscale>  0 0.77135645E+02</rscale>
<asrwt>0</asrwt>
<pdfrwt beam="1">  1        1 0.13654816E-01 0.77135645E+02</pdfrwt>
<pdfrwt beam="2">  1       -2 0.25783251E-02 0.77135645E+02</pdfrwt>
<totfact> 0.15905380E+05</totfact>
</mgrwt>
</event>
<event>
 8    1  0.1372337E-020  0.7902273E+02  0.7818608E-02  0.1331848E+00
          1   -1    0    0  501    0  0.00000000000E+00  0.00000000000E+00  0.75955600196E+01  0.75955616917E+01  0.50400000000E-02 0. -1.
         -2   -1    0    0    0  501 -0.00000000000E+00 -0.00000000000E+00 -0.20553424834E+03  0.20553424836E+03  0.25500000000E-02 0.  1.
        -24    2    1    2    0    0 -0.69388939039E-17 -0.71054273576E-14 -0.19793868832E+03  0.21312981005E+03  0.79022728356E+02 0.  0.
         66    2    3    3    0    0  0.34451714638E-02  0.36689105035E+02 -0.13839985174E+03  0.14319430644E+03  0.19999983573E+01 0.  0.
         13    1    3    3    0    0 -0.34451714638E-02 -0.36689105035E+02 -0.59538836576E+02  0.69935503609E+02  0.10566000000E+00 0. -1.
         13    1    4    4    0    0 -0.48849408115E+00  0.92936612500E+01 -0.33482010878E+02  0.34751503311E+02  0.10566000000E+00 0. -1.
        -13    1    4    4    0    0 -0.36950211445E+00  0.69518877770E+01 -0.26702980896E+02  0.27595753808E+02  0.10566000000E+00 0.  1.
         14    1    4    4    0    0  0.86144136707E+00  0.20443556008E+02 -0.78214859970E+02  0.80847049319E+02  0.00000000000E+00 0. -1.
<mgrwt>
<rscale>  0 0.79022728E+02</rscale>
<asrwt>0</asrwt>
<pdfrwt beam="1">  1        1 0.11685480E-02 0.79022728E+02</pdfrwt>
<pdfrwt beam="2">  1       -2 0.31620649E-01 0.79022728E+02</pdfrwt>
<totfact> 0.86839539E+04</totfact>
</mgrwt>
</event>
<event>
 8    1  0.1372337E-020  0.7835264E+02  0.7818608E-02  0.1333792E+00
         -2   -1    0    0    0  501 -0.00000000000E+00  0.00000000000E+00  0.21335217043E+02  0.21335217196E+02  0.25500000000E-02 0.  1.
          1   -1    0    0  501    0  0.00000000000E+00 -0.00000000000E+00 -0.71936658126E+02  0.71936658303E+02  0.50400000000E-02 0. -1.
        -24    2    1    2    0    0  0.35527136788E-14  0.17763568394E-14 -0.50601441083E+02  0.93271875499E+02  0.78352644623E+02 0.  0.
         66    2    3    3    0    0 -0.22759585104E+02 -0.11945858346E+02  0.98368187262E+01  0.27594659826E+02  0.20000006176E+01 0.  0.
         13    1    3    3    0    0  0.22759585104E+02  0.11945858346E+02 -0.60438259809E+02  0.65677215673E+02  0.10566000000E+00 0. -1.
         13    1    4    4    0    0 -0.10172894257E+02 -0.47844485081E+01  0.35444355497E+01  0.11787828998E+02  0.10566000000E+00 0. -1.
        -13    1    4    4    0    0 -0.82627673815E+01 -0.45340187368E+01  0.37472888674E+01  0.10143174483E+02  0.10566000000E+00 0.  1.
        -14    1    4    4    0    0 -0.43239234659E+01 -0.26273911016E+01  0.25450943092E+01  0.56636563439E+01  0.00000000000E+00 0.  1.
<mgrwt>
<rscale>  0 0.78352645E+02</rscale>
<asrwt>0</asrwt>
<pdfrwt beam="1">  1        1 0.11067178E-01 0.78352645E+02</pdfrwt>
<pdfrwt beam="2">  1       -2 0.32823411E-02 0.78352645E+02</pdfrwt>
<totfact> 0.14745239E+05</totfact>
</mgrwt>
</event>
<event>
 8    1  0.1372337E-020  0.7847684E+02  0.7818608E-02  0.1333430E+00
          1   -1    0    0  501    0  0.00000000000E+00  0.00000000000E+00  0.18117035179E+03  0.18117035186E+03  0.50400000000E-02 0. -1.
         -2   -1    0    0    0  501 -0.00000000000E+00 -0.00000000000E+00 -0.84983754242E+01  0.84983758068E+01  0.25500000000E-02 0.  1.
        -24    2    1    2    0    0  0.00000000000E+00  0.00000000000E+00  0.17267197636E+03  0.18966872766E+03  0.78476842652E+02 0.  0.
         66    2    3    3    0    0  0.14177828053E+02  0.36322752675E+02  0.76340610540E+02  0.85745215524E+02  0.19999993693E+01 0.  0.
         13    1    3    3    0    0 -0.14177828053E+02 -0.36322752675E+02  0.96331365822E+02  0.10392351214E+03  0.10566000000E+00 0. -1.
         13    1    4    4    0    0  0.95888301777E+00  0.17877487137E+01  0.43766744069E+01  0.48251367861E+01  0.10566000000E+00 0. -1.
        -13    1    4    4    0    0  0.86279216345E+01  0.21188201413E+02  0.43530058184E+02  0.49175787135E+02  0.10566000000E+00 0.  1.
         14    1    4    4    0    0  0.45910234005E+01  0.13346802548E+02  0.28433877949E+02  0.31744291602E+02  0.00000000000E+00 0. -1.
<mgrwt>
<rscale>  0 0.78476843E+02</rscale>
<asrwt>0</asrwt>
<pdfrwt beam="1">  1        1 0.27872362E-01 0.78476843E+02</pdfrwt>
<pdfrwt beam="2">  1       -2 0.13074424E-02 0.78476843E+02</pdfrwt>
<totfact> 0.17216113E+05</totfact>
</mgrwt>
</event>
<event>
 8    1  0.1372337E-020  0.8500996E+02  0.7818608E-02  0.1315406E+00
          1   -1    0    0  501    0  0.00000000000E+00  0.00000000000E+00  0.36516077855E+03  0.36516077859E+03  0.50400000000E-02 0. -1.
         -2   -1    0    0    0  501 -0.00000000000E+00 -0.00000000000E+00 -0.49476103785E+01  0.49476110356E+01  0.25500000000E-02 0.  1.
        -24    2    1    2    0    0  0.17763568394E-14  0.71054273576E-14  0.36021316817E+03  0.37010838962E+03  0.85009961436E+02 0.  0.
         66    2    3    3    0    0 -0.59339033943E+01 -0.41958227606E+02  0.16717082151E+03  0.17246967165E+03  0.20000001422E+01 0.  0.
         13    1    3    3    0    0  0.59339033943E+01  0.41958227606E+02  0.19304234666E+03  0.19763871797E+03  0.10566000000E+00 0. -1.
         13    1    4    4    0    0 -0.42187323340E+00 -0.49578059486E+01  0.21929610482E+02  0.22487258543E+02  0.10566000000E+00 0. -1.
        -13    1    4    4    0    0 -0.45557520737E+01 -0.29125089524E+02  0.11461853323E+03  0.11834882779E+03  0.10566000000E+00 0.  1.
         14    1    4    4    0    0 -0.95627808721E+00 -0.78753321332E+01  0.30622677804E+02  0.31633585315E+02  0.00000000000E+00 0. -1.
<mgrwt>
<rscale>  0 0.85009961E+02</rscale>
<asrwt>0</asrwt>
<pdfrwt beam="1">  1        1 0.56178585E-01 0.85009961E+02</pdfrwt>
<pdfrwt beam="2">  1       -2 0.76117083E-03 0.85009961E+02</pdfrwt>
<totfact> 0.15933890E+05</totfact>
</mgrwt>
</event>
<event>
 8    1  0.1372337E-020  0.8039487E+02  0.7818608E-02  0.1327935E+00
          1   -1    0    0  501    0  0.00000000000E+00  0.00000000000E+00  0.34544227845E+01  0.34544264612E+01  0.50400000000E-02 0. -1.
         -2   -1    0    0    0  501 -0.00000000000E+00 -0.00000000000E+00 -0.46775774740E+03  0.46775774741E+03  0.25500000000E-02 0.  1.
        -24    2    1    2    0    0 -0.17763568394E-14  0.00000000000E+00 -0.46430332462E+03  0.47121217387E+03  0.80394872676E+02 0.  0.
         66    2    3    3    0    0 -0.14237379928E+02  0.71193564912E+01 -0.44848112939E+03  0.44876799311E+03  0.19999995548E+01 0.  0.
         13    1    3    3    0    0  0.14237379928E+02 -0.71193564912E+01 -0.15822195227E+02  0.22444180759E+02  0.10566000000E+00 0. -1.
         13    1    4    4    0    0 -0.54115561924E+01  0.27578283763E+01 -0.15895899880E+03  0.15907502953E+03  0.10566000000E+00 0. -1.
        -13    1    4    4    0    0 -0.21676956785E+01  0.10805190319E+01 -0.55017154790E+02  0.55070544860E+02  0.10566000000E+00 0.  1.
        -14    1    4    4    0    0 -0.66581280575E+01  0.32810090830E+01 -0.23450497580E+03  0.23462241872E+03  0.00000000000E+00 0.  1.
<mgrwt>
<rscale>  0 0.80394873E+02</rscale>
<asrwt>0</asrwt>
<pdfrwt beam="1">  1        1 0.53145032E-03 0.80394873E+02</pdfrwt>
<pdfrwt beam="2">  1       -2 0.71962680E-01 0.80394873E+02</pdfrwt>
<totfact> 0.52304790E+04</totfact>
</mgrwt>
</event>
<event>
 8    1  0.1372337E-020  0.7809008E+02  0.7818608E-02  0.1334561E+00
          1   -1    0    0  501    0  0.00000000000E+00  0.00000000000E+00  0.50220900660E+01  0.50220925950E+01  0.50400000000E-02 0. -1.
         -2   -1    0    0    0  501 -0.00000000000E+00 -0.00000000000E+00 -0.30356178536E+03  0.30356178537E+03  0.25500000000E-02 0.  1.
        -24    2    1    2    0    0  0.00000000000E+00  0.00000000000E+00 -0.29853969529E+03  0.30858387797E+03  0.78090076669E+02 0.  0.
         66    2    3    3    0    0 -0.23282737181E+02  0.82157982193E+01 -0.26876489818E+03  0.26990397494E+03  0.20000006648E+01 0.  0.
         13    1    3    3    0    0  0.23282737181E+02 -0.82157982193E+01 -0.29774797115E+02  0.38679903028E+02  0.10566000000E+00 0. -1.
         13    1    4    4    0    0 -0.48966694142E+01  0.12216697441E+01 -0.58567941357E+02  0.58785072656E+02  0.10566000000E+00 0. -1.
        -13    1    4    4    0    0 -0.20488856178E+01  0.10457690948E+01 -0.27762906040E+02  0.27858242606E+02  0.10566000000E+00 0.  1.
        -14    1    4    4    0    0 -0.16337182149E+02  0.59483593804E+01 -0.18243405078E+03  0.18326065968E+03  0.00000000000E+00 0.  1.
<mgrwt>
<rscale>  0 0.78090077E+02</rscale>
<asrwt>0</asrwt>
<pdfrwt beam="1">  1        1 0.77262968E-03 0.78090077E+02</pdfrwt>
<pdfrwt beam="2">  1       -2 0.46701799E-01 0.78090077E+02</pdfrwt>
<totfact> 0.74312026E+04</totfact>
</mgrwt>
</event>
<event>
 8    1  0.1372337E-020  0.7879181E+02  0.7818608E-02  0.1332515E+00
         -2   -1    0    0    0  501 -0.00000000000E+00  0.00000000000E+00  0.48260950016E+02  0.48260950083E+02  0.25500000000E-02 0.  1.
          1   -1    0    0  501    0  0.00000000000E+00 -0.00000000000E+00 -0.32159274648E+02  0.32159275043E+02  0.50400000000E-02 0. -1.
        -24    2    1    2    0    0 -0.71054273576E-14  0.00000000000E+00  0.16101675368E+02  0.80420225126E+02  0.78791805790E+02 0.  0.
         66    2    3    3    0    0  0.36942678364E+02  0.98656275411E+01 -0.15154402721E+01  0.38319559822E+02  0.20000035683E+01 0.  0.
         13    1    3    3    0    0 -0.36942678364E+02 -0.98656275411E+01  0.17617115641E+02  0.42100665304E+02  0.10566000000E+00 0. -1.
         13    1    4    4    0    0  0.15292686249E+01  0.40421885748E+00  0.63425316167E-01  0.15865819293E+01  0.10566000000E+00 0.  1.
        -13    1    4    4    0    0  0.34976427301E+02  0.93553057188E+01 -0.13570012133E+01  0.36231544656E+02  0.10566000000E+00 0.  1.
        -14    1    4    4    0    0  0.43698243810E+00  0.10610296488E+00 -0.22186437494E+00  0.50143323706E+00  0.00000000000E+00 0.  1.
<mgrwt>
<rscale>  0 0.78791806E+02</rscale>
<asrwt>0</asrwt>
<pdfrwt beam="1">  1        1 0.49475808E-02 0.78791806E+02</pdfrwt>
<pdfrwt beam="2">  1       -2 0.74247615E-02 0.78791806E+02</pdfrwt>
<totfact> 0.12786262E+05</totfact>
</mgrwt>
</event>
<event>
 8    1  0.1372337E-020  0.8145401E+02  0.7818608E-02  0.1324975E+00
         -2   -1    0    0    0  501 -0.00000000000E+00  0.00000000000E+00  0.34056308451E+03  0.34056308452E+03  0.25500000000E-02 0.  1.
          1   -1    0    0  501    0  0.00000000000E+00 -0.00000000000E+00 -0.48704290532E+01  0.48704316609E+01  0.50400000000E-02 0. -1.
        -24    2    1    2    0    0  0.00000000000E+00  0.00000000000E+00  0.33569265546E+03  0.34543351618E+03  0.81454006490E+02 0.  0.
         66    2    3    3    0    0 -0.34221496719E+01  0.10312435326E+02  0.33429563040E+03  0.33447813971E+03  0.20000017667E+01 0.  0.
         13    1    3    3    0    0  0.34221496719E+01 -0.10312435326E+02  0.13970250629E+01  0.10955376479E+02  0.10566000000E+00 0. -1.
         13    1    4    4    0    0 -0.79038205132E+00  0.92645451290E+00  0.36271926900E+02  0.36292518056E+02  0.10566000000E+00 0. -1.
        -13    1    4    4    0    0 -0.19069926049E+01  0.75957835670E+01  0.22459745928E+03  0.22473398147E+03  0.10566000000E+00 0.  1.
        -14    1    4    4    0    0 -0.72477501572E+00  0.17901972461E+01  0.73426244217E+02  0.73451640178E+02  0.00000000000E+00 0.  1.
<mgrwt>
<rscale>  0 0.81454006E+02</rscale>
<asrwt>0</asrwt>
<pdfrwt beam="1">  1        1 0.74929665E-03 0.81454006E+02</pdfrwt>
<pdfrwt beam="2">  1       -2 0.52394344E-01 0.81454006E+02</pdfrwt>
<totfact> 0.62403117E+04</totfact>
</mgrwt>
</event>
<event>
 8    1  0.1372337E-020  0.8203538E+02  0.7818608E-02  0.1323373E+00
          1   -1    0    0  501    0  0.00000000000E+00  0.00000000000E+00  0.14190226378E+03  0.14190226387E+03  0.50400000000E-02 0. -1.
         -2   -1    0    0    0  501 -0.00000000000E+00 -0.00000000000E+00 -0.11856407463E+02  0.11856407737E+02  0.25500000000E-02 0.  1.
        -24    2    1    2    0    0 -0.35527136788E-14  0.00000000000E+00  0.13004585632E+03  0.15375867161E+03  0.82035384736E+02 0.  0.
         66    2    3    3    0    0 -0.20239200339E+02 -0.31247227942E+02  0.97222547611E+02  0.10412606899E+03  0.19999985247E+01 0.  0.
         13    1    3    3    0    0  0.20239200339E+02  0.31247227942E+02  0.32823308706E+02  0.49632602620E+02  0.10566000000E+00 0. -1.
         13    1    4    4    0    0 -0.62237372148E+01 -0.83332304651E+01  0.26676231791E+02  0.28632326862E+02  0.10566000000E+00 0. -1.
        -13    1    4    4    0    0 -0.37895270413E+01 -0.59391453203E+01  0.17350532950E+02  0.18726615285E+02  0.10566000000E+00 0.  1.
        -14    1    4    4    0    0 -0.10225936082E+02 -0.16974852156E+02  0.53195782870E+02  0.56767126840E+02  0.00000000000E+00 0.  1.
<mgrwt>
<rscale>  0 0.82035385E+02</rscale>
<asrwt>0</asrwt>
<pdfrwt beam="1">  1        1 0.21831118E-01 0.82035385E+02</pdfrwt>
<pdfrwt beam="2">  1       -2 0.18240627E-02 0.82035385E+02</pdfrwt>
<totfact> 0.14610939E+05</totfact>
</mgrwt>
</event>
<event>
 8    1  0.1372337E-020  0.7955018E+02  0.7818608E-02  0.1330333E+00
          1   -1    0    0  501    0  0.00000000000E+00  0.00000000000E+00  0.54846867918E+01  0.54846891075E+01  0.50400000000E-02 0. -1.
         -2   -1    0    0    0  501 -0.00000000000E+00 -0.00000000000E+00 -0.28844992334E+03  0.28844992335E+03  0.25500000000E-02 0.  1.
        -24    2    1    2    0    0  0.00000000000E+00  0.00000000000E+00 -0.28296523655E+03  0.29393461246E+03  0.79550181059E+02 0.  0.
         66    2    3    3    0    0  0.27380062736E+02 -0.22654064617E+02 -0.75766425153E+02  0.83710367695E+02  0.19999999897E+01 0.  0.
         13    1    3    3    0    0 -0.27380062736E+02  0.22654064617E+02 -0.20719881139E+03  0.21022424476E+03  0.10566000000E+00 0. -1.
         13    1    4    4    0    0  0.14878701300E+02 -0.13360211929E+02 -0.42676761404E+02  0.47129482737E+02  0.10566000000E+00 0. -1.
        -13    1    4    4    0    0  0.31313704938E+01 -0.26306329992E+01 -0.91841948218E+01  0.10054168773E+02  0.10566000000E+00 0.  1.
         14    1    4    4    0    0  0.93699909429E+01 -0.66632196889E+01 -0.23905468927E+02  0.26526716185E+02  0.00000000000E+00 0. -1.
<mgrwt>
<rscale>  0 0.79550181E+02</rscale>
<asrwt>0</asrwt>
<pdfrwt beam="1">  1        1 0.84379838E-03 0.79550181E+02</pdfrwt>
<pdfrwt beam="2">  1       -2 0.44376899E-01 0.79550181E+02</pdfrwt>
<totfact> 0.72817953E+04</totfact>
</mgrwt>
</event>
<event>
 8    1  0.1372337E-020  0.8471015E+02  0.7818608E-02  0.1316192E+00
          1   -1    0    0  501    0  0.00000000000E+00  0.00000000000E+00  0.33461730355E+02  0.33461730734E+02  0.50400000000E-02 0. -1.
         -2   -1    0    0    0  501 -0.00000000000E+00 -0.00000000000E+00 -0.53612058383E+02  0.53612058444E+02  0.25500000000E-02 0.  1.
        -24    2    1    2    0    0  0.00000000000E+00  0.00000000000E+00 -0.20150328028E+02  0.87073789178E+02  0.84710147221E+02 0.  0.
         66    2    3    3    0    0 -0.33292575092E+02  0.25902706983E+02 -0.64318625798E+01  0.42716678772E+02  0.20000009386E+01 0.  0.
         13    1    3    3    0    0  0.33292575092E+02 -0.25902706983E+02 -0.13718465448E+02  0.44357110406E+02  0.10566000000E+00 0. -1.
         13    1    4    4    0    0 -0.18946701610E+02  0.15378059715E+02 -0.29367694471E+01  0.24578405183E+02  0.10566000000E+00 0. -1.
        -13    1    4    4    0    0 -0.89317719369E+01  0.66105480867E+01 -0.19721085229E+01  0.11286109693E+02  0.10566000000E+00 0.  1.
         14    1    4    4    0    0 -0.54141015449E+01  0.39140991811E+01 -0.15229846099E+01  0.68521638961E+01  0.00000000000E+00 0. -1.
<mgrwt>
<rscale>  0 0.84710147E+02</rscale>
<asrwt>0</asrwt>
<pdfrwt beam="1">  1        1 0.51479586E-02 0.84710147E+02</pdfrwt>
<pdfrwt beam="2">  1       -2 0.82480090E-02 0.84710147E+02</pdfrwt>
<totfact> 0.10460883E+05</totfact>
</mgrwt>
</event>
<event>
 8    1  0.1372337E-020  0.8000452E+02  0.7818608E-02  0.1329039E+00
         -2   -1    0    0    0  501 -0.00000000000E+00  0.00000000000E+00  0.43802542903E+01  0.43802550326E+01  0.25500000000E-02 0.  1.
          1   -1    0    0  501    0  0.00000000000E+00 -0.00000000000E+00 -0.36531679955E+03  0.36531679958E+03  0.50400000000E-02 0. -1.
        -24    2    1    2    0    0  0.00000000000E+00  0.00000000000E+00 -0.36093654526E+03  0.36969705461E+03  0.80004515427E+02 0.  0.
         66    2    3    3    0    0 -0.39763813551E+02  0.32908904166E+01 -0.19207273393E+03  0.19618339876E+03  0.20000005338E+01 0.  0.
         13    1    3    3    0    0  0.39763813551E+02 -0.32908904166E+01 -0.16886381133E+03  0.17351365586E+03  0.10566000000E+00 0. -1.
         13    1    4    4    0    0 -0.29627358203E+01  0.31230657815E-01 -0.15665583257E+02  0.15943664626E+02  0.10566000000E+00 0. -1.
        -13    1    4    4    0    0 -0.11125801012E+02  0.14255817425E+01 -0.55795415964E+02  0.56911820724E+02  0.10566000000E+00 0.  1.
        -14    1    4    4    0    0 -0.25675276719E+02  0.18340780162E+01 -0.12061173471E+03  0.12332791341E+03  0.00000000000E+00 0.  1.
<mgrwt>
<rscale>  0 0.80004515E+02</rscale>
<asrwt>0</asrwt>
<pdfrwt beam="1">  1        1 0.56202561E-01 0.80004515E+02</pdfrwt>
<pdfrwt beam="2">  1       -2 0.67388562E-03 0.80004515E+02</pdfrwt>
<totfact> 0.18701101E+05</totfact>
</mgrwt>
</event>
<event>
 8    1  0.1372337E-020  0.7990859E+02  0.7818608E-02  0.1329311E+00
         -2   -1    0    0    0  501 -0.00000000000E+00  0.00000000000E+00  0.15240828464E+02  0.15240828677E+02  0.25500000000E-02 0.  1.
          1   -1    0    0  501    0  0.00000000000E+00 -0.00000000000E+00 -0.10474138571E+03  0.10474138584E+03  0.50400000000E-02 0. -1.
        -24    2    1    2    0    0  0.00000000000E+00  0.00000000000E+00 -0.89500557251E+02  0.11998221451E+03  0.79908585591E+02 0.  0.
         66    2    3    3    0    0  0.20923761492E+02 -0.19629756085E+02 -0.30807736707E+01  0.28924423649E+02  0.19999995309E+01 0.  0.
         13    1    3    3    0    0 -0.20923761492E+02  0.19629756085E+02 -0.86419783580E+02  0.91057790864E+02  0.10566000000E+00 0. -1.
         13    1    4    4    0    0  0.48745143820E+01 -0.52439525765E+01 -0.77919616950E+00  0.72026550515E+01  0.10566000000E+00 0. -1.
        -13    1    4    4    0    0  0.13027245906E+02 -0.11617427695E+02 -0.24171929237E+01  0.17621797519E+02  0.10566000000E+00 0.  1.
         14    1    4    4    0    0  0.30220012036E+01 -0.27683758128E+01  0.11561542251E+00  0.40999710782E+01  0.00000000000E+00 0. -1.
<mgrwt>
<rscale>  0 0.79908586E+02</rscale>
<asrwt>0</asrwt>
<pdfrwt beam="1">  1        1 0.16114059E-01 0.79908586E+02</pdfrwt>
<pdfrwt beam="2">  1       -2 0.23447429E-02 0.79908586E+02</pdfrwt>
<totfact> 0.14860454E+05</totfact>
</mgrwt>
</event>
<event>
 8    1  0.1372337E-020  0.7801877E+02  0.7818608E-02  0.1334770E+00
         -2   -1    0    0    0  501 -0.00000000000E+00  0.00000000000E+00  0.99179409661E+02  0.99179409694E+02  0.25500000000E-02 0.  1.
          1   -1    0    0  501    0  0.00000000000E+00 -0.00000000000E+00 -0.15343224975E+02  0.15343225803E+02  0.50400000000E-02 0. -1.
        -24    2    1    2    0    0 -0.17763568394E-14  0.00000000000E+00  0.83836184685E+02  0.11452263550E+03  0.78018768117E+02 0.  0.
         66    2    3    3    0    0  0.15366784902E+02 -0.34497323846E+02  0.27749984475E+02  0.46906983101E+02  0.19999986316E+01 0.  0.
         13    1    3    3    0    0 -0.15366784902E+02  0.34497323846E+02  0.56086200210E+02  0.67615652395E+02  0.10566000000E+00 0. -1.
         13    1    4    4    0    0  0.71765468442E+00 -0.20436165025E+01  0.11539442623E+01  0.24564502949E+01  0.10566000000E+00 0. -1.
        -13    1    4    4    0    0  0.13899527188E+02 -0.31150529085E+02  0.25388068654E+02  0.42521965057E+02  0.10566000000E+00 0.  1.
        -14    1    4    4    0    0  0.74960302944E+00 -0.13031782594E+01  0.12079715591E+01  0.19285677497E+01  0.00000000000E+00 0.  1.
<mgrwt>
<rscale>  0 0.78018768E+02</rscale>
<asrwt>0</asrwt>
<pdfrwt beam="1">  1        1 0.23604963E-02 0.78018768E+02</pdfrwt>
<pdfrwt beam="2">  1       -2 0.15258371E-01 0.78018768E+02</pdfrwt>
<totfact> 0.11338947E+05</totfact>
</mgrwt>
</event>
<event>
 8    1  0.1372337E-020  0.8116198E+02  0.7818608E-02  0.1325786E+00
         -2   -1    0    0    0  501 -0.00000000000E+00  0.00000000000E+00  0.26601714411E+03  0.26601714413E+03  0.25500000000E-02 0.  1.
          1   -1    0    0  501    0  0.00000000000E+00 -0.00000000000E+00 -0.61906405436E+01  0.61906425952E+01  0.50400000000E-02 0. -1.
        -24    2    1    2    0    0 -0.71054273576E-14  0.00000000000E+00  0.25982650357E+03  0.27220778672E+03  0.81161981211E+02 0.  0.
         66    2    3    3    0    0 -0.37340287303E+02 -0.53860522119E+01  0.17990793026E+03  0.18383190688E+03  0.20000003306E+01 0.  0.
         13    1    3    3    0    0  0.37340287303E+02  0.53860522119E+01  0.79918573311E+02  0.88375879845E+02  0.10566000000E+00 0. -1.
         13    1    4    4    0    0 -0.37276270344E+01 -0.38957946601E+00  0.16336657900E+02  0.16761400027E+02  0.10566000000E+00 0. -1.
        -13    1    4    4    0    0 -0.21159489467E+02 -0.24335651754E+01  0.10174722565E+03  0.10395265906E+03  0.10566000000E+00 0.  1.
         14    1    4    4    0    0 -0.12453170801E+02 -0.25629075706E+01  0.61824046705E+02  0.63117847787E+02  0.00000000000E+00 0. -1.
<mgrwt>
<rscale>  0 0.81161981E+02</rscale>
<asrwt>0</asrwt>
<pdfrwt beam="1">  1        1 0.95240620E-03 0.81161981E+02</pdfrwt>
<pdfrwt beam="2">  1       -2 0.40925723E-01 0.81161981E+02</pdfrwt>
<totfact> 0.72077236E+04</totfact>
</mgrwt>
</event>
<event>
 8    1  0.1372337E-020  0.7711395E+02  0.7818608E-02  0.1337447E+00
         -2   -1    0    0    0  501 -0.00000000000E+00  0.00000000000E+00  0.48884382637E+01  0.48884389287E+01  0.25500000000E-02 0.  1.
          1   -1    0    0  501    0  0.00000000000E+00 -0.00000000000E+00 -0.30411349838E+03  0.30411349842E+03  0.50400000000E-02 0. -1.
        -24    2    1    2    0    0  0.00000000000E+00  0.00000000000E+00 -0.29922506011E+03  0.30900193735E+03  0.77113946110E+02 0.  0.
         66    2    3    3    0    0 -0.31540156743E+01 -0.22695656055E+02 -0.27384157994E+03  0.27480584330E+03  0.19999966178E+01 0.  0.
         13    1    3    3    0    0  0.31540156743E+01  0.22695656055E+02 -0.25383480170E+02  0.34196094049E+02  0.10566000000E+00 0. -1.
         13    1    4    4    0    0 -0.70440713760E+00 -0.10101637044E+02 -0.12722173400E+03  0.12762413576E+03  0.10566000000E+00 0. -1.
        -13    1    4    4    0    0 -0.76676413635E+00 -0.56702326836E+01 -0.65369709242E+02  0.65619734199E+02  0.10566000000E+00 0.  1.
         14    1    4    4    0    0 -0.16828444004E+01 -0.69237863275E+01 -0.81250136699E+02  0.81561973345E+02  0.00000000000E+00 0. -1.
<mgrwt>
<rscale>  0 0.77113946E+02</rscale>
<asrwt>0</asrwt>
<pdfrwt beam="1">  1        1 0.46786677E-01 0.77113946E+02</pdfrwt>
<pdfrwt beam="2">  1       -2 0.75206771E-03 0.77113946E+02</pdfrwt>
<totfact> 0.19924072E+05</totfact>
</mgrwt>
</event>
<event>
 8    1  0.1372337E-020  0.8149289E+02  0.7818608E-02  0.1324867E+00
          1   -1    0    0  501    0  0.00000000000E+00  0.00000000000E+00  0.74667001766E+02  0.74667001936E+02  0.50400000000E-02 0. -1.
         -2   -1    0    0    0  501 -0.00000000000E+00 -0.00000000000E+00 -0.22235695977E+02  0.22235696123E+02  0.25500000000E-02 0.  1.
        -24    2    1    2    0    0 -0.17763568394E-14  0.88817841970E-15  0.52431305789E+02  0.96902698059E+02  0.81492889655E+02 0.  0.
         66    2    3    3    0    0  0.15803409361E+02 -0.72055056437E+01 -0.17565380481E+02  0.24783253304E+02  0.19999984684E+01 0.  0.
         13    1    3    3    0    0 -0.15803409361E+02  0.72055056437E+01  0.69996686270E+02  0.72119444755E+02  0.10566000000E+00 0. -1.
         13    1    4    4    0    0  0.24064103577E+01 -0.16449699012E+01 -0.23976525111E+01  0.37757963908E+01  0.10566000000E+00 0. -1.
        -13    1    4    4    0    0  0.96565471945E+01 -0.40119068002E+01 -0.10327323330E+02  0.14697247058E+02  0.10566000000E+00 0.  1.
         14    1    4    4    0    0  0.37404518088E+01 -0.15486289423E+01 -0.48404046396E+01  0.63102098547E+01  0.00000000000E+00 0. -1.
<mgrwt>
<rscale>  0 0.81492890E+02</rscale>
<asrwt>0</asrwt>
<pdfrwt beam="1">  1        1 0.11487231E-01 0.81492890E+02</pdfrwt>
<pdfrwt beam="2">  1       -2 0.34208763E-02 0.81492890E+02</pdfrwt>
<totfact> 0.13322628E+05</totfact>
</mgrwt>
</event>
<event>
 8    1  0.1372337E-020  0.7855537E+02  0.7818608E-02  0.1333202E+00
          1   -1    0    0  501    0  0.00000000000E+00  0.00000000000E+00  0.18256152950E+03  0.18256152957E+03  0.50400000000E-02 0. -1.
         -2   -1    0    0    0  501 -0.00000000000E+00 -0.00000000000E+00 -0.84505005665E+01  0.84505009513E+01  0.25500000000E-02 0.  1.
        -24    2    1    2    0    0  0.00000000000E+00  0.00000000000E+00  0.17411102894E+03  0.19101203052E+03  0.78555365237E+02 0.  0.
         66    2    3    3    0    0  0.25458276426E+01 -0.39168900505E+02  0.87641228093E+02  0.96050345476E+02  0.19999998172E+01 0.  0.
         13    1    3    3    0    0 -0.25458276426E+01  0.39168900505E+02  0.86469800844E+02  0.94961685048E+02  0.10566000000E+00 0. -1.
         13    1    4    4    0    0  0.96120201986E+00 -0.92368379924E+01  0.22432691910E+02  0.24279207478E+02  0.10566000000E+00 0. -1.
        -13    1    4    4    0    0  0.13021213440E+00 -0.79587447819E+01  0.17136740342E+02  0.18895438796E+02  0.10566000000E+00 0.  1.
        -14    1    4    4    0    0  0.14544134884E+01 -0.21973317731E+02  0.48071795841E+02  0.52875699202E+02  0.00000000000E+00 0.  1.
<mgrwt>
<rscale>  0 0.78555365E+02</rscale>
<asrwt>0</asrwt>
<pdfrwt beam="1">  1        1 0.28086389E-01 0.78555365E+02</pdfrwt>
<pdfrwt beam="2">  1       -2 0.13000770E-02 0.78555365E+02</pdfrwt>
<totfact> 0.17195556E+05</totfact>
</mgrwt>
</event>
<event>
 8    1  0.1372337E-020  0.8037913E+02  0.7818608E-02  0.1327979E+00
         -2   -1    0    0    0  501 -0.00000000000E+00  0.00000000000E+00  0.28532756087E+01  0.28532767482E+01  0.25500000000E-02 0.  1.
          1   -1    0    0  501    0  0.00000000000E+00 -0.00000000000E+00 -0.56608653728E+03  0.56608653730E+03  0.50400000000E-02 0. -1.
        -24    2    1    2    0    0  0.00000000000E+00 -0.17763568394E-14 -0.56323326167E+03  0.56893981405E+03  0.80379132610E+02 0.  0.
         66    2    3    3    0    0  0.35629769852E+02 -0.15932309501E+02 -0.34889443515E+03  0.35107641028E+03  0.19999969673E+01 0.  0.
         13    1    3    3    0    0 -0.35629769852E+02  0.15932309501E+02 -0.21433882652E+03  0.21786340378E+03  0.10566000000E+00 0. -1.
         13    1    4    4    0    0  0.34887684856E+01 -0.14263609952E+01 -0.37319361168E+02  0.37509357410E+02  0.10566000000E+00 0. -1.
        -13    1    4    4    0    0  0.27872936297E+02 -0.13038599495E+02 -0.27309257143E+03  0.27482079505E+03  0.10566000000E+00 0.  1.
        -14    1    4    4    0    0  0.42680650697E+01 -0.14673490111E+01 -0.38482502547E+02  0.38746257817E+02  0.00000000000E+00 0.  1.
<mgrwt>
<rscale>  0 0.80379133E+02</rscale>
<asrwt>0</asrwt>
<pdfrwt beam="1">  1        1 0.87090148E-01 0.80379133E+02</pdfrwt>
<pdfrwt beam="2">  1       -2 0.43896602E-03 0.80379133E+02</pdfrwt>
<totfact> 0.19609758E+05</totfact>
</mgrwt>
</event>
<event>
 8    1  0.1372337E-020  0.8087059E+02  0.7818608E-02  0.1326599E+00
          1   -1    0    0  501    0  0.00000000000E+00  0.00000000000E+00  0.10883897137E+02  0.10883898304E+02  0.50400000000E-02 0. -1.
         -2   -1    0    0    0  501 -0.00000000000E+00 -0.00000000000E+00 -0.15022312639E+03  0.15022312641E+03  0.25500000000E-02 0.  1.
        -24    2    1    2    0    0  0.00000000000E+00  0.00000000000E+00 -0.13933922925E+03  0.16110702471E+03  0.80870591711E+02 0.  0.
         66    2    3    3    0    0 -0.79330520006E+01  0.39621411114E+02 -0.68780638848E+02  0.79797029162E+02  0.20000125395E+01 0.  0.
         13    1    3    3    0    0  0.79330520006E+01 -0.39621411114E+02 -0.70558590403E+02  0.81309995551E+02  0.10566000000E+00 0. -1.
         13    1    4    4    0    0 -0.11993298712E+00  0.82248771921E+00 -0.13710971117E+01  0.16068420255E+01  0.10566000000E+00 0.  1.
        -13    1    4    4    0    0 -0.65986503026E+01  0.31097171224E+02 -0.52844037219E+02  0.61669114454E+02  0.10566000000E+00 0.  1.
        -14    1    4    4    0    0 -0.12144687110E+01  0.77017521711E+01 -0.14565504517E+02  0.16521072683E+02  0.00000000000E+00 0.  1.
<mgrwt>
<rscale>  0 0.80870592E+02</rscale>
<asrwt>0</asrwt>
<pdfrwt beam="1">  1        1 0.16744459E-02 0.80870592E+02</pdfrwt>
<pdfrwt beam="2">  1       -2 0.23111249E-01 0.80870592E+02</pdfrwt>
<totfact> 0.91868253E+04</totfact>
</mgrwt>
</event>
<event>
 8    1  0.1372337E-020  0.7960500E+02  0.7818608E-02  0.1330176E+00
          1   -1    0    0  501    0  0.00000000000E+00  0.00000000000E+00  0.10033603774E+02  0.10033605040E+02  0.50400000000E-02 0. -1.
         -2   -1    0    0    0  501 -0.00000000000E+00 -0.00000000000E+00 -0.15789330143E+03  0.15789330145E+03  0.25500000000E-02 0.  1.
        -24    2    1    2    0    0  0.00000000000E+00  0.00000000000E+00 -0.14785969766E+03  0.16792690649E+03  0.79604998163E+02 0.  0.
         66    2    3    3    0    0 -0.14655895571E+01  0.32881701997E+02 -0.12109341017E+03  0.12550286155E+03  0.19999981772E+01 0.  0.
         13    1    3    3    0    0  0.14655895571E+01 -0.32881701997E+02 -0.26766287487E+02  0.42424044937E+02  0.10566000000E+00 0. -1.
         13    1    4    4    0    0 -0.16705566677E+01  0.27438449616E+02 -0.10293590948E+03  0.10654328651E+03  0.10566000000E+00 0. -1.
        -13    1    4    4    0    0 -0.50907311491E-01  0.14018844840E+01 -0.46949236397E+01  0.49011573816E+01  0.10566000000E+00 0.  1.
         14    1    4    4    0    0  0.25587442210E+00  0.40413678972E+01 -0.13462577051E+02  0.14058417658E+02  0.00000000000E+00 0. -1.
<mgrwt>
<rscale>  0 0.79604998E+02</rscale>
<asrwt>0</asrwt>
<pdfrwt beam="1">  1        1 0.15436316E-02 0.79604998E+02</pdfrwt>
<pdfrwt beam="2">  1       -2 0.24291275E-01 0.79604998E+02</pdfrwt>
<totfact> 0.94093465E+04</totfact>
</mgrwt>
</event>
<event>
 8    1  0.1372337E-020  0.7733266E+02  0.7818608E-02  0.1336796E+00
          1   -1    0    0  501    0  0.00000000000E+00  0.00000000000E+00  0.88180095510E+02  0.88180095654E+02  0.50400000000E-02 0. -1.
         -2   -1    0    0    0  501 -0.00000000000E+00 -0.00000000000E+00 -0.16954902633E+02  0.16954902824E+02  0.25500000000E-02 0.  1.
        -24    2    1    2    0    0 -0.88817841970E-15 -0.35527136788E-14  0.71225192877E+02  0.10513499848E+03  0.77332656780E+02 0.  0.
         66    2    3    3    0    0 -0.43883730308E+01  0.17652656159E+02 -0.10711109215E+02  0.21203819219E+02  0.20000003877E+01 0.  0.
         13    1    3    3    0    0  0.43883730308E+01 -0.17652656159E+02  0.81936302092E+02  0.83931179259E+02  0.10566000000E+00 0. -1.
         13    1    4    4    0    0 -0.12848378360E+01  0.33230171357E+01 -0.14175768880E+01  0.38358753132E+01  0.10566000000E+00 0. -1.
        -13    1    4    4    0    0 -0.13977258411E+00  0.11619460276E+01 -0.72846780547E+00  0.13825644019E+01  0.10566000000E+00 0.  1.
        -14    1    4    4    0    0 -0.29637626107E+01  0.13167692995E+02 -0.85650645213E+01  0.15985379504E+02  0.00000000000E+00 0.  1.
<mgrwt>
<rscale>  0 0.77332657E+02</rscale>
<asrwt>0</asrwt>
<pdfrwt beam="1">  1        1 0.13566169E-01 0.77332657E+02</pdfrwt>
<pdfrwt beam="2">  1       -2 0.26084466E-02 0.77332657E+02</pdfrwt>
<totfact> 0.15779650E+05</totfact>
</mgrwt>
</event>
<event>
 8    1  0.1372337E-020  0.8774257E+02  0.7818608E-02  0.1308412E+00
         -2   -1    0    0    0  501 -0.00000000000E+00  0.00000000000E+00  0.37106582961E+01  0.37106591723E+01  0.25500000000E-02 0.  1.
          1   -1    0    0  501    0  0.00000000000E+00 -0.00000000000E+00 -0.51869222727E+03  0.51869222729E+03  0.50400000000E-02 0. -1.
        -24    2    1    2    0    0  0.00000000000E+00  0.00000000000E+00 -0.51498156897E+03  0.52240288647E+03  0.87742574649E+02 0.  0.
         66    2    3    3    0    0 -0.34932461477E+02 -0.17808438075E+02 -0.37448701203E+03  0.37653942626E+03  0.20000025235E+01 0.  0.
         13    1    3    3    0    0  0.34932461477E+02  0.17808438075E+02 -0.14049455694E+03  0.14586346021E+03  0.10566000000E+00 0. -1.
         13    1    4    4    0    0 -0.11009145149E+02 -0.53430552238E+01 -0.12232777189E+03  0.12293837666E+03  0.10566000000E+00 0. -1.
        -13    1    4    4    0    0 -0.23504528501E+02 -0.12305846458E+02 -0.24635226027E+03  0.24777680284E+03  0.10566000000E+00 0.  1.
        -14    1    4    4    0    0 -0.41878782720E+00 -0.15953639282E+00 -0.58069798677E+01  0.58242467572E+01  0.00000000000E+00 0.  1.
<mgrwt>
<rscale>  0 0.87742575E+02</rscale>
<asrwt>0</asrwt>
<pdfrwt beam="1">  1        1 0.79798747E-01 0.87742575E+02</pdfrwt>
<pdfrwt beam="2">  1       -2 0.57087099E-03 0.87742575E+02</pdfrwt>
<totfact> 0.15440470E+05</totfact>
</mgrwt>
</event>
<event>
 8    1  0.1372337E-020  0.7767874E+02  0.7818608E-02  0.1335771E+00
         -2   -1    0    0    0  501 -0.00000000000E+00  0.00000000000E+00  0.33189449473E+02  0.33189449571E+02  0.25500000000E-02 0.  1.
          1   -1    0    0  501    0  0.00000000000E+00 -0.00000000000E+00 -0.45451084507E+02  0.45451084787E+02  0.50400000000E-02 0. -1.
        -24    2    1    2    0    0  0.35527136788E-14  0.00000000000E+00 -0.12261635034E+02  0.78640534358E+02  0.77678735510E+02 0.  0.
         66    2    3    3    0    0  0.22350803927E+02 -0.17082271788E+02  0.20938139346E+02  0.35125035641E+02  0.20000009670E+01 0.  0.
         13    1    3    3    0    0 -0.22350803927E+02  0.17082271788E+02 -0.33199774380E+02  0.43515498717E+02  0.10566000000E+00 0. -1.
         13    1    4    4    0    0  0.47375584462E+01 -0.35206233487E+01  0.51692849368E+01  0.78467776563E+01  0.10566000000E+00 0. -1.
        -13    1    4    4    0    0  0.13491033507E+02 -0.10338354833E+02  0.12634409616E+02  0.21178504105E+02  0.10566000000E+00 0.  1.
         14    1    4    4    0    0  0.41222119744E+01 -0.32232936062E+01  0.31344447938E+01  0.60997538802E+01  0.00000000000E+00 0. -1.
<mgrwt>
<rscale>  0 0.77678736E+02</rscale>
<asrwt>0</asrwt>
<pdfrwt beam="1">  1        1 0.69924746E-02 0.77678736E+02</pdfrwt>
<pdfrwt beam="2">  1       -2 0.51060691E-02 0.77678736E+02</pdfrwt>
<totfact> 0.14069542E+05</totfact>
</mgrwt>
</event>
<event>
 8    1  0.1372337E-020  0.8011689E+02  0.7818608E-02  0.1328720E+00
          1   -1    0    0  501    0  0.00000000000E+00  0.00000000000E+00  0.17596430205E+03  0.17596430212E+03  0.50400000000E-02 0. -1.
         -2   -1    0    0    0  501 -0.00000000000E+00 -0.00000000000E+00 -0.91193447260E+01  0.91193450825E+01  0.25500000000E-02 0.  1.
        -24    2    1    2    0    0  0.00000000000E+00  0.00000000000E+00  0.16684495732E+03  0.18508364720E+03  0.80116893836E+02 0.  0.
         66    2    3    3    0    0  0.28546022232E+02 -0.27394852179E+02  0.69361290399E+02  0.79877041934E+02  0.19999777984E+01 0.  0.
         13    1    3    3    0    0 -0.28546022232E+02  0.27394852179E+02  0.97483666922E+02  0.10520660527E+03  0.10566000000E+00 0. -1.
         13    1    4    4    0    0  0.19504465340E+01 -0.24818598590E+01  0.56432392328E+01  0.64669299606E+01  0.10566000000E+00 0. -1.
        -13    1    4    4    0    0  0.17040756881E+02 -0.15285870506E+02  0.39911101146E+02  0.46010350910E+02  0.10566000000E+00 0.  1.
        -14    1    4    4    0    0  0.95548188175E+01 -0.96271218148E+01  0.23806950020E+02  0.27399761063E+02  0.00000000000E+00 0.  1.
<mgrwt>
<rscale>  0 0.80116894E+02</rscale>
<asrwt>0</asrwt>
<pdfrwt beam="1">  1        1 0.27071431E-01 0.80116894E+02</pdfrwt>
<pdfrwt beam="2">  1       -2 0.14029761E-02 0.80116894E+02</pdfrwt>
<totfact> 0.16204626E+05</totfact>
</mgrwt>
</event>
<event>
 8    1  0.1372337E-020  0.7877430E+02  0.7818608E-02  0.1332566E+00
         -2   -1    0    0    0  501 -0.00000000000E+00  0.00000000000E+00  0.22996837764E+02  0.22996837906E+02  0.25500000000E-02 0.  1.
          1   -1    0    0  501    0  0.00000000000E+00 -0.00000000000E+00 -0.67459169904E+02  0.67459170093E+02  0.50400000000E-02 0. -1.
        -24    2    1    2    0    0  0.00000000000E+00  0.00000000000E+00 -0.44462332140E+02  0.90456007998E+02  0.78774300401E+02 0.  0.
         66    2    3    3    0    0  0.35830151401E+02  0.45758441205E+01 -0.42863344704E+01  0.36429532529E+02  0.20000195555E+01 0.  0.
         13    1    3    3    0    0 -0.35830151401E+02 -0.45758441205E+01 -0.40175997670E+02  0.54026475469E+02  0.10566000000E+00 0. -1.
         13    1    4    4    0    0  0.32738457256E+01  0.14334760547E-01 -0.37544752140E+00  0.32970283889E+01  0.10566000000E+00 0. -1.
        -13    1    4    4    0    0  0.24791389410E+02  0.29820638627E+01 -0.32529248439E+01  0.25181310090E+02  0.10566000000E+00 0.  1.
        -14    1    4    4    0    0  0.77649162656E+01  0.15794454972E+01 -0.65796210512E+00  0.79511940501E+01  0.00000000000E+00 0.  1.
<mgrwt>
<rscale>  0 0.78774300E+02</rscale>
<asrwt>0</asrwt>
<pdfrwt beam="1">  1        1 0.10378334E-01 0.78774300E+02</pdfrwt>
<pdfrwt beam="2">  1       -2 0.35379751E-02 0.78774300E+02</pdfrwt>
<totfact> 0.14385553E+05</totfact>
</mgrwt>
</event>
<event>
 8    1  0.1372337E-020  0.7983740E+02  0.7818608E-02  0.1329514E+00
         -2   -1    0    0    0  501 -0.00000000000E+00  0.00000000000E+00  0.19232349168E+02  0.19232349337E+02  0.25500000000E-02 0.  1.
          1   -1    0    0  501    0  0.00000000000E+00 -0.00000000000E+00 -0.82855321731E+02  0.82855321884E+02  0.50400000000E-02 0. -1.
        -24    2    1    2    0    0  0.00000000000E+00  0.00000000000E+00 -0.63622972563E+02  0.10208767122E+03  0.79837397111E+02 0.  0.
         66    2    3    3    0    0 -0.10764400150E+02 -0.14986066267E+02  0.13396155294E+02  0.22889112442E+02  0.19999997421E+01 0.  0.
         13    1    3    3    0    0  0.10764400150E+02  0.14986066267E+02 -0.77019127858E+02  0.79198558779E+02  0.10566000000E+00 0. -1.
         13    1    4    4    0    0 -0.49837165031E+01 -0.68695412696E+01  0.49581016999E+01  0.98296471931E+01  0.10566000000E+00 0. -1.
        -13    1    4    4    0    0 -0.51456836115E+01 -0.73112022058E+01  0.75204916825E+01  0.11683351262E+02  0.10566000000E+00 0.  1.
         14    1    4    4    0    0 -0.63500003530E+00 -0.80532279123E+00  0.91756191173E+00  0.13761139868E+01  0.00000000000E+00 0. -1.
<mgrwt>
<rscale>  0 0.79837397E+02</rscale>
<asrwt>0</asrwt>
<pdfrwt beam="1">  1        1 0.12746972E-01 0.79837397E+02</pdfrwt>
<pdfrwt beam="2">  1       -2 0.29588230E-02 0.79837397E+02</pdfrwt>
<totfact> 0.14328996E+05</totfact>
</mgrwt>
</event>
<event>
 8    1  0.1372337E-020  0.8065123E+02  0.7818608E-02  0.1327213E+00
          1   -1    0    0  501    0  0.00000000000E+00  0.00000000000E+00  0.55070579423E+02  0.55070579654E+02  0.50400000000E-02 0. -1.
         -2   -1    0    0    0  501 -0.00000000000E+00 -0.00000000000E+00 -0.29528566556E+02  0.29528566666E+02  0.25500000000E-02 0.  1.
        -24    2    1    2    0    0  0.00000000000E+00  0.00000000000E+00  0.25542012867E+02  0.84599146320E+02  0.80651231465E+02 0.  0.
         66    2    3    3    0    0 -0.34481884343E+02  0.42886554191E+01  0.34192780785E+02  0.48790769329E+02  0.20000001941E+01 0.  0.
         13    1    3    3    0    0  0.34481884343E+02 -0.42886554191E+01 -0.86507679184E+01  0.35808376991E+02  0.10566000000E+00 0. -1.
         13    1    4    4    0    0 -0.15676123382E+02  0.14501064826E+01  0.14352724102E+02  0.21303884770E+02  0.10566000000E+00 0. -1.
        -13    1    4    4    0    0 -0.14909200243E+02  0.23970784629E+01  0.15626225620E+02  0.21730631104E+02  0.10566000000E+00 0.  1.
        -14    1    4    4    0    0 -0.38965607175E+01  0.44147047358E+00  0.42138310635E+01  0.57562534548E+01  0.00000000000E+00 0.  1.
<mgrwt>
<rscale>  0 0.80651231E+02</rscale>
<asrwt>0</asrwt>
<pdfrwt beam="1">  1        1 0.84723969E-02 0.80651231E+02</pdfrwt>
<pdfrwt beam="2">  1       -2 0.45428564E-02 0.80651231E+02</pdfrwt>
<totfact> 0.13061347E+05</totfact>
</mgrwt>
</event>
<event>
 8    1  0.1372337E-020  0.7913454E+02  0.7818608E-02  0.1331526E+00
          1   -1    0    0  501    0  0.00000000000E+00  0.00000000000E+00  0.10634273915E+02  0.10634275109E+02  0.50400000000E-02 0. -1.
         -2   -1    0    0    0  501 -0.00000000000E+00 -0.00000000000E+00 -0.14721916298E+03  0.14721916300E+03  0.25500000000E-02 0.  1.
        -24    2    1    2    0    0  0.00000000000E+00  0.00000000000E+00 -0.13658488906E+03  0.15785343811E+03  0.79134543673E+02 0.  0.
         66    2    3    3    0    0  0.35878507654E+02  0.16296399451E+02 -0.74868280549E+02  0.84629187501E+02  0.19999995440E+01 0.  0.
         13    1    3    3    0    0 -0.35878507654E+02 -0.16296399451E+02 -0.61716608512E+02  0.73224250606E+02  0.10566000000E+00 0. -1.
         13    1    4    4    0    0  0.90141360182E+01  0.33027761987E+01 -0.18526880047E+02  0.20866706186E+02  0.10566000000E+00 0. -1.
        -13    1    4    4    0    0  0.18918540696E+02  0.89551468054E+01 -0.38744467445E+02  0.44036924938E+02  0.10566000000E+00 0.  1.
        -14    1    4    4    0    0  0.79458309396E+01  0.40384764468E+01 -0.17596933057E+02  0.19725556376E+02  0.00000000000E+00 0.  1.
<mgrwt>
<rscale>  0 0.79134544E+02</rscale>
<asrwt>0</asrwt>
<pdfrwt beam="1">  1        1 0.16360423E-02 0.79134544E+02</pdfrwt>
<pdfrwt beam="2">  1       -2 0.22649101E-01 0.79134544E+02</pdfrwt>
<totfact> 0.97787489E+04</totfact>
</mgrwt>
</event>
<event>
 8    1  0.1372337E-020  0.8124413E+02  0.7818608E-02  0.1325557E+00
          1   -1    0    0  501    0  0.00000000000E+00  0.00000000000E+00  0.17333545686E+03  0.17333545693E+03  0.50400000000E-02 0. -1.
         -2   -1    0    0    0  501 -0.00000000000E+00 -0.00000000000E+00 -0.95199919633E+01  0.95199923048E+01  0.25500000000E-02 0.  1.
        -24    2    1    2    0    0 -0.17763568394E-14  0.00000000000E+00  0.16381546489E+03  0.18285544924E+03  0.81244130721E+02 0.  0.
         66    2    3    3    0    0  0.10047196370E+02 -0.36169753468E+02  0.47166028858E+02  0.60314438499E+02  0.19999980849E+01 0.  0.
         13    1    3    3    0    0 -0.10047196370E+02  0.36169753468E+02  0.11664943604E+03  0.12254101074E+03  0.10566000000E+00 0. -1.
         13    1    4    4    0    0  0.56275523134E+01 -0.22618033704E+02  0.29980384472E+02  0.37974720681E+02  0.10566000000E+00 0. -1.
        -13    1    4    4    0    0  0.14492237733E+01 -0.39832310077E+01  0.46650113904E+01  0.63039570203E+01  0.10566000000E+00 0.  1.
        -14    1    4    4    0    0  0.29704202832E+01 -0.95684887563E+01  0.12520632996E+02  0.16035760798E+02  0.00000000000E+00 0.  1.
<mgrwt>
<rscale>  0 0.81244131E+02</rscale>
<asrwt>0</asrwt>
<pdfrwt beam="1">  1        1 0.26666993E-01 0.81244131E+02</pdfrwt>
<pdfrwt beam="2">  1       -2 0.14646142E-02 0.81244131E+02</pdfrwt>
<totfact> 0.15567629E+05</totfact>
</mgrwt>
</event>
<event>
 8    1  0.1372337E-020  0.8233740E+02  0.7818608E-02  0.1322546E+00
          1   -1    0    0  501    0  0.00000000000E+00  0.00000000000E+00  0.14043160836E+02  0.14043161741E+02  0.50400000000E-02 0. -1.
         -2   -1    0    0    0  501 -0.00000000000E+00 -0.00000000000E+00 -0.12068947522E+03  0.12068947525E+03  0.25500000000E-02 0.  1.
        -24    2    1    2    0    0 -0.88817841970E-15  0.35527136788E-14 -0.10664631438E+03  0.13473263699E+03  0.82337397932E+02 0.  0.
         66    2    3    3    0    0 -0.75002683618E+01  0.22644878732E+02 -0.10821033032E+03  0.11082653174E+03  0.19999979265E+01 0.  0.
         13    1    3    3    0    0  0.75002683618E+01 -0.22644878732E+02  0.15640159341E+01  0.23906105248E+02  0.10566000000E+00 0. -1.
         13    1    4    4    0    0 -0.52025950026E+01  0.13368629654E+02 -0.67078007879E+02  0.68594879974E+02  0.10566000000E+00 0. -1.
        -13    1    4    4    0    0 -0.16031934990E+01  0.57782688318E+01 -0.24880427957E+02  0.25593074834E+02  0.10566000000E+00 0.  1.
         14    1    4    4    0    0 -0.69447986020E+00  0.34979802458E+01 -0.16251894482E+02  0.16638576932E+02  0.00000000000E+00 0. -1.
<mgrwt>
<rscale>  0 0.82337398E+02</rscale>
<asrwt>0</asrwt>
<pdfrwt beam="1">  1        1 0.21604864E-02 0.82337398E+02</pdfrwt>
<pdfrwt beam="2">  1       -2 0.18567611E-01 0.82337398E+02</pdfrwt>
<totfact> 0.93781977E+04</totfact>
</mgrwt>
</event>
<event>
 8    1  0.1372337E-020  0.8529933E+02  0.7818608E-02  0.1314652E+00
          1   -1    0    0  501    0  0.00000000000E+00  0.00000000000E+00  0.35042844471E+02  0.35042844833E+02  0.50400000000E-02 0. -1.
         -2   -1    0    0    0  501 -0.00000000000E+00 -0.00000000000E+00 -0.51907713055E+02  0.51907713117E+02  0.25500000000E-02 0.  1.
        -24    2    1    2    0    0  0.00000000000E+00  0.00000000000E+00 -0.16864868584E+02  0.86950557951E+02  0.85299330218E+02 0.  0.
         66    2    3    3    0    0  0.24385442930E+02  0.15940394675E+02 -0.40156014206E+02  0.49651300080E+02  0.20000283529E+01 0.  0.
         13    1    3    3    0    0 -0.24385442930E+02 -0.15940394675E+02  0.23291145623E+02  0.37299257871E+02  0.10566000000E+00 0. -1.
         13    1    4    4    0    0  0.61613096325E+01  0.36890955787E+01 -0.95805480293E+01  0.11973688953E+02  0.10566000000E+00 0. -1.
        -13    1    4    4    0    0  0.13754943786E+02  0.91949626588E+01 -0.21828452971E+02  0.27390479003E+02  0.10566000000E+00 0.  1.
        -14    1    4    4    0    0  0.44691895112E+01  0.30563364372E+01 -0.87470132056E+01  0.10287132123E+02  0.00000000000E+00 0.  1.
<mgrwt>
<rscale>  0 0.85299330E+02</rscale>
<asrwt>0</asrwt>
<pdfrwt beam="1">  1        1 0.53912069E-02 0.85299330E+02</pdfrwt>
<pdfrwt beam="2">  1       -2 0.79858020E-02 0.85299330E+02</pdfrwt>
<totfact> 0.10340357E+05</totfact>
</mgrwt>
</event>
<event>
 8    1  0.1372337E-020  0.8078869E+02  0.7818608E-02  0.1326828E+00
         -2   -1    0    0    0  501 -0.00000000000E+00  0.00000000000E+00  0.44408806687E+01  0.44408814008E+01  0.25500000000E-02 0.  1.
          1   -1    0    0  501    0  0.00000000000E+00 -0.00000000000E+00 -0.36742778621E+03  0.36742778625E+03  0.50400000000E-02 0. -1.
        -24    2    1    2    0    0  0.88817841970E-15  0.00000000000E+00 -0.36298690555E+03  0.37186866765E+03  0.80788689691E+02 0.  0.
         66    2    3    3    0    0  0.43783482225E+01  0.38155094656E+02 -0.23885865200E+03  0.24193477802E+03  0.20000000228E+01 0.  0.
         13    1    3    3    0    0 -0.43783482225E+01 -0.38155094656E+02 -0.12412825355E+03  0.12993388963E+03  0.10566000000E+00 0. -1.
         13    1    4    4    0    0  0.47638400057E-02  0.15381914427E+00 -0.10484343493E+01  0.10649233041E+01  0.10566000000E+00 0.  1.
        -13    1    4    4    0    0  0.35919627456E-01  0.81183066888E+00 -0.43921839780E+01  0.44679753118E+01  0.10566000000E+00 0.  1.
        -14    1    4    4    0    0  0.43376647550E+01  0.37189444843E+02 -0.23341803367E+03  0.23640187941E+03  0.00000000000E+00 0.  1.
<mgrwt>
<rscale>  0 0.80788690E+02</rscale>
<asrwt>0</asrwt>
<pdfrwt beam="1">  1        1 0.56527328E-01 0.80788690E+02</pdfrwt>
<pdfrwt beam="2">  1       -2 0.68321276E-03 0.80788690E+02</pdfrwt>
<totfact> 0.18245611E+05</totfact>
</mgrwt>
</event>
<event>
 8    1  0.1372337E-020  0.8405694E+02  0.7818608E-02  0.1317917E+00
          1   -1    0    0  501    0  0.00000000000E+00  0.00000000000E+00  0.14135703295E+03  0.14135703304E+03  0.50400000000E-02 0. -1.
         -2   -1    0    0    0  501 -0.00000000000E+00 -0.00000000000E+00 -0.12495961945E+02  0.12495962205E+02  0.25500000000E-02 0.  1.
        -24    2    1    2    0    0 -0.35527136788E-14  0.00000000000E+00  0.12886107100E+03  0.15385299524E+03  0.84056936211E+02 0.  0.
         66    2    3    3    0    0 -0.17247639962E+02  0.36975499393E+02  0.82744553373E+02  0.92278544357E+02  0.19999990345E+01 0.  0.
         13    1    3    3    0    0  0.17247639962E+02 -0.36975499393E+02  0.46116517631E+02  0.61574450887E+02  0.10566000000E+00 0. -1.
         13    1    4    4    0    0 -0.10237927160E+02  0.23324121025E+02  0.53266043042E+02  0.59043308508E+02  0.10566000000E+00 0. -1.
        -13    1    4    4    0    0 -0.63456384421E+01  0.12531498008E+02  0.26920127279E+02  0.30364617342E+02  0.10566000000E+00 0.  1.
         14    1    4    4    0    0 -0.66407435958E+00  0.11198803596E+01  0.25583830515E+01  0.28706185070E+01  0.00000000000E+00 0. -1.
<mgrwt>
<rscale>  0 0.84056936E+02</rscale>
<asrwt>0</asrwt>
<pdfrwt beam="1">  1        1 0.21747237E-01 0.84056936E+02</pdfrwt>
<pdfrwt beam="2">  1       -2 0.19224556E-02 0.84056936E+02</pdfrwt>
<totfact> 0.13675773E+05</totfact>
</mgrwt>
</event>
<event>
 8    1  0.1372337E-020  0.7988752E+02  0.7818608E-02  0.1329371E+00
         -2   -1    0    0    0  501 -0.00000000000E+00  0.00000000000E+00  0.95142553078E+01  0.95142556496E+01  0.25500000000E-02 0.  1.
          1   -1    0    0  501    0  0.00000000000E+00 -0.00000000000E+00 -0.16769616022E+03  0.16769616029E+03  0.50400000000E-02 0. -1.
        -24    2    1    2    0    0  0.00000000000E+00  0.35527136788E-14 -0.15818190491E+03  0.17721041594E+03  0.79887523918E+02 0.  0.
         66    2    3    3    0    0  0.62228475944E+00 -0.27679637155E+02 -0.14292997478E+03  0.14560057431E+03  0.19999994475E+01 0.  0.
         13    1    3    3    0    0 -0.62228475944E+00  0.27679637155E+02 -0.15251930132E+02  0.31609841634E+02  0.10566000000E+00 0. -1.
         13    1    4    4    0    0  0.21699310432E+00 -0.88646669423E+01 -0.42874537540E+02  0.43782034435E+02  0.10566000000E+00 0.  1.
        -13    1    4    4    0    0  0.59195195269E+00 -0.10753201511E+02 -0.54256608433E+02  0.55315210138E+02  0.10566000000E+00 0. -1.
         14    1    4    4    0    0 -0.18666029756E+00 -0.80617687016E+01 -0.45798828802E+02  0.46503329733E+02  0.00000000000E+00 0. -1.
<mgrwt>
<rscale>  0 0.79887524E+02</rscale>
<asrwt>0</asrwt>
<pdfrwt beam="1">  1        1 0.25799407E-01 0.79887524E+02</pdfrwt>
<pdfrwt beam="2">  1       -2 0.14637317E-02 0.79887524E+02</pdfrwt>
<totfact> 0.16180842E+05</totfact>
</mgrwt>
</event>
<event>
 8    1  0.1372337E-020  0.8447925E+02  0.7818608E-02  0.1316800E+00
         -2   -1    0    0    0  501 -0.00000000000E+00  0.00000000000E+00  0.25985426325E+03  0.25985426326E+03  0.25500000000E-02 0.  1.
          1   -1    0    0  501    0  0.00000000000E+00 -0.00000000000E+00 -0.68661019793E+01  0.68661038291E+01  0.50400000000E-02 0. -1.
        -24    2    1    2    0    0  0.00000000000E+00  0.00000000000E+00  0.25298816127E+03  0.26672036709E+03  0.84479254721E+02 0.  0.
         66    2    3    3    0    0 -0.36792936412E+02 -0.19823818502E+02  0.10775947207E+03  0.11559761142E+03  0.19999990195E+01 0.  0.
         13    1    3    3    0    0  0.36792936412E+02  0.19823818502E+02  0.14522868920E+03  0.15112275567E+03  0.10566000000E+00 0. -1.
         13    1    4    4    0    0 -0.58001264799E+01 -0.27724712157E+01  0.15116145499E+02  0.16426718558E+02  0.10566000000E+00 0. -1.
        -13    1    4    4    0    0 -0.29884184221E+02 -0.16518272585E+02  0.88991732846E+02  0.95317666121E+02  0.10566000000E+00 0.  1.
         14    1    4    4    0    0 -0.11086257114E+01 -0.53307470120E+00  0.36515937224E+01  0.38532267412E+01  0.00000000000E+00 0. -1.
<mgrwt>
<rscale>  0 0.84479255E+02</rscale>
<asrwt>0</asrwt>
<pdfrwt beam="1">  1        1 0.10563234E-02 0.84479255E+02</pdfrwt>
<pdfrwt beam="2">  1       -2 0.39977585E-01 0.84479255E+02</pdfrwt>
<totfact> 0.65735125E+04</totfact>
</mgrwt>
</event>
<event>
 8    1  0.1372337E-020  0.7842529E+02  0.7818608E-02  0.1333581E+00
          1   -1    0    0  501    0  0.00000000000E+00  0.00000000000E+00  0.73852591526E+02  0.73852591698E+02  0.50400000000E-02 0. -1.
         -2   -1    0    0    0  501 -0.00000000000E+00 -0.00000000000E+00 -0.20820276266E+02  0.20820276422E+02  0.25500000000E-02 0.  1.
        -24    2    1    2    0    0  0.00000000000E+00  0.00000000000E+00  0.53032315260E+02  0.94672868120E+02  0.78425286077E+02 0.  0.
         66    2    3    3    0    0  0.13875153972E+02 -0.36634165408E+02  0.27767074112E+02  0.48058218629E+02  0.20000000434E+01 0.  0.
         13    1    3    3    0    0 -0.13875153972E+02  0.36634165408E+02  0.25265241148E+02  0.46614649491E+02  0.10566000000E+00 0. -1.
         13    1    4    4    0    0  0.99656152426E+01 -0.24196425457E+02  0.18489152152E+02  0.32041229743E+02  0.10566000000E+00 0. -1.
        -13    1    4    4    0    0  0.11202704161E+01 -0.44629849574E+01  0.34861501415E+01  0.57738762872E+01  0.10566000000E+00 0.  1.
         14    1    4    4    0    0  0.27892683130E+01 -0.79747549932E+01  0.57917718178E+01  0.10243112599E+02  0.00000000000E+00 0. -1.
<mgrwt>
<rscale>  0 0.78425286E+02</rscale>
<asrwt>0</asrwt>
<pdfrwt beam="1">  1        1 0.11361937E-01 0.78425286E+02</pdfrwt>
<pdfrwt beam="2">  1       -2 0.32031195E-02 0.78425286E+02</pdfrwt>
<totfact> 0.14768799E+05</totfact>
</mgrwt>
</event>
<event>
 8    1  0.1372337E-020  0.7754381E+02  0.7818608E-02  0.1336170E+00
          1   -1    0    0  501    0  0.00000000000E+00  0.00000000000E+00  0.11501183053E+03  0.11501183064E+03  0.50400000000E-02 0. -1.
         -2   -1    0    0    0  501 -0.00000000000E+00 -0.00000000000E+00 -0.13070485965E+02  0.13070486213E+02  0.25500000000E-02 0.  1.
        -24    2    1    2    0    0 -0.22204460493E-15  0.71054273576E-14  0.10194134456E+03  0.12808231685E+03  0.77543807998E+02 0.  0.
         66    2    3    3    0    0  0.18998845445E+01 -0.37766539130E+02  0.37053909237E+02  0.52980309779E+02  0.19999988608E+01 0.  0.
         13    1    3    3    0    0 -0.18998845445E+01  0.37766539130E+02  0.64887435326E+02  0.75102007073E+02  0.10566000000E+00 0. -1.
         13    1    4    4    0    0 -0.15800134842E+00 -0.42635950512E+01  0.42571654767E+01  0.60280866880E+01  0.10566000000E+00 0. -1.
        -13    1    4    4    0    0  0.19846118680E+01 -0.23196193978E+02  0.22182273301E+02  0.32156904580E+02  0.10566000000E+00 0.  1.
        -14    1    4    4    0    0  0.73274025004E-01 -0.10306750100E+02  0.10614470460E+02  0.14795318511E+02  0.00000000000E+00 0.  1.
<mgrwt>
<rscale>  0 0.77543808E+02</rscale>
<asrwt>0</asrwt>
<pdfrwt beam="1">  1        1 0.17694128E-01 0.77543808E+02</pdfrwt>
<pdfrwt beam="2">  1       -2 0.20108440E-02 0.77543808E+02</pdfrwt>
<totfact> 0.16369746E+05</totfact>
</mgrwt>
</event>
<event>
 8    1  0.1372337E-020  0.7943058E+02  0.7818608E-02  0.1330675E+00
          1   -1    0    0  501    0  0.00000000000E+00  0.00000000000E+00  0.64770845878E+01  0.64770865487E+01  0.50400000000E-02 0. -1.
         -2   -1    0    0    0  501 -0.00000000000E+00 -0.00000000000E+00 -0.24352067624E+03  0.24352067625E+03  0.25500000000E-02 0.  1.
        -24    2    1    2    0    0 -0.17763568394E-14  0.00000000000E+00 -0.23704359165E+03  0.24999776280E+03  0.79430580147E+02 0.  0.
         66    2    3    3    0    0  0.15873889625E+02 -0.36366344470E+02 -0.11576770039E+03  0.12239547306E+03  0.19999974988E+01 0.  0.
         13    1    3    3    0    0 -0.15873889625E+02  0.36366344470E+02 -0.12127589126E+03  0.12760228974E+03  0.10566000000E+00 0. -1.
         13    1    4    4    0    0  0.45423837608E+00 -0.74473326609E+00 -0.20839753141E+01  0.22616536617E+01  0.10566000000E+00 0.  1.
        -13    1    4    4    0    0  0.13009123938E+02 -0.30822793515E+02 -0.98823301726E+02  0.10433282338E+03  0.10566000000E+00 0.  1.
         14    1    4    4    0    0  0.24105273112E+01 -0.47988176890E+01 -0.14860423351E+02  0.15800996023E+02  0.00000000000E+00 0. -1.
<mgrwt>
<rscale>  0 0.79430580E+02</rscale>
<asrwt>0</asrwt>
<pdfrwt beam="1">  1        1 0.99647489E-03 0.79430580E+02</pdfrwt>
<pdfrwt beam="2">  1       -2 0.37464712E-01 0.79430580E+02</pdfrwt>
<totfact> 0.79530637E+04</totfact>
</mgrwt>
</event>
<event>
 8    1  0.1372337E-020  0.8047416E+02  0.7818608E-02  0.1327711E+00
          1   -1    0    0  501    0  0.00000000000E+00  0.00000000000E+00  0.14150273132E+03  0.14150273141E+03  0.50400000000E-02 0. -1.
         -2   -1    0    0    0  501 -0.00000000000E+00 -0.00000000000E+00 -0.11441635846E+02  0.11441636130E+02  0.25500000000E-02 0.  1.
        -24    2    1    2    0    0 -0.71054273576E-14  0.00000000000E+00  0.13006109548E+03  0.15294436754E+03  0.80474163595E+02 0.  0.
         66    2    3    3    0    0  0.39490011149E+02 -0.64208590810E+01  0.72750610874E+02  0.83050224573E+02  0.20000018165E+01 0.  0.
         13    1    3    3    0    0 -0.39490011149E+02  0.64208590810E+01  0.57310484605E+02  0.69894142971E+02  0.10566000000E+00 0. -1.
         13    1    4    4    0    0  0.31419352062E+02 -0.51044258814E+01  0.56776929788E+02  0.65091180414E+02  0.10566000000E+00 0. -1.
        -13    1    4    4    0    0  0.52728561048E+01 -0.11541577028E+01  0.10169152539E+02  0.11513379995E+02  0.10566000000E+00 0.  1.
         14    1    4    4    0    0  0.27978029821E+01 -0.16227549679E+00  0.58045285468E+01  0.64456641639E+01  0.00000000000E+00 0. -1.
<mgrwt>
<rscale>  0 0.80474164E+02</rscale>
<asrwt>0</asrwt>
<pdfrwt beam="1">  1        1 0.21769652E-01 0.80474164E+02</pdfrwt>
<pdfrwt beam="2">  1       -2 0.17602516E-02 0.80474164E+02</pdfrwt>
<totfact> 0.15375314E+05</totfact>
</mgrwt>
</event>
<event>
 8    1  0.1372337E-020  0.7883581E+02  0.7818608E-02  0.1332388E+00
          1   -1    0    0  501    0  0.00000000000E+00  0.00000000000E+00  0.45178684602E+03  0.45178684605E+03  0.50400000000E-02 0. -1.
         -2   -1    0    0    0  501 -0.00000000000E+00 -0.00000000000E+00 -0.34391686148E+01  0.34391695602E+01  0.25500000000E-02 0.  1.
        -24    2    1    2    0    0  0.00000000000E+00 -0.71054273576E-14  0.44834767741E+03  0.45522601561E+03  0.78835813258E+02 0.  0.
         66    2    3    3    0    0  0.13001719781E+02 -0.37160327384E+02  0.23213289664E+03  0.23545618776E+03  0.20000004674E+01 0.  0.
         13    1    3    3    0    0 -0.13001719781E+02  0.37160327384E+02  0.21621478077E+03  0.21976982785E+03  0.10566000000E+00 0. -1.
         13    1    4    4    0    0  0.83337342368E+00 -0.17568167866E+01  0.11525586435E+02  0.11688935931E+02  0.10566000000E+00 0. -1.
        -13    1    4    4    0    0  0.72616782545E+01 -0.23045692709E+02  0.13941384830E+03  0.14149229020E+03  0.10566000000E+00 0.  1.
        -14    1    4    4    0    0  0.49066681031E+01 -0.12357817889E+02  0.81193461908E+02  0.82274961631E+02  0.00000000000E+00 0.  1.
<mgrwt>
<rscale>  0 0.78835813E+02</rscale>
<asrwt>0</asrwt>
<pdfrwt beam="1">  1        1 0.69505663E-01 0.78835813E+02</pdfrwt>
<pdfrwt beam="2">  1       -2 0.52910298E-03 0.78835813E+02</pdfrwt>
<totfact> 0.20109028E+05</totfact>
</mgrwt>
</event>
<event>
 8    1  0.1372337E-020  0.8046859E+02  0.7818608E-02  0.1327727E+00
          1   -1    0    0  501    0  0.00000000000E+00  0.00000000000E+00  0.71196765770E+01  0.71196783609E+01  0.50400000000E-02 0. -1.
         -2   -1    0    0    0  501 -0.00000000000E+00 -0.00000000000E+00 -0.22736964915E+03  0.22736964917E+03  0.25500000000E-02 0.  1.
        -24    2    1    2    0    0  0.00000000000E+00  0.00000000000E+00 -0.22024997258E+03  0.23448932753E+03  0.80468592040E+02 0.  0.
         66    2    3    3    0    0 -0.24659960430E+02  0.27946210140E+02 -0.15416399098E+03  0.15861790710E+03  0.20000074324E+01 0.  0.
         13    1    3    3    0    0  0.24659960430E+02 -0.27946210140E+02 -0.66085981600E+02  0.75871420427E+02  0.10566000000E+00 0. -1.
         13    1    4    4    0    0 -0.10961925143E+02  0.12212245075E+02 -0.66017687279E+02  0.68026825079E+02  0.10566000000E+00 0. -1.
        -13    1    4    4    0    0 -0.13209005078E+02  0.14934500690E+02 -0.83091530747E+02  0.85450165429E+02  0.10566000000E+00 0.  1.
         14    1    4    4    0    0 -0.48903020900E+00  0.79946437566E+00 -0.50547729506E+01  0.51409165929E+01  0.00000000000E+00 0. -1.
<mgrwt>
<rscale>  0 0.80468592E+02</rscale>
<asrwt>0</asrwt>
<pdfrwt beam="1">  1        1 0.10953352E-02 0.80468592E+02</pdfrwt>
<pdfrwt beam="2">  1       -2 0.34979941E-01 0.80468592E+02</pdfrwt>
<totfact> 0.79355864E+04</totfact>
</mgrwt>
</event>
<event>
 8    1  0.1372337E-020  0.8036072E+02  0.7818608E-02  0.1328031E+00
         -2   -1    0    0    0  501 -0.00000000000E+00  0.00000000000E+00  0.38123889547E+02  0.38123889632E+02  0.25500000000E-02 0.  1.
          1   -1    0    0  501    0  0.00000000000E+00 -0.00000000000E+00 -0.42347762615E+02  0.42347762915E+02  0.50400000000E-02 0. -1.
        -24    2    1    2    0    0  0.00000000000E+00  0.00000000000E+00 -0.42238730680E+01  0.80471652547E+02  0.80360722744E+02 0.  0.
         66    2    3    3    0    0 -0.17921604413E+02  0.25367494169E+02  0.23373076615E+02  0.38922928608E+02  0.19999989507E+01 0.  0.
         13    1    3    3    0    0  0.17921604413E+02 -0.25367494169E+02 -0.27596949683E+02  0.41548723939E+02  0.10566000000E+00 0. -1.
         13    1    4    4    0    0 -0.54971222306E+01  0.75647777901E+01  0.60932222105E+01  0.11161663710E+02  0.10566000000E+00 0. -1.
        -13    1    4    4    0    0 -0.67560447955E+01  0.10378177374E+02  0.10068918379E+02  0.15960732698E+02  0.10566000000E+00 0.  1.
        -14    1    4    4    0    0 -0.56684373867E+01  0.74245390051E+01  0.72109360256E+01  0.11800532200E+02  0.00000000000E+00 0.  1.
<mgrwt>
<rscale>  0 0.80360723E+02</rscale>
<asrwt>0</asrwt>
<pdfrwt beam="1">  1        1 0.65150405E-02 0.80360723E+02</pdfrwt>
<pdfrwt beam="2">  1       -2 0.58652138E-02 0.80360723E+02</pdfrwt>
<totfact> 0.12654052E+05</totfact>
</mgrwt>
</event>
<event>
 8    1  0.1372337E-020  0.7757223E+02  0.7818608E-02  0.1336086E+00
          1   -1    0    0  501    0  0.00000000000E+00  0.00000000000E+00  0.41708532557E+02  0.41708532861E+02  0.50400000000E-02 0. -1.
         -2   -1    0    0    0  501 -0.00000000000E+00 -0.00000000000E+00 -0.36068464006E+02  0.36068464096E+02  0.25500000000E-02 0.  1.
        -24    2    1    2    0    0  0.00000000000E+00  0.00000000000E+00  0.56400685508E+01  0.77776996958E+02  0.77572230099E+02 0.  0.
         66    2    3    3    0    0 -0.10802820280E+02 -0.14051016017E+02 -0.31739739932E+02  0.36408008291E+02  0.19999999114E+01 0.  0.
         13    1    3    3    0    0  0.10802820280E+02  0.14051016017E+02  0.37379808482E+02  0.41368988667E+02  0.10566000000E+00 0. -1.
         13    1    4    4    0    0 -0.67462703458E+01 -0.91025994598E+01 -0.19185377636E+02  0.22281367991E+02  0.10566000000E+00 0. -1.
        -13    1    4    4    0    0 -0.39522379205E+01 -0.49536798511E+01 -0.12483915023E+02  0.14000658091E+02  0.10566000000E+00 0.  1.
         14    1    4    4    0    0 -0.10431201395E+00  0.52632940408E-02 -0.70447273098E-01  0.12598220829E+00  0.00000000000E+00 0. -1.
<mgrwt>
<rscale>  0 0.77572230E+02</rscale>
<asrwt>0</asrwt>
<pdfrwt beam="1">  1        1 0.64166974E-02 0.77572230E+02</pdfrwt>
<pdfrwt beam="2">  1       -2 0.55489945E-02 0.77572230E+02</pdfrwt>
<totfact> 0.13936607E+05</totfact>
</mgrwt>
</event>
<event>
 8    1  0.1372337E-020  0.8356215E+02  0.7818608E-02  0.1319236E+00
         -2   -1    0    0    0  501 -0.00000000000E+00  0.00000000000E+00  0.21747906891E+02  0.21747907041E+02  0.25500000000E-02 0.  1.
          1   -1    0    0  501    0  0.00000000000E+00 -0.00000000000E+00 -0.80267866173E+02  0.80267866331E+02  0.50400000000E-02 0. -1.
        -24    2    1    2    0    0  0.00000000000E+00  0.00000000000E+00 -0.58519959282E+02  0.10201577337E+03  0.83562146827E+02 0.  0.
         66    2    3    3    0    0 -0.32657898621E+02  0.82674465099E+01  0.84519708032E+00  0.33758012142E+02  0.20000028934E+01 0.  0.
         13    1    3    3    0    0  0.32657898621E+02 -0.82674465099E+01 -0.59365156362E+02  0.68257761229E+02  0.10566000000E+00 0. -1.
         13    1    4    4    0    0 -0.13809070928E+01  0.64971201973E+00  0.14149427091E+00  0.15362990503E+01  0.10566000000E+00 0. -1.
        -13    1    4    4    0    0 -0.31098785003E+02  0.74767948881E+01  0.67093456343E+00  0.31992158535E+02  0.10566000000E+00 0.  1.
        -14    1    4    4    0    0 -0.17820652458E+00  0.14093960203E+00  0.32768245980E-01  0.22955455728E+00  0.00000000000E+00 0.  1.
<mgrwt>
<rscale>  0 0.83562147E+02</rscale>
<asrwt>0</asrwt>
<pdfrwt beam="1">  1        1 0.12348902E-01 0.83562147E+02</pdfrwt>
<pdfrwt beam="2">  1       -2 0.33458319E-02 0.83562147E+02</pdfrwt>
<totfact> 0.12586249E+05</totfact>
</mgrwt>
</event>
<event>
 8    1  0.1372337E-020  0.7929245E+02  0.7818608E-02  0.1331071E+00
          1   -1    0    0  501    0  0.00000000000E+00  0.00000000000E+00  0.23430413366E+03  0.23430413372E+03  0.50400000000E-02 0. -1.
         -2   -1    0    0    0  501 -0.00000000000E+00 -0.00000000000E+00 -0.67084730905E+01  0.67084735751E+01  0.25500000000E-02 0.  1.
        -24    2    1    2    0    0  0.00000000000E+00  0.00000000000E+00  0.22759566057E+03  0.24101260729E+03  0.79292447070E+02 0.  0.
         66    2    3    3    0    0 -0.11536298016E+02 -0.33936422368E+02  0.62552071449E+02  0.72121623489E+02  0.19999992822E+01 0.  0.
         13    1    3    3    0    0  0.11536298016E+02  0.33936422368E+02  0.16504358912E+03  0.16889098380E+03  0.10566000000E+00 0. -1.
         13    1    4    4    0    0 -0.34025021908E+01 -0.11474045955E+02  0.21746922187E+02  0.24822782688E+02  0.10566000000E+00 0. -1.
        -13    1    4    4    0    0 -0.49307475046E+01 -0.11895345563E+02  0.21955985303E+02  0.25453643584E+02  0.10566000000E+00 0.  1.
         14    1    4    4    0    0 -0.32030483209E+01 -0.10567030851E+02  0.18849163958E+02  0.21845197217E+02  0.00000000000E+00 0. -1.
<mgrwt>
<rscale>  0 0.79292447E+02</rscale>
<asrwt>0</asrwt>
<pdfrwt beam="1">  1        1 0.36046786E-01 0.79292447E+02</pdfrwt>
<pdfrwt beam="2">  1       -2 0.10320729E-02 0.79292447E+02</pdfrwt>
<totfact> 0.17605442E+05</totfact>
</mgrwt>
</event>
<event>
 8    1  0.1372337E-020  0.8160786E+02  0.7818608E-02  0.1324550E+00
         -2   -1    0    0    0  501 -0.00000000000E+00  0.00000000000E+00  0.89327238038E+01  0.89327241678E+01  0.25500000000E-02 0.  1.
          1   -1    0    0  501    0  0.00000000000E+00 -0.00000000000E+00 -0.18638891775E+03  0.18638891782E+03  0.50400000000E-02 0. -1.
        -24    2    1    2    0    0  0.35527136788E-14  0.00000000000E+00 -0.17745619395E+03  0.19532164199E+03  0.81607861498E+02 0.  0.
         66    2    3    3    0    0 -0.25586989086E+02  0.14904043035E+02 -0.21674536183E+02  0.36750646628E+02  0.19999998914E+01 0.  0.
         13    1    3    3    0    0  0.25586989086E+02 -0.14904043035E+02 -0.15578165777E+03  0.15857099536E+03  0.10566000000E+00 0. -1.
         13    1    4    4    0    0 -0.92056294558E+00  0.25797663303E+00 -0.46382522238E+00  0.10678417263E+01  0.10566000000E+00 0. -1.
        -13    1    4    4    0    0 -0.24722022949E+01  0.15927738144E+01 -0.20111991270E+01  0.35643791289E+01  0.10566000000E+00 0.  1.
        -14    1    4    4    0    0 -0.22194223846E+02  0.13053292587E+02 -0.19199511834E+02  0.32118425773E+02  0.00000000000E+00 0.  1.
<mgrwt>
<rscale>  0 0.81607861E+02</rscale>
<asrwt>0</asrwt>
<pdfrwt beam="1">  1        1 0.28675215E-01 0.81607861E+02</pdfrwt>
<pdfrwt beam="2">  1       -2 0.13742654E-02 0.81607861E+02</pdfrwt>
<totfact> 0.15599691E+05</totfact>
</mgrwt>
</event>
<event>
 8    1  0.1372337E-020  0.8011146E+02  0.7818608E-02  0.1328735E+00
         -2   -1    0    0    0  501 -0.00000000000E+00  0.00000000000E+00  0.11392033337E+02  0.11392033623E+02  0.25500000000E-02 0.  1.
          1   -1    0    0  501    0  0.00000000000E+00 -0.00000000000E+00 -0.14084064974E+03  0.14084064983E+03  0.50400000000E-02 0. -1.
        -24    2    1    2    0    0 -0.35527136788E-14  0.00000000000E+00 -0.12944861640E+03  0.15223268345E+03  0.80111457500E+02 0.  0.
         66    2    3    3    0    0 -0.24380045408E+02 -0.42183773463E+01 -0.49659103483E+01  0.25314849433E+02  0.20000036752E+01 0.  0.
         13    1    3    3    0    0  0.24380045408E+02  0.42183773463E+01 -0.12448270606E+03  0.12691783402E+03  0.10566000000E+00 0. -1.
         13    1    4    4    0    0 -0.61257514597E+01 -0.81089871810E+00 -0.51984442197E+00  0.62019182464E+01  0.10566000000E+00 0. -1.
        -13    1    4    4    0    0 -0.14976837670E+02 -0.26275210724E+01 -0.33548562762E+01  0.15571633128E+02  0.10566000000E+00 0.  1.
        -14    1    4    4    0    0 -0.32774562782E+01 -0.77995755574E+00 -0.10912096502E+01  0.35412980593E+01  0.00000000000E+00 0.  1.
<mgrwt>
<rscale>  0 0.80111457E+02</rscale>
<asrwt>0</asrwt>
<pdfrwt beam="1">  1        1 0.21667791E-01 0.80111457E+02</pdfrwt>
<pdfrwt beam="2">  1       -2 0.17526206E-02 0.80111457E+02</pdfrwt>
<totfact> 0.15549078E+05</totfact>
</mgrwt>
</event>
<event>
 8    1  0.1372337E-020  0.7857399E+02  0.7818608E-02  0.1333148E+00
         -2   -1    0    0    0  501 -0.00000000000E+00  0.00000000000E+00  0.20134048451E+03  0.20134048453E+03  0.25500000000E-02 0.  1.
          1   -1    0    0  501    0  0.00000000000E+00 -0.00000000000E+00 -0.76659590168E+01  0.76659606736E+01  0.50400000000E-02 0. -1.
        -24    2    1    2    0    0  0.00000000000E+00  0.00000000000E+00  0.19367452549E+03  0.20900644520E+03  0.78573992580E+02 0.  0.
         66    2    3    3    0    0 -0.27160050893E+02 -0.26494906054E+02  0.12374005344E+03  0.12944206902E+03  0.19999989478E+01 0.  0.
         13    1    3    3    0    0  0.27160050893E+02  0.26494906054E+02  0.69934472054E+02  0.79564376179E+02  0.10566000000E+00 0. -1.
         13    1    4    4    0    0 -0.12123666326E+02 -0.10490494345E+02  0.51988313160E+02  0.54404316245E+02  0.10566000000E+00 0. -1.
        -13    1    4    4    0    0 -0.12076734614E+02 -0.12939114842E+02  0.58214591232E+02  0.60845854486E+02  0.10566000000E+00 0.  1.
         14    1    4    4    0    0 -0.29596499530E+01 -0.30652968668E+01  0.13537149048E+02  0.14191898290E+02  0.00000000000E+00 0. -1.
<mgrwt>
<rscale>  0 0.78573993E+02</rscale>
<asrwt>0</asrwt>
<pdfrwt beam="1">  1        1 0.11793786E-02 0.78573993E+02</pdfrwt>
<pdfrwt beam="2">  1       -2 0.30975455E-01 0.78573993E+02</pdfrwt>
<totfact> 0.88872331E+04</totfact>
</mgrwt>
</event>
<event>
 8    1  0.1372337E-020  0.7319945E+02  0.7818608E-02  0.1349539E+00
          1   -1    0    0  501    0  0.00000000000E+00  0.00000000000E+00  0.54270433389E+02  0.54270433623E+02  0.50400000000E-02 0. -1.
         -2   -1    0    0    0  501 -0.00000000000E+00 -0.00000000000E+00 -0.24682685095E+02  0.24682685227E+02  0.25500000000E-02 0.  1.
        -24    2    1    2    0    0  0.00000000000E+00 -0.71054273576E-14  0.29587748294E+02  0.78953118850E+02  0.73199454417E+02 0.  0.
         66    2    3    3    0    0 -0.10708318450E+02 -0.32222453271E+02  0.15094520596E+00  0.34014370325E+02  0.20000063389E+01 0.  0.
         13    1    3    3    0    0  0.10708318450E+02  0.32222453271E+02  0.29436803088E+02  0.44938748524E+02  0.10566000000E+00 0. -1.
         13    1    4    4    0    0 -0.13230804056E+01 -0.51483070502E+01 -0.54568252407E+00  0.53445804976E+01  0.10566000000E+00 0. -1.
        -13    1    4    4    0    0 -0.66112878217E+01 -0.19708510969E+02  0.33475938660E+00  0.20790809488E+02  0.10566000000E+00 0.  1.
         14    1    4    4    0    0 -0.27739502231E+01 -0.73656352517E+01  0.36186834343E+00  0.78789803400E+01  0.00000000000E+00 0. -1.
<mgrwt>
<rscale>  0 0.73199454E+02</rscale>
<asrwt>0</asrwt>
<pdfrwt beam="1">  1        1 0.83492974E-02 0.73199454E+02</pdfrwt>
<pdfrwt beam="2">  1       -2 0.37973362E-02 0.73199454E+02</pdfrwt>
<totfact> 0.17012185E+05</totfact>
</mgrwt>
</event>
<event>
 8    1  0.1372337E-020  0.7789530E+02  0.7818608E-02  0.1335133E+00
         -2   -1    0    0    0  501 -0.00000000000E+00  0.00000000000E+00  0.77008640324E+02  0.77008640366E+02  0.25500000000E-02 0.  1.
          1   -1    0    0  501    0  0.00000000000E+00 -0.00000000000E+00 -0.19698043118E+02  0.19698043763E+02  0.50400000000E-02 0. -1.
        -24    2    1    2    0    0  0.35527136788E-14  0.35527136788E-14  0.57310597206E+02  0.96706684129E+02  0.77895302831E+02 0.  0.
         66    2    3    3    0    0 -0.31891256628E+02 -0.18726003520E+02  0.43736665116E+02  0.57311528925E+02  0.20000037930E+01 0.  0.
         13    1    3    3    0    0  0.31891256628E+02  0.18726003520E+02  0.13573932090E+02  0.39395155204E+02  0.10566000000E+00 0. -1.
         13    1    4    4    0    0 -0.15341265309E+02 -0.81403112182E+01  0.20199441542E+02  0.26639213401E+02  0.10566000000E+00 0. -1.
        -13    1    4    4    0    0 -0.82602131004E+01 -0.47501785405E+01  0.11398584642E+02  0.14857126657E+02  0.10566000000E+00 0.  1.
         14    1    4    4    0    0 -0.82897782182E+01 -0.58355137607E+01  0.12138638932E+02  0.15815188867E+02  0.00000000000E+00 0. -1.
<mgrwt>
<rscale>  0 0.77895303E+02</rscale>
<asrwt>0</asrwt>
<pdfrwt beam="1">  1        1 0.30304683E-02 0.77895303E+02</pdfrwt>
<pdfrwt beam="2">  1       -2 0.11847483E-01 0.77895303E+02</pdfrwt>
<totfact> 0.12058510E+05</totfact>
</mgrwt>
</event>
<event>
 8    1  0.1372337E-020  0.7940943E+02  0.7818608E-02  0.1330736E+00
          1   -1    0    0  501    0  0.00000000000E+00  0.00000000000E+00  0.61168778176E+02  0.61168778384E+02  0.50400000000E-02 0. -1.
         -2   -1    0    0    0  501 -0.00000000000E+00 -0.00000000000E+00 -0.25772368201E+02  0.25772368327E+02  0.25500000000E-02 0.  1.
        -24    2    1    2    0    0  0.00000000000E+00  0.35527136788E-14  0.35396409975E+02  0.86941146711E+02  0.79409427352E+02 0.  0.
         66    2    3    3    0    0  0.79759623242E+01 -0.23691193718E+02 -0.16028414867E+02  0.29762370851E+02  0.20000001801E+01 0.  0.
         13    1    3    3    0    0 -0.79759623242E+01  0.23691193718E+02  0.51424824842E+02  0.57178775860E+02  0.10566000000E+00 0. -1.
         13    1    4    4    0    0  0.13271025625E+01 -0.43439855908E+01 -0.32282708612E+01  0.55735364728E+01  0.10566000000E+00 0.  1.
        -13    1    4    4    0    0 -0.72894384713E-02 -0.48618466002E+00 -0.51514810734E+00  0.71621942703E+00  0.10566000000E+00 0. -1.
        -14    1    4    4    0    0  0.66561492002E+01 -0.18861023468E+02 -0.12284995899E+02  0.23472614951E+02  0.00000000000E+00 0.  1.
<mgrwt>
<rscale>  0 0.79409427E+02</rscale>
<asrwt>0</asrwt>
<pdfrwt beam="1">  1        1 0.94105811E-02 0.79409427E+02</pdfrwt>
<pdfrwt beam="2">  1       -2 0.39649798E-02 0.79409427E+02</pdfrwt>
<totfact> 0.13859203E+05</totfact>
</mgrwt>
</event>
<event>
 8    1  0.1372337E-020  0.7949588E+02  0.7818608E-02  0.1330488E+00
          1   -1    0    0  501    0  0.00000000000E+00  0.00000000000E+00  0.20425050064E+03  0.20425050071E+03  0.50400000000E-02 0. -1.
         -2   -1    0    0    0  501 -0.00000000000E+00 -0.00000000000E+00 -0.77351037338E+01  0.77351041541E+01  0.25500000000E-02 0.  1.
        -24    2    1    2    0    0  0.00000000000E+00  0.35527136788E-14  0.19651539691E+03  0.21198560486E+03  0.79495883196E+02 0.  0.
         66    2    3    3    0    0 -0.17512369212E+02  0.31259238001E+02  0.52591134867E+02  0.63668284885E+02  0.19999994704E+01 0.  0.
         13    1    3    3    0    0  0.17512369212E+02 -0.31259238001E+02  0.14392426204E+03  0.14831731997E+03  0.10566000000E+00 0. -1.
         13    1    4    4    0    0 -0.13312573252E+01  0.33840384606E+01  0.56621206006E+01  0.67301364102E+01  0.10566000000E+00 0. -1.
        -13    1    4    4    0    0 -0.63182524249E+01  0.10530633307E+02  0.18548714533E+02  0.22245910330E+02  0.10566000000E+00 0.  1.
        -14    1    4    4    0    0 -0.98628594615E+01  0.17344566233E+02  0.28380299734E+02  0.34692238146E+02  0.00000000000E+00 0.  1.
<mgrwt>
<rscale>  0 0.79495883E+02</rscale>
<asrwt>0</asrwt>
<pdfrwt beam="1">  1        1 0.31423156E-01 0.79495883E+02</pdfrwt>
<pdfrwt beam="2">  1       -2 0.11900159E-02 0.79495883E+02</pdfrwt>
<totfact> 0.17025316E+05</totfact>
</mgrwt>
</event>
<event>
 8    1  0.1372337E-020  0.8260149E+02  0.7818608E-02  0.1321827E+00
          1   -1    0    0  501    0  0.00000000000E+00  0.00000000000E+00  0.65897062355E+02  0.65897062548E+02  0.50400000000E-02 0. -1.
         -2   -1    0    0    0  501 -0.00000000000E+00 -0.00000000000E+00 -0.25885091274E+02  0.25885091400E+02  0.25500000000E-02 0.  1.
        -24    2    1    2    0    0  0.00000000000E+00  0.00000000000E+00  0.40011971081E+02  0.91782153948E+02  0.82601488809E+02 0.  0.
         66    2    3    3    0    0  0.89004307551E+01 -0.12629109545E+02 -0.22512211182E+02  0.27377211534E+02  0.19999958935E+01 0.  0.
         13    1    3    3    0    0 -0.89004307551E+01  0.12629109545E+02  0.62524182263E+02  0.64404942413E+02  0.10566000000E+00 0. -1.
         13    1    4    4    0    0  0.13865542307E+01 -0.22913050001E+01 -0.29868632820E+01  0.40131194275E+01  0.10566000000E+00 0. -1.
        -13    1    4    4    0    0  0.13892377147E+01 -0.12761543325E+01 -0.26593111580E+01  0.32621543769E+01  0.10566000000E+00 0. -1.
        -14    1    4    4    0    0  0.61246388097E+01 -0.90616502126E+01 -0.16866036742E+02  0.20101937730E+02  0.00000000000E+00 0.  1.
<mgrwt>
<rscale>  0 0.82601489E+02</rscale>
<asrwt>0</asrwt>
<pdfrwt beam="1">  1        1 0.10138009E-01 0.82601489E+02</pdfrwt>
<pdfrwt beam="2">  1       -2 0.39823219E-02 0.82601489E+02</pdfrwt>
<totfact> 0.12580950E+05</totfact>
</mgrwt>
</event>
<event>
 8    1  0.1372337E-020  0.7922412E+02  0.7818608E-02  0.1331268E+00
         -2   -1    0    0    0  501 -0.00000000000E+00  0.00000000000E+00  0.11343364385E+02  0.11343364672E+02  0.25500000000E-02 0.  1.
          1   -1    0    0  501    0  0.00000000000E+00 -0.00000000000E+00 -0.13832889653E+03  0.13832889663E+03  0.50400000000E-02 0. -1.
        -24    2    1    2    0    0  0.00000000000E+00  0.00000000000E+00 -0.12698553215E+03  0.14967226130E+03  0.79224115185E+02 0.  0.
         66    2    3    3    0    0 -0.24150697752E+02  0.22272017914E+02 -0.21806824918E+02  0.39482104738E+02  0.19999994256E+01 0.  0.
         13    1    3    3    0    0  0.24150697752E+02 -0.22272017914E+02 -0.10517870723E+03  0.11019015656E+03  0.10566000000E+00 0. -1.
         13    1    4    4    0    0 -0.70706862611E+01  0.69643013292E+01 -0.75185194365E+01  0.12451321045E+02  0.10566000000E+00 0. -1.
        -13    1    4    4    0    0 -0.13426178543E+02  0.11999350928E+02 -0.11534138996E+02  0.21384438720E+02  0.10566000000E+00 0.  1.
        -14    1    4    4    0    0 -0.36538329480E+01  0.33083656568E+01 -0.27541664857E+01  0.56463449737E+01  0.00000000000E+00 0.  1.
<mgrwt>
<rscale>  0 0.79224115E+02</rscale>
<asrwt>0</asrwt>
<pdfrwt beam="1">  1        1 0.21281368E-01 0.79224115E+02</pdfrwt>
<pdfrwt beam="2">  1       -2 0.17451331E-02 0.79224115E+02</pdfrwt>
<totfact> 0.15967180E+05</totfact>
</mgrwt>
</event>
<event>
 8    1  0.1372337E-020  0.7870759E+02  0.7818608E-02  0.1332760E+00
         -2   -1    0    0    0  501 -0.00000000000E+00  0.00000000000E+00  0.80866930375E+03  0.80866930376E+03  0.25500000000E-02 0.  1.
          1   -1    0    0  501    0  0.00000000000E+00 -0.00000000000E+00 -0.19151442770E+01  0.19151509088E+01  0.50400000000E-02 0. -1.
        -24    2    1    2    0    0  0.35527136788E-14  0.44408920985E-15  0.80675415948E+03  0.81058445466E+03  0.78707587399E+02 0.  0.
         66    2    3    3    0    0  0.22464483510E+02  0.36853575160E+01  0.73391497512E+03  0.73427067596E+03  0.19999957402E+01 0.  0.
         13    1    3    3    0    0 -0.22464483510E+02 -0.36853575160E+01  0.72839184351E+02  0.76313778706E+02  0.10566000000E+00 0. -1.
         13    1    4    4    0    0  0.51137767539E+01  0.14203825606E+01  0.16751764846E+03  0.16760173600E+03  0.10566000000E+00 0. -1.
        -13    1    4    4    0    0  0.33134615255E+01  0.77582184658E+00  0.12179985192E+03  0.12184742927E+03  0.10566000000E+00 0.  1.
        -14    1    4    4    0    0  0.14037245230E+02  0.14891531088E+01  0.44459747474E+03  0.44482151069E+03  0.00000000000E+00 0.  1.
<mgrwt>
<rscale>  0 0.78707587E+02</rscale>
<asrwt>0</asrwt>
<pdfrwt beam="1">  1        1 0.29463747E-03 0.78707587E+02</pdfrwt>
<pdfrwt beam="2">  1       -2 0.12441093E+00 0.78707587E+02</pdfrwt>
<totfact> 0.34273213E+04</totfact>
</mgrwt>
</event>
<event>
 8    1  0.1372337E-020  0.7958971E+02  0.7818608E-02  0.1330220E+00
          1   -1    0    0  501    0  0.00000000000E+00  0.00000000000E+00  0.22129721087E+02  0.22129721661E+02  0.50400000000E-02 0. -1.
         -2   -1    0    0    0  501 -0.00000000000E+00 -0.00000000000E+00 -0.71561245700E+02  0.71561245745E+02  0.25500000000E-02 0.  1.
        -24    2    1    2    0    0  0.00000000000E+00  0.35527136788E-14 -0.49431524612E+02  0.93690967407E+02  0.79589708808E+02 0.  0.
         66    2    3    3    0    0  0.17393191093E+02  0.21825295246E+02 -0.58084207625E+02  0.64472023272E+02  0.20000001001E+01 0.  0.
         13    1    3    3    0    0 -0.17393191093E+02 -0.21825295246E+02  0.86526830127E+01  0.29218944134E+02  0.10566000000E+00 0. -1.
         13    1    4    4    0    0  0.10956987213E+01  0.22563242905E+01 -0.54252227695E+01  0.59779395385E+01  0.10566000000E+00 0. -1.
        -13    1    4    4    0    0  0.10071153566E+02  0.12083329349E+02 -0.32376189217E+02  0.35995329899E+02  0.10566000000E+00 0.  1.
        -14    1    4    4    0    0  0.62263388050E+01  0.74856416069E+01 -0.20282795638E+02  0.22498753834E+02  0.00000000000E+00 0.  1.
<mgrwt>
<rscale>  0 0.79589709E+02</rscale>
<asrwt>0</asrwt>
<pdfrwt beam="1">  1        1 0.34045726E-02 0.79589709E+02</pdfrwt>
<pdfrwt beam="2">  1       -2 0.11009422E-01 0.79589709E+02</pdfrwt>
<totfact> 0.11590503E+05</totfact>
</mgrwt>
</event>
<event>
 8    1  0.1372337E-020  0.8382308E+02  0.7818608E-02  0.1318539E+00
         -2   -1    0    0    0  501 -0.00000000000E+00  0.00000000000E+00  0.14231544259E+02  0.14231544487E+02  0.25500000000E-02 0.  1.
          1   -1    0    0  501    0  0.00000000000E+00 -0.00000000000E+00 -0.12342843818E+03  0.12342843828E+03  0.50400000000E-02 0. -1.
        -24    2    1    2    0    0  0.00000000000E+00  0.00000000000E+00 -0.10919689392E+03  0.13765998277E+03  0.83823082825E+02 0.  0.
         66    2    3    3    0    0 -0.19239155320E+02  0.29778307747E+02 -0.17992519575E+02  0.39807329390E+02  0.20000006858E+01 0.  0.
         13    1    3    3    0    0  0.19239155320E+02 -0.29778307747E+02 -0.91204374344E+02  0.97852653379E+02  0.10566000000E+00 0. -1.
         13    1    4    4    0    0 -0.79393523791E+01  0.11236482759E+02 -0.68220191375E+01  0.15357179759E+02  0.10566000000E+00 0.  1.
        -13    1    4    4    0    0 -0.45176614494E+01  0.78633927513E+01 -0.52972197058E+01  0.10503042949E+02  0.10566000000E+00 0. -1.
        -14    1    4    4    0    0 -0.67821414918E+01  0.10678432237E+02 -0.58732807317E+01  0.13947106682E+02  0.00000000000E+00 0.  1.
<mgrwt>
<rscale>  0 0.83823083E+02</rscale>
<asrwt>0</asrwt>
<pdfrwt beam="1">  1        1 0.18988990E-01 0.83823083E+02</pdfrwt>
<pdfrwt beam="2">  1       -2 0.21894684E-02 0.83823083E+02</pdfrwt>
<totfact> 0.13440825E+05</totfact>
</mgrwt>
</event>
<event>
 8    1  0.1372337E-020  0.6976100E+02  0.7818608E-02  0.1360908E+00
         -2   -1    0    0    0  501 -0.00000000000E+00  0.00000000000E+00  0.42553939197E+03  0.42553939198E+03  0.25500000000E-02 0.  1.
          1   -1    0    0  501    0  0.00000000000E+00 -0.00000000000E+00 -0.28590734823E+01  0.28590779245E+01  0.50400000000E-02 0. -1.
        -24    2    1    2    0    0 -0.17763568394E-14  0.00000000000E+00  0.42268031849E+03  0.42839846990E+03  0.69761001840E+02 0.  0.
         66    2    3    3    0    0  0.94171198008E+01 -0.21587093922E+02  0.36927230935E+03  0.37002800328E+03  0.19999977496E+01 0.  0.
         13    1    3    3    0    0 -0.94171198008E+01  0.21587093922E+02  0.53408009138E+02  0.58370466620E+02  0.10566000000E+00 0. -1.
         13    1    4    4    0    0  0.56722143348E+00 -0.23466030632E+01  0.40186541004E+02  0.40259129747E+02  0.10566000000E+00 0. -1.
        -13    1    4    4    0    0  0.70233272347E+01 -0.16302913646E+02  0.27303372773E+03  0.27361019674E+03  0.10566000000E+00 0.  1.
        -14    1    4    4    0    0  0.18265711326E+01 -0.29375772129E+01  0.56052040615E+02  0.56158676792E+02  0.00000000000E+00 0.  1.
<mgrwt>
<rscale>  0 0.69761002E+02</rscale>
<asrwt>0</asrwt>
<pdfrwt beam="1">  1        1 0.43985819E-03 0.69761002E+02</pdfrwt>
<pdfrwt beam="2">  1       -2 0.65467542E-01 0.69761002E+02</pdfrwt>
<totfact> 0.80552325E+04</totfact>
</mgrwt>
</event>
<event>
 8    1  0.1372337E-020  0.8302393E+02  0.7818608E-02  0.1320683E+00
         -2   -1    0    0    0  501 -0.00000000000E+00  0.00000000000E+00  0.79183302319E+02  0.79183302360E+02  0.25500000000E-02 0.  1.
          1   -1    0    0  501    0  0.00000000000E+00 -0.00000000000E+00 -0.21762710221E+02  0.21762710805E+02  0.50400000000E-02 0. -1.
        -24    2    1    2    0    0  0.00000000000E+00  0.00000000000E+00  0.57420592097E+02  0.10094601316E+03  0.83023931351E+02 0.  0.
         66    2    3    3    0    0 -0.32472908765E+02 -0.25136494578E+02  0.21543503688E+02  0.46416114943E+02  0.20000029880E+01 0.  0.
         13    1    3    3    0    0  0.32472908765E+02  0.25136494578E+02  0.35877088410E+02  0.54529898222E+02  0.10566000000E+00 0. -1.
         13    1    4    4    0    0 -0.96128378441E+01 -0.68308169867E+01  0.53416744760E+01  0.12946480694E+02  0.10566000000E+00 0. -1.
        -13    1    4    4    0    0 -0.13339225283E+02 -0.10764885463E+02  0.94848059608E+01  0.19590569117E+02  0.10566000000E+00 0.  1.
         14    1    4    4    0    0 -0.95208456376E+01 -0.75407921278E+01  0.67170232508E+01  0.13879065131E+02  0.00000000000E+00 0. -1.
<mgrwt>
<rscale>  0 0.83023931E+02</rscale>
<asrwt>0</asrwt>
<pdfrwt beam="1">  1        1 0.33481093E-02 0.83023931E+02</pdfrwt>
<pdfrwt beam="2">  1       -2 0.12182046E-01 0.83023931E+02</pdfrwt>
<totfact> 0.10189977E+05</totfact>
</mgrwt>
</event>
<event>
 8    1  0.1372337E-020  0.8068290E+02  0.7818608E-02  0.1327125E+00
         -2   -1    0    0    0  501 -0.00000000000E+00  0.00000000000E+00  0.20136454184E+02  0.20136454345E+02  0.25500000000E-02 0.  1.
          1   -1    0    0  501    0  0.00000000000E+00 -0.00000000000E+00 -0.80820216958E+02  0.80820217116E+02  0.50400000000E-02 0. -1.
        -24    2    1    2    0    0  0.00000000000E+00  0.35527136788E-14 -0.60683762775E+02  0.10095667146E+03  0.80682900592E+02 0.  0.
         66    2    3    3    0    0  0.15519344678E+02 -0.31669892769E+02 -0.59174385457E+01  0.35816871025E+02  0.20000009604E+01 0.  0.
         13    1    3    3    0    0 -0.15519344678E+02  0.31669892769E+02 -0.54766324229E+02  0.65139800436E+02  0.10566000000E+00 0. -1.
         13    1    4    4    0    0  0.10670557490E+01 -0.16923132580E+01 -0.30031302525E+00  0.20258045521E+01  0.10566000000E+00 0. -1.
        -13    1    4    4    0    0  0.34566781186E+01 -0.86352433466E+01 -0.11866690070E+01  0.93773876233E+01  0.10566000000E+00 0.  1.
        -14    1    4    4    0    0  0.10995610811E+02 -0.21342336164E+02 -0.44304565134E+01  0.24413678849E+02  0.00000000000E+00 0.  1.
<mgrwt>
<rscale>  0 0.80682901E+02</rscale>
<asrwt>0</asrwt>
<pdfrwt beam="1">  1        1 0.12433879E-01 0.80682901E+02</pdfrwt>
<pdfrwt beam="2">  1       -2 0.30979161E-02 0.80682901E+02</pdfrwt>
<totfact> 0.13867826E+05</totfact>
</mgrwt>
</event>
<event>
 8    1  0.1372337E-020  0.7912632E+02  0.7818608E-02  0.1331549E+00
          1   -1    0    0  501    0  0.00000000000E+00  0.00000000000E+00  0.45831609439E+03  0.45831609442E+03  0.50400000000E-02 0. -1.
         -2   -1    0    0    0  501 -0.00000000000E+00 -0.00000000000E+00 -0.34152051954E+01  0.34152061474E+01  0.25500000000E-02 0.  1.
        -24    2    1    2    0    0  0.00000000000E+00 -0.71054273576E-14  0.45490088920E+03  0.46173130057E+03  0.79126322622E+02 0.  0.
         66    2    3    3    0    0  0.94638510157E+01 -0.35387622107E+02  0.31442096248E+03  0.31655392889E+03  0.19999926829E+01 0.  0.
         13    1    3    3    0    0 -0.94638510157E+01  0.35387622107E+02  0.14047992672E+03  0.14517737168E+03  0.10566000000E+00 0. -1.
         13    1    4    4    0    0  0.32627523137E+01 -0.13857129341E+02  0.11813455850E+03  0.11898928801E+03  0.10566000000E+00 0. -1.
        -13    1    4    4    0    0  0.12036397991E+01 -0.31486416724E+01  0.32269942311E+02  0.32445693612E+02  0.10566000000E+00 0.  1.
        -14    1    4    4    0    0  0.49974589029E+01 -0.18381851093E+02  0.16401646167E+03  0.16511894726E+03  0.00000000000E+00 0.  1.
<mgrwt>
<rscale>  0 0.79126323E+02</rscale>
<asrwt>0</asrwt>
<pdfrwt beam="1">  1        1 0.70510133E-01 0.79126323E+02</pdfrwt>
<pdfrwt beam="2">  1       -2 0.52541653E-03 0.79126323E+02</pdfrwt>
<totfact> 0.19956244E+05</totfact>
</mgrwt>
</event>
<event>
 8    1  0.1372337E-020  0.8426542E+02  0.7818608E-02  0.1317365E+00
         -2   -1    0    0    0  501 -0.00000000000E+00  0.00000000000E+00  0.43995179496E+02  0.43995179570E+02  0.25500000000E-02 0.  1.
          1   -1    0    0  501    0  0.00000000000E+00 -0.00000000000E+00 -0.40349088148E+02  0.40349088463E+02  0.50400000000E-02 0. -1.
        -24    2    1    2    0    0  0.35527136788E-14  0.35527136788E-14  0.36460913478E+01  0.84344268033E+02  0.84265423324E+02 0.  0.
         66    2    3    3    0    0  0.23162671271E+02  0.28460622671E+02  0.22498758527E+02  0.43089563974E+02  0.20000012376E+01 0.  0.
         13    1    3    3    0    0 -0.23162671271E+02 -0.28460622671E+02 -0.18852667179E+02  0.41254704060E+02  0.10566000000E+00 0. -1.
         13    1    4    4    0    0  0.82320191524E+01  0.11020871415E+02  0.90775839387E+01  0.16481487805E+02  0.10566000000E+00 0. -1.
        -13    1    4    4    0    0  0.14935143896E+02  0.17442030818E+02  0.13427022274E+02  0.26600358145E+02  0.10566000000E+00 0.  1.
         14    1    4    4    0    0 -0.44917775406E-02 -0.22795616165E-02 -0.58476855546E-02  0.77180239040E-02  0.00000000000E+00 0. -1.
<mgrwt>
<rscale>  0 0.84265423E+02</rscale>
<asrwt>0</asrwt>
<pdfrwt beam="1">  1        1 0.62075521E-02 0.84265423E+02</pdfrwt>
<pdfrwt beam="2">  1       -2 0.67684892E-02 0.84265423E+02</pdfrwt>
<totfact> 0.10976971E+05</totfact>
</mgrwt>
</event>
<event>
 8    1  0.1372337E-020  0.7608214E+02  0.7818608E-02  0.1340552E+00
         -2   -1    0    0    0  501 -0.00000000000E+00  0.00000000000E+00  0.81636569264E+03  0.81636569265E+03  0.25500000000E-02 0.  1.
          1   -1    0    0  501    0  0.00000000000E+00 -0.00000000000E+00 -0.17726368694E+01  0.17726440343E+01  0.50400000000E-02 0. -1.
        -24    2    1    2    0    0  0.00000000000E+00 -0.35527136788E-14  0.81459305577E+03  0.81813833668E+03  0.76082136097E+02 0.  0.
         66    2    3    3    0    0 -0.22038680579E+02  0.17942512097E+02  0.67908204638E+03  0.67967938243E+03  0.19999999706E+01 0.  0.
         13    1    3    3    0    0  0.22038680579E+02 -0.17942512097E+02  0.13551100939E+03  0.13845895425E+03  0.10566000000E+00 0. -1.
         13    1    4    4    0    0 -0.24523047908E+01  0.22044405452E+01  0.82765797478E+02  0.82831526324E+02  0.10566000000E+00 0. -1.
        -13    1    4    4    0    0 -0.66933805330E+01  0.47924511521E+01  0.17983244001E+03  0.18002079484E+03  0.10566000000E+00 0.  1.
        -14    1    4    4    0    0 -0.12892995255E+02  0.10945620400E+02  0.41648380890E+03  0.41682706127E+03  0.00000000000E+00 0.  1.
<mgrwt>
<rscale>  0 0.76082136E+02</rscale>
<asrwt>0</asrwt>
<pdfrwt beam="1">  1        1 0.27271458E-03 0.76082136E+02</pdfrwt>
<pdfrwt beam="2">  1       -2 0.12559442E+00 0.76082136E+02</pdfrwt>
<totfact> 0.37037498E+04</totfact>
</mgrwt>
</event>
<event>
 8    1  0.1372337E-020  0.7929980E+02  0.7818608E-02  0.1331050E+00
          1   -1    0    0  501    0  0.00000000000E+00  0.00000000000E+00  0.13445903623E+03  0.13445903632E+03  0.50400000000E-02 0. -1.
         -2   -1    0    0    0  501 -0.00000000000E+00 -0.00000000000E+00 -0.11692145059E+02  0.11692145338E+02  0.25500000000E-02 0.  1.
        -24    2    1    2    0    0  0.00000000000E+00  0.00000000000E+00  0.12276689117E+03  0.14615118166E+03  0.79299800337E+02 0.  0.
         66    2    3    3    0    0 -0.90734685063E+01 -0.29177544985E+02  0.14926627836E+02  0.34065542429E+02  0.20000000845E+01 0.  0.
         13    1    3    3    0    0  0.90734685063E+01  0.29177544985E+02  0.10784026333E+03  0.11208563923E+03  0.10566000000E+00 0. -1.
         13    1    4    4    0    0 -0.19818591381E+01 -0.49385728571E+01  0.29118291413E+01  0.60668921609E+01  0.10566000000E+00 0. -1.
        -13    1    4    4    0    0 -0.50704093323E+01 -0.19159147984E+02  0.92235365158E+01  0.21860164505E+02  0.10566000000E+00 0.  1.
        -14    1    4    4    0    0 -0.20212000359E+01 -0.50798241437E+01  0.27912621784E+01  0.61384857632E+01  0.00000000000E+00 0.  1.
<mgrwt>
<rscale>  0 0.79299800E+02</rscale>
<asrwt>0</asrwt>
<pdfrwt beam="1">  1        1 0.20686006E-01 0.79299800E+02</pdfrwt>
<pdfrwt beam="2">  1       -2 0.17987915E-02 0.79299800E+02</pdfrwt>
<totfact> 0.15845209E+05</totfact>
</mgrwt>
</event>
<event>
 8    1  0.1372337E-020  0.8148192E+02  0.7818608E-02  0.1324898E+00
         -2   -1    0    0    0  501 -0.00000000000E+00  0.00000000000E+00  0.20442817375E+02  0.20442817534E+02  0.25500000000E-02 0.  1.
          1   -1    0    0  501    0  0.00000000000E+00 -0.00000000000E+00 -0.81193590975E+02  0.81193591131E+02  0.50400000000E-02 0. -1.
        -24    2    1    2    0    0  0.00000000000E+00  0.00000000000E+00 -0.60750773600E+02  0.10163640866E+03  0.81481918689E+02 0.  0.
         66    2    3    3    0    0 -0.26498614478E+02  0.19736863520E+02 -0.60071648173E+02  0.68588069429E+02  0.20000007499E+01 0.  0.
         13    1    3    3    0    0  0.26498614478E+02 -0.19736863520E+02 -0.67912542700E+00  0.33048339235E+02  0.10566000000E+00 0. -1.
         13    1    4    4    0    0 -0.17524923676E+01  0.14503922816E+01 -0.52190742806E+01  0.56942749891E+01  0.10566000000E+00 0. -1.
        -13    1    4    4    0    0 -0.17893199930E+02  0.13107428982E+02 -0.39568169030E+02  0.45361023606E+02  0.10566000000E+00 0.  1.
         14    1    4    4    0    0 -0.68529221805E+01  0.51790422560E+01 -0.15284404863E+02  0.17532770834E+02  0.00000000000E+00 0. -1.
<mgrwt>
<rscale>  0 0.81481919E+02</rscale>
<asrwt>0</asrwt>
<pdfrwt beam="1">  1        1 0.12491322E-01 0.81481919E+02</pdfrwt>
<pdfrwt beam="2">  1       -2 0.31450489E-02 0.81481919E+02</pdfrwt>
<totfact> 0.13510145E+05</totfact>
</mgrwt>
</event>
<event>
 8    1  0.1372337E-020  0.7984838E+02  0.7818608E-02  0.1329482E+00
          1   -1    0    0  501    0  0.00000000000E+00  0.00000000000E+00  0.18458008955E+03  0.18458008962E+03  0.50400000000E-02 0. -1.
         -2   -1    0    0    0  501 -0.00000000000E+00 -0.00000000000E+00 -0.86354972017E+01  0.86354975782E+01  0.25500000000E-02 0.  1.
        -24    2    1    2    0    0  0.00000000000E+00  0.00000000000E+00  0.17594459235E+03  0.19321558720E+03  0.79848378565E+02 0.  0.
         66    2    3    3    0    0  0.14444483150E+02  0.34203186208E+02  0.52675758979E+02  0.64476636275E+02  0.20000002682E+01 0.  0.
         13    1    3    3    0    0 -0.14444483150E+02 -0.34203186208E+02  0.12326883337E+03  0.12873895093E+03  0.10566000000E+00 0. -1.
         13    1    4    4    0    0  0.23030154117E+00  0.59956494463E+00  0.73438820337E+00  0.98132919632E+00  0.10566000000E+00 0.  1.
        -13    1    4    4    0    0  0.12603220569E+02  0.30112812775E+02  0.47248252207E+02  0.57428487379E+02  0.10566000000E+00 0.  1.
        -14    1    4    4    0    0  0.16109610401E+01  0.34908084885E+01  0.46931185682E+01  0.60668196999E+01  0.00000000000E+00 0.  1.
<mgrwt>
<rscale>  0 0.79848379E+02</rscale>
<asrwt>0</asrwt>
<pdfrwt beam="1">  1        1 0.28396936E-01 0.79848379E+02</pdfrwt>
<pdfrwt beam="2">  1       -2 0.13285381E-02 0.79848379E+02</pdfrwt>
<totfact> 0.16500421E+05</totfact>
</mgrwt>
</event>
<event>
 8    1  0.1372337E-020  0.8078878E+02  0.7818608E-02  0.1326828E+00
          1   -1    0    0  501    0  0.00000000000E+00  0.00000000000E+00  0.62160185574E+03  0.62160185576E+03  0.50400000000E-02 0. -1.
         -2   -1    0    0    0  501 -0.00000000000E+00 -0.00000000000E+00 -0.26250026429E+01  0.26250038815E+01  0.25500000000E-02 0.  1.
        -24    2    1    2    0    0  0.00000000000E+00  0.00000000000E+00  0.61897685310E+03  0.62422685964E+03  0.80788784051E+02 0.  0.
         66    2    3    3    0    0 -0.12792515188E+02  0.35800380795E+02  0.41459692500E+03  0.41634111726E+03  0.19999993461E+01 0.  0.
         13    1    3    3    0    0  0.12792515188E+02 -0.35800380795E+02  0.20437992810E+03  0.20788574238E+03  0.10566000000E+00 0. -1.
         13    1    4    4    0    0 -0.49941842642E+01  0.11898759111E+02  0.14293410963E+03  0.14351548071E+03  0.10566000000E+00 0. -1.
        -13    1    4    4    0    0 -0.55134519311E+01  0.18154165453E+02  0.20272456330E+03  0.20361048992E+03  0.10566000000E+00 0.  1.
        -14    1    4    4    0    0 -0.22848789931E+01  0.57474562314E+01  0.68938252066E+02  0.69215146630E+02  0.00000000000E+00 0.  1.
<mgrwt>
<rscale>  0 0.80788784E+02</rscale>
<asrwt>0</asrwt>
<pdfrwt beam="1">  1        1 0.95631094E-01 0.80788784E+02</pdfrwt>
<pdfrwt beam="2">  1       -2 0.40384649E-03 0.80788784E+02</pdfrwt>
<totfact> 0.19466847E+05</totfact>
</mgrwt>
</event>
<event>
 8    1  0.1372337E-020  0.7719352E+02  0.7818608E-02  0.1337210E+00
          1   -1    0    0  501    0  0.00000000000E+00  0.00000000000E+00  0.10422199115E+02  0.10422200334E+02  0.50400000000E-02 0. -1.
         -2   -1    0    0    0  501 -0.00000000000E+00 -0.00000000000E+00 -0.14293624050E+03  0.14293624052E+03  0.25500000000E-02 0.  1.
        -24    2    1    2    0    0  0.00000000000E+00  0.00000000000E+00 -0.13251404138E+03  0.15335844085E+03  0.77193524455E+02 0.  0.
         66    2    3    3    0    0 -0.36146464865E+02  0.13086165055E+02 -0.72549301041E+02  0.82129262238E+02  0.19999990401E+01 0.  0.
         13    1    3    3    0    0  0.36146464865E+02 -0.13086165055E+02 -0.59964740339E+02  0.71229178614E+02  0.10566000000E+00 0. -1.
         13    1    4    4    0    0 -0.50032255393E+01  0.17896701554E+01 -0.92673926426E+01  0.10683207172E+02  0.10566000000E+00 0. -1.
        -13    1    4    4    0    0 -0.21962684078E+02  0.74209859370E+01 -0.43180614437E+02  0.49010275977E+02  0.10566000000E+00 0.  1.
         14    1    4    4    0    0 -0.91805552475E+01  0.38755089627E+01 -0.20101293961E+02  0.22435779088E+02  0.00000000000E+00 0. -1.
<mgrwt>
<rscale>  0 0.77193524E+02</rscale>
<asrwt>0</asrwt>
<pdfrwt beam="1">  1        1 0.16034155E-02 0.77193524E+02</pdfrwt>
<pdfrwt beam="2">  1       -2 0.21990189E-01 0.77193524E+02</pdfrwt>
<totfact> 0.10522094E+05</totfact>
</mgrwt>
</event>
<event>
 8    1  0.1372337E-020  0.8173983E+02  0.7818608E-02  0.1324185E+00
          1   -1    0    0  501    0  0.00000000000E+00  0.00000000000E+00  0.66932848794E+02  0.66932848984E+02  0.50400000000E-02 0. -1.
         -2   -1    0    0    0  501 -0.00000000000E+00 -0.00000000000E+00 -0.24955609009E+02  0.24955609139E+02  0.25500000000E-02 0.  1.
        -24    2    1    2    0    0  0.00000000000E+00  0.00000000000E+00  0.41977239785E+02  0.91888458123E+02  0.81739831638E+02 0.  0.
         66    2    3    3    0    0 -0.10300847982E+02  0.12915279553E+02 -0.20992317385E+02  0.26787857439E+02  0.20000004706E+01 0.  0.
         13    1    3    3    0    0  0.10300847982E+02 -0.12915279553E+02  0.62969557171E+02  0.65100600684E+02  0.10566000000E+00 0. -1.
         13    1    4    4    0    0 -0.89475363050E+00  0.80683066314E+00 -0.18286264376E+01  0.21923955989E+01  0.10566000000E+00 0. -1.
        -13    1    4    4    0    0 -0.13303706580E+01  0.26959022221E+01 -0.40375759356E+01  0.50349735203E+01  0.10566000000E+00 0.  1.
        -14    1    4    4    0    0 -0.80757236930E+01  0.94125466680E+01 -0.15126115012E+02  0.19560488320E+02  0.00000000000E+00 0.  1.
<mgrwt>
<rscale>  0 0.81739832E+02</rscale>
<asrwt>0</asrwt>
<pdfrwt beam="1">  1        1 0.10297361E-01 0.81739832E+02</pdfrwt>
<pdfrwt beam="2">  1       -2 0.38393246E-02 0.81739832E+02</pdfrwt>
<totfact> 0.12982251E+05</totfact>
</mgrwt>
</event>
<event>
 8    1  0.1372337E-020  0.8012763E+02  0.7818608E-02  0.1328690E+00
         -2   -1    0    0    0  501 -0.00000000000E+00  0.00000000000E+00  0.49222089072E+02  0.49222089138E+02  0.25500000000E-02 0.  1.
          1   -1    0    0  501    0  0.00000000000E+00 -0.00000000000E+00 -0.32609528859E+02  0.32609529248E+02  0.50400000000E-02 0. -1.
        -24    2    1    2    0    0  0.00000000000E+00 -0.35527136788E-14  0.16612560213E+02  0.81831618386E+02  0.80127627014E+02 0.  0.
         66    2    3    3    0    0 -0.16542521658E+02 -0.27127774170E+02  0.33192066764E+02  0.45992221687E+02  0.20000013597E+01 0.  0.
         13    1    3    3    0    0  0.16542521658E+02  0.27127774170E+02 -0.16579506552E+02  0.35839396699E+02  0.10566000000E+00 0. -1.
         13    1    4    4    0    0 -0.10270117825E+01 -0.16298599225E+01  0.14906431407E+01  0.24381094267E+01  0.10566000000E+00 0. -1.
        -13    1    4    4    0    0 -0.38466469011E+01 -0.71720493158E+01  0.84584536929E+01  0.11738466113E+02  0.10566000000E+00 0.  1.
        -14    1    4    4    0    0 -0.11668862974E+02 -0.18325864931E+02  0.23242969931E+02  0.31815646148E+02  0.00000000000E+00 0.  1.
<mgrwt>
<rscale>  0 0.80127627E+02</rscale>
<asrwt>0</asrwt>
<pdfrwt beam="1">  1        1 0.50168506E-02 0.80127627E+02</pdfrwt>
<pdfrwt beam="2">  1       -2 0.75726291E-02 0.80127627E+02</pdfrwt>
<totfact> 0.12216287E+05</totfact>
</mgrwt>
</event>
<event>
 8    1  0.1372337E-020  0.7871278E+02  0.7818608E-02  0.1332745E+00
          1   -1    0    0  501    0  0.00000000000E+00  0.00000000000E+00  0.82247844876E+02  0.82247845030E+02  0.50400000000E-02 0. -1.
         -2   -1    0    0    0  501 -0.00000000000E+00 -0.00000000000E+00 -0.18832412025E+02  0.18832412198E+02  0.25500000000E-02 0.  1.
        -24    2    1    2    0    0  0.00000000000E+00 -0.35527136788E-14  0.63415432851E+02  0.10108025723E+03  0.78712777093E+02 0.  0.
         66    2    3    3    0    0  0.28805604937E+02 -0.19358043432E+02  0.79650354545E+01  0.35664246522E+02  0.19999922236E+01 0.  0.
         13    1    3    3    0    0 -0.28805604937E+02  0.19358043432E+02  0.55450397396E+02  0.65416010706E+02  0.10566000000E+00 0. -1.
         13    1    4    4    0    0  0.23383734221E+01 -0.13860402907E+01  0.73370770466E+00  0.28175501735E+01  0.10566000000E+00 0. -1.
        -13    1    4    4    0    0  0.18457737696E+02 -0.11587460993E+02  0.46690529996E+01  0.22288305298E+02  0.10566000000E+00 0.  1.
         14    1    4    4    0    0  0.80094938194E+01 -0.63845421476E+01  0.25622747503E+01  0.10558391050E+02  0.00000000000E+00 0. -1.
<mgrwt>
<rscale>  0 0.78712777E+02</rscale>
<asrwt>0</asrwt>
<pdfrwt beam="1">  1        1 0.12653515E-01 0.78712777E+02</pdfrwt>
<pdfrwt beam="2">  1       -2 0.28972941E-02 0.78712777E+02</pdfrwt>
<totfact> 0.14874471E+05</totfact>
</mgrwt>
</event>
<event>
 8    1  0.1372337E-020  0.7945420E+02  0.7818608E-02  0.1330607E+00
         -2   -1    0    0    0  501 -0.00000000000E+00  0.00000000000E+00  0.13907079797E+03  0.13907079800E+03  0.25500000000E-02 0.  1.
          1   -1    0    0  501    0  0.00000000000E+00 -0.00000000000E+00 -0.11348482623E+02  0.11348483742E+02  0.50400000000E-02 0. -1.
        -24    2    1    2    0    0  0.00000000000E+00  0.35527136788E-14  0.12772231535E+03  0.15041928174E+03  0.79454203665E+02 0.  0.
         66    2    3    3    0    0 -0.20146097593E+02  0.18667333430E+02  0.11817614622E+03  0.12134222730E+03  0.20000013619E+01 0.  0.
         13    1    3    3    0    0  0.20146097593E+02 -0.18667333430E+02  0.95461691307E+01  0.29077054437E+02  0.10566000000E+00 0. -1.
         13    1    4    4    0    0 -0.97762225259E+01  0.89743358529E+01  0.54672859481E+02  0.56260518650E+02  0.10566000000E+00 0. -1.
        -13    1    4    4    0    0 -0.10261209988E+02  0.96332544456E+01  0.63279042375E+02  0.64825460967E+02  0.10566000000E+00 0.  1.
         14    1    4    4    0    0 -0.10866507948E+00  0.59743131044E-01  0.22424436448E+00  0.25624768527E+00  0.00000000000E+00 0. -1.
<mgrwt>
<rscale>  0 0.79454204E+02</rscale>
<asrwt>0</asrwt>
<pdfrwt beam="1">  1        1 0.17459205E-02 0.79454204E+02</pdfrwt>
<pdfrwt beam="2">  1       -2 0.21395508E-01 0.79454204E+02</pdfrwt>
<totfact> 0.98545161E+04</totfact>
</mgrwt>
</event>
<event>
 8    1  0.1372337E-020  0.8207838E+02  0.7818608E-02  0.1323255E+00
          1   -1    0    0  501    0  0.00000000000E+00  0.00000000000E+00  0.13007637182E+03  0.13007637192E+03  0.50400000000E-02 0. -1.
         -2   -1    0    0    0  501 -0.00000000000E+00 -0.00000000000E+00 -0.12947893215E+02  0.12947893466E+02  0.25500000000E-02 0.  1.
        -24    2    1    2    0    0  0.71054273576E-14  0.22204460493E-15  0.11712847861E+03  0.14302426539E+03  0.82078377105E+02 0.  0.
         66    2    3    3    0    0  0.40517918758E+02 -0.14896051160E+01  0.47816404026E+02  0.62724231073E+02  0.20000014368E+01 0.  0.
         13    1    3    3    0    0 -0.40517918758E+02  0.14896051160E+01  0.69312074582E+02  0.80300034314E+02  0.10566000000E+00 0. -1.
         13    1    4    4    0    0  0.21705606383E+02 -0.14506240524E+00  0.26364095071E+02  0.34150125395E+02  0.10566000000E+00 0.  1.
        -13    1    4    4    0    0  0.18205792178E+01 -0.28021663220E+00  0.19021294525E+01  0.26499604788E+01  0.10566000000E+00 0. -1.
        -14    1    4    4    0    0  0.16991733157E+02 -0.10643260785E+01  0.19550179503E+02  0.25924145199E+02  0.00000000000E+00 0.  1.
<mgrwt>
<rscale>  0 0.82078377E+02</rscale>
<asrwt>0</asrwt>
<pdfrwt beam="1">  1        1 0.20011750E-01 0.82078377E+02</pdfrwt>
<pdfrwt beam="2">  1       -2 0.19919835E-02 0.82078377E+02</pdfrwt>
<totfact> 0.14360549E+05</totfact>
</mgrwt>
</event>
<event>
 8    1  0.1372337E-020  0.7839962E+02  0.7818608E-02  0.1333655E+00
          1   -1    0    0  501    0  0.00000000000E+00  0.00000000000E+00  0.12184185979E+03  0.12184185989E+03  0.50400000000E-02 0. -1.
         -2   -1    0    0    0  501 -0.00000000000E+00 -0.00000000000E+00 -0.12611635140E+02  0.12611635398E+02  0.25500000000E-02 0.  1.
        -24    2    1    2    0    0  0.00000000000E+00  0.00000000000E+00  0.10923022465E+03  0.13445349529E+03  0.78399620019E+02 0.  0.
         66    2    3    3    0    0 -0.32559008239E+02 -0.18409412031E+02  0.34678280836E+02  0.51044868884E+02  0.20000021970E+01 0.  0.
         13    1    3    3    0    0  0.32559008239E+02  0.18409412031E+02  0.74551943810E+02  0.83408626405E+02  0.10566000000E+00 0. -1.
         13    1    4    4    0    0 -0.15127119251E+01 -0.11257840379E+01  0.15065948749E+01  0.24159220230E+01  0.10566000000E+00 0. -1.
        -13    1    4    4    0    0 -0.28279314427E+02 -0.16114960201E+02  0.30616235335E+02  0.44685306274E+02  0.10566000000E+00 0.  1.
        -14    1    4    4    0    0 -0.27669818869E+01 -0.11686677930E+01  0.25554506267E+01  0.39436405869E+01  0.00000000000E+00 0.  1.
<mgrwt>
<rscale>  0 0.78399620E+02</rscale>
<asrwt>0</asrwt>
<pdfrwt beam="1">  1        1 0.18744902E-01 0.78399620E+02</pdfrwt>
<pdfrwt beam="2">  1       -2 0.19402515E-02 0.78399620E+02</pdfrwt>
<totfact> 0.16054291E+05</totfact>
</mgrwt>
</event>
<event>
 8    1  0.1372337E-020  0.7902485E+02  0.7818608E-02  0.1331842E+00
          1   -1    0    0  501    0  0.00000000000E+00  0.00000000000E+00  0.15981747675E+02  0.15981748469E+02  0.50400000000E-02 0. -1.
         -2   -1    0    0    0  501 -0.00000000000E+00 -0.00000000000E+00 -0.97688431823E+02  0.97688431856E+02  0.25500000000E-02 0.  1.
        -24    2    1    2    0    0  0.71054273576E-14 -0.35527136788E-14 -0.81706684148E+02  0.11367018033E+03  0.79024854702E+02 0.  0.
         66    2    3    3    0    0  0.24085231342E+02 -0.20620906978E+02 -0.74732750471E+02  0.81205321040E+02  0.19999997136E+01 0.  0.
         13    1    3    3    0    0 -0.24085231342E+02  0.20620906978E+02 -0.69739336771E+01  0.32464859285E+02  0.10566000000E+00 0. -1.
         13    1    4    4    0    0  0.75691479167E+00 -0.34521641851E+00 -0.21569582997E+01  0.23142444814E+01  0.10566000000E+00 0. -1.
        -13    1    4    4    0    0  0.12781457677E+02 -0.11663527421E+02 -0.39707332246E+02  0.43313819162E+02  0.10566000000E+00 0.  1.
         14    1    4    4    0    0  0.10546858873E+02 -0.86121631387E+01 -0.32868459925E+02  0.35577257397E+02  0.00000000000E+00 0. -1.
<mgrwt>
<rscale>  0 0.79024855E+02</rscale>
<asrwt>0</asrwt>
<pdfrwt beam="1">  1        1 0.24587305E-02 0.79024855E+02</pdfrwt>
<pdfrwt beam="2">  1       -2 0.15028989E-01 0.79024855E+02</pdfrwt>
<totfact> 0.11014282E+05</totfact>
</mgrwt>
</event>
<event>
 8    1  0.1372337E-020  0.8018501E+02  0.7818608E-02  0.1328527E+00
         -2   -1    0    0    0  501 -0.00000000000E+00  0.00000000000E+00  0.77662466202E+01  0.77662470388E+01  0.25500000000E-02 0.  1.
          1   -1    0    0  501    0  0.00000000000E+00 -0.00000000000E+00 -0.20697371611E+03  0.20697371617E+03  0.50400000000E-02 0. -1.
        -24    2    1    2    0    0  0.00000000000E+00  0.00000000000E+00 -0.19920746949E+03  0.21473996321E+03  0.80185010438E+02 0.  0.
         66    2    3    3    0    0 -0.33854604120E+02  0.20097675023E+02 -0.11959020152E+03  0.12592008208E+03  0.20000022989E+01 0.  0.
         13    1    3    3    0    0  0.33854604120E+02 -0.20097675023E+02 -0.79617267968E+02  0.88819881131E+02  0.10566000000E+00 0. -1.
         13    1    4    4    0    0 -0.40552083572E+01  0.17851959347E+01 -0.13316360710E+02  0.14034538323E+02  0.10566000000E+00 0. -1.
        -13    1    4    4    0    0 -0.29098708577E+02  0.17706915691E+02 -0.10339634772E+03  0.10886269145E+03  0.10566000000E+00 0.  1.
         14    1    4    4    0    0 -0.70068718669E+00  0.60556339740E+00 -0.28774930937E+01  0.30228523064E+01  0.00000000000E+00 0. -1.
<mgrwt>
<rscale>  0 0.80185010E+02</rscale>
<asrwt>0</asrwt>
<pdfrwt beam="1">  1        1 0.31842106E-01 0.80185010E+02</pdfrwt>
<pdfrwt beam="2">  1       -2 0.11948074E-02 0.80185010E+02</pdfrwt>
<totfact> 0.16682782E+05</totfact>
</mgrwt>
</event>
<event>
 8    1  0.1372337E-020  0.7936790E+02  0.7818608E-02  0.1330855E+00
         -2   -1    0    0    0  501 -0.00000000000E+00  0.00000000000E+00  0.27337616945E+03  0.27337616946E+03  0.25500000000E-02 0.  1.
          1   -1    0    0  501    0  0.00000000000E+00 -0.00000000000E+00 -0.57606173376E+01  0.57606195424E+01  0.50400000000E-02 0. -1.
        -24    2    1    2    0    0 -0.35527136788E-14 -0.88817841970E-15  0.26761555212E+03  0.27913678901E+03  0.79367898065E+02 0.  0.
         66    2    3    3    0    0  0.20843314958E+02 -0.65863095481E+01  0.25027209050E+03  0.25123284526E+03  0.20000004454E+01 0.  0.
         13    1    3    3    0    0 -0.20843314958E+02  0.65863095481E+01  0.17343461616E+02  0.27903943749E+02  0.10566000000E+00 0. -1.
         13    1    4    4    0    0  0.14712358206E+01 -0.78387200506E+00  0.18311156385E+02  0.18387185819E+02  0.10566000000E+00 0.  1.
        -13    1    4    4    0    0  0.75370181101E+01 -0.14984517924E+01  0.88238569337E+02  0.88572615872E+02  0.10566000000E+00 0.  1.
        -14    1    4    4    0    0  0.11835061027E+02 -0.43039857506E+01  0.14372236478E+03  0.14427304357E+03  0.00000000000E+00 0.  1.
<mgrwt>
<rscale>  0 0.79367898E+02</rscale>
<asrwt>0</asrwt>
<pdfrwt beam="1">  1        1 0.88624898E-03 0.79367898E+02</pdfrwt>
<pdfrwt beam="2">  1       -2 0.42057873E-01 0.79367898E+02</pdfrwt>
<totfact> 0.75319023E+04</totfact>
</mgrwt>
</event>
<event>
 8    1  0.1372337E-020  0.8377488E+02  0.7818608E-02  0.1318668E+00
         -2   -1    0    0    0  501 -0.00000000000E+00  0.00000000000E+00  0.10287434972E+02  0.10287435288E+02  0.25500000000E-02 0.  1.
          1   -1    0    0  501    0  0.00000000000E+00 -0.00000000000E+00 -0.17055347153E+03  0.17055347160E+03  0.50400000000E-02 0. -1.
        -24    2    1    2    0    0  0.00000000000E+00  0.00000000000E+00 -0.16026603655E+03  0.18084090689E+03  0.83774883656E+02 0.  0.
         66    2    3    3    0    0  0.69852071547E+01  0.28799332433E+02 -0.16348170087E+02  0.33903647761E+02  0.19999996877E+01 0.  0.
         13    1    3    3    0    0 -0.69852071547E+01 -0.28799332433E+02 -0.14391786647E+03  0.14693725913E+03  0.10566000000E+00 0. -1.
         13    1    4    4    0    0  0.24468272988E+01  0.77823532267E+01 -0.41025814552E+01  0.91320492884E+01  0.10566000000E+00 0. -1.
        -13    1    4    4    0    0  0.20725460397E+00  0.83230500472E+00 -0.26990098137E+00  0.90537101075E+00  0.10566000000E+00 0.  1.
        -14    1    4    4    0    0  0.43311252520E+01  0.20184674201E+02 -0.11975687651E+02  0.23866227462E+02  0.00000000000E+00 0.  1.
<mgrwt>
<rscale>  0 0.83774884E+02</rscale>
<asrwt>0</asrwt>
<pdfrwt beam="1">  1        1 0.26238994E-01 0.83774884E+02</pdfrwt>
<pdfrwt beam="2">  1       -2 0.15826825E-02 0.83774884E+02</pdfrwt>
<totfact> 0.14297780E+05</totfact>
</mgrwt>
</event>
<event>
 8    1  0.1372337E-020  0.8076795E+02  0.7818608E-02  0.1326886E+00
         -2   -1    0    0    0  501 -0.00000000000E+00  0.00000000000E+00  0.59972676424E+01  0.59972681845E+01  0.25500000000E-02 0.  1.
          1   -1    0    0  501    0  0.00000000000E+00 -0.00000000000E+00 -0.27193472484E+03  0.27193472488E+03  0.50400000000E-02 0. -1.
        -24    2    1    2    0    0  0.71054273576E-14 -0.35527136788E-14 -0.26593745719E+03  0.27793199307E+03  0.80767949285E+02 0.  0.
         66    2    3    3    0    0  0.32145054884E+02  0.24045947499E+02 -0.14738272714E+03  0.15276511515E+03  0.20000010029E+01 0.  0.
         13    1    3    3    0    0 -0.32145054884E+02 -0.24045947499E+02 -0.11855473006E+03  0.12516687792E+03  0.10566000000E+00 0. -1.
         13    1    4    4    0    0  0.14257579447E+02  0.10122660051E+02 -0.66002990845E+02  0.68279958866E+02  0.10566000000E+00 0. -1.
        -13    1    4    4    0    0  0.85642458093E+01  0.72641653405E+01 -0.41380630946E+02  0.42877525417E+02  0.10566000000E+00 0.  1.
        -14    1    4    4    0    0  0.93232296278E+01  0.66591221076E+01 -0.39999105346E+02  0.41607630868E+02  0.00000000000E+00 0.  1.
<mgrwt>
<rscale>  0 0.80767949E+02</rscale>
<asrwt>0</asrwt>
<pdfrwt beam="1">  1        1 0.41836102E-01 0.80767949E+02</pdfrwt>
<pdfrwt beam="2">  1       -2 0.92265682E-03 0.80767949E+02</pdfrwt>
<totfact> 0.17262190E+05</totfact>
</mgrwt>
</event>
<event>
 8    1  0.1372337E-020  0.8057384E+02  0.7818608E-02  0.1327431E+00
          1   -1    0    0  501    0  0.00000000000E+00  0.00000000000E+00  0.25517893853E+03  0.25517893858E+03  0.50400000000E-02 0. -1.
         -2   -1    0    0    0  501 -0.00000000000E+00 -0.00000000000E+00 -0.63603835941E+01  0.63603841052E+01  0.25500000000E-02 0.  1.
        -24    2    1    2    0    0  0.00000000000E+00  0.00000000000E+00  0.24881855494E+03  0.26153932269E+03  0.80573842097E+02 0.  0.
         66    2    3    3    0    0 -0.16969435844E+01  0.35852950719E+02  0.18369374933E+03  0.18717827668E+03  0.20000069382E+01 0.  0.
         13    1    3    3    0    0  0.16969435844E+01 -0.35852950719E+02  0.65124805613E+02  0.74361046005E+02  0.10566000000E+00 0. -1.
         13    1    4    4    0    0  0.45488604690E-02  0.27365976989E+01  0.15961109526E+02  0.16194356085E+02  0.10566000000E+00 0. -1.
        -13    1    4    4    0    0 -0.10103006405E+01  0.26541140520E+02  0.13619329340E+03  0.13875906161E+03  0.10566000000E+00 0.  1.
        -14    1    4    4    0    0 -0.69119180434E+00  0.65752125002E+01  0.31539346406E+02  0.32224858995E+02  0.00000000000E+00 0.  1.
<mgrwt>
<rscale>  0 0.80573842E+02</rscale>
<asrwt>0</asrwt>
<pdfrwt beam="1">  1        1 0.39258298E-01 0.80573842E+02</pdfrwt>
<pdfrwt beam="2">  1       -2 0.97852060E-03 0.80573842E+02</pdfrwt>
<totfact> 0.17157530E+05</totfact>
</mgrwt>
</event>
<event>
 8    1  0.1842303E-020  0.7676327E+02  0.7818608E-02  0.1338496E+00
          1   -1    0    0  501    0  0.00000000000E+00  0.00000000000E+00  0.66342968536E+02  0.66342968728E+02  0.50400000000E-02 0. -1.
         -2   -1    0    0    0  501 -0.00000000000E+00 -0.00000000000E+00 -0.22205062660E+02  0.22205062806E+02  0.25500000000E-02 0.  1.
        -24    2    1    2    0    0  0.00000000000E+00  0.00000000000E+00  0.44137905877E+02  0.88548031534E+02  0.76763266953E+02 0.  0.
         66    2    3    3    0    0  0.10653064753E+02  0.18448383195E+02 -0.14708076591E+02  0.25964555697E+02  0.20000010966E+01 0.  0.
         13    1    3    3    0    0 -0.10653064753E+02 -0.18448383195E+02  0.58845982468E+02  0.62583475837E+02  0.10566000000E+00 0. -1.
         13    1    4    4    0    0  0.55811395843E+01  0.86495321226E+01 -0.70481186593E+01  0.12476003594E+02  0.10566000000E+00 0. -1.
        -13    1    4    4    0    0  0.48512091566E+01  0.85394034257E+01 -0.68609109986E+01  0.11980772300E+02  0.10566000000E+00 0.  1.
         14    1    4    4    0    0  0.22071601262E+00  0.12594476463E+01 -0.79904693348E+00  0.15077798028E+01  0.00000000000E+00 0. -1.
<mgrwt>
<rscale>  0 0.76763267E+02</rscale>
<asrwt>0</asrwt>
<pdfrwt beam="1">  1        1 0.10206610E-01 0.76763267E+02</pdfrwt>
<pdfrwt beam="2">  1       -2 0.34161636E-02 0.76763267E+02</pdfrwt>
<totfact> 0.15398775E+05</totfact>
</mgrwt>
</event>
<event>
 8    1  0.1372337E-020  0.7923409E+02  0.7818608E-02  0.1331239E+00
          1   -1    0    0  501    0  0.00000000000E+00  0.00000000000E+00  0.11448410120E+03  0.11448410131E+03  0.50400000000E-02 0. -1.
         -2   -1    0    0    0  501 -0.00000000000E+00 -0.00000000000E+00 -0.13709414902E+02  0.13709415139E+02  0.25500000000E-02 0.  1.
        -24    2    1    2    0    0 -0.11102230246E-15  0.00000000000E+00  0.10077468630E+03  0.12819351645E+03  0.79234085223E+02 0.  0.
         66    2    3    3    0    0  0.57929194129E+00 -0.25005007884E+02  0.76460538459E+00  0.25103199509E+02  0.20000014501E+01 0.  0.
         13    1    3    3    0    0 -0.57929194129E+00  0.25005007884E+02  0.10001008091E+03  0.10309031694E+03  0.10566000000E+00 0. -1.
         13    1    4    4    0    0  0.37708437721E+00 -0.82792703380E+01  0.97867742797E+00  0.83461058884E+01  0.10566000000E+00 0. -1.
        -13    1    4    4    0    0 -0.76092843166E-02 -0.30551961732E+01  0.32541030886E+00  0.30743027604E+01  0.10566000000E+00 0.  1.
         14    1    4    4    0    0  0.20981684840E+00 -0.13670541372E+02 -0.53948235225E+00  0.13682790861E+02  0.00000000000E+00 0. -1.
<mgrwt>
<rscale>  0 0.79234085E+02</rscale>
<asrwt>0</asrwt>
<pdfrwt beam="1">  1        1 0.17612939E-01 0.79234085E+02</pdfrwt>
<pdfrwt beam="2">  1       -2 0.21091408E-02 0.79234085E+02</pdfrwt>
<totfact> 0.15436865E+05</totfact>
</mgrwt>
</event>
<event>
 8    1  0.1372337E-020  0.8045091E+02  0.7818608E-02  0.1327777E+00
         -2   -1    0    0    0  501 -0.00000000000E+00  0.00000000000E+00  0.88830150920E+03  0.88830150920E+03  0.25500000000E-02 0.  1.
          1   -1    0    0  501    0  0.00000000000E+00 -0.00000000000E+00 -0.18215485362E+01  0.18215555087E+01  0.50400000000E-02 0. -1.
        -24    2    1    2    0    0 -0.35527136788E-14  0.00000000000E+00  0.88647996066E+03  0.89012306471E+03  0.80450914689E+02 0.  0.
         66    2    3    3    0    0  0.18293737181E+02 -0.12644605670E+02  0.81404503779E+03  0.81435119599E+03  0.20000004435E+01 0.  0.
         13    1    3    3    0    0 -0.18293737181E+02  0.12644605670E+02  0.72434922878E+02  0.75771868718E+02  0.10566000000E+00 0. -1.
         13    1    4    4    0    0  0.11205870308E+02 -0.81683641187E+01  0.48181738952E+03  0.48201691019E+03  0.10566000000E+00 0. -1.
        -13    1    4    4    0    0  0.21836785398E+01 -0.11777627946E+01  0.11031480299E+03  0.11034275010E+03  0.10566000000E+00 0.  1.
        -14    1    4    4    0    0  0.49041883332E+01 -0.32984787566E+01  0.22191284528E+03  0.22199153571E+03  0.00000000000E+00 0.  1.
<mgrwt>
<rscale>  0 0.80450915E+02</rscale>
<asrwt>0</asrwt>
<pdfrwt beam="1">  1        1 0.28023951E-03 0.80450915E+02</pdfrwt>
<pdfrwt beam="2">  1       -2 0.13666141E+00 0.80450915E+02</pdfrwt>
<totfact> 0.29356920E+04</totfact>
</mgrwt>
</event>
<event>
 8    1  0.1372337E-020  0.8065910E+02  0.7818608E-02  0.1327191E+00
         -2   -1    0    0    0  501 -0.00000000000E+00  0.00000000000E+00  0.37133714501E+03  0.37133714502E+03  0.25500000000E-02 0.  1.
          1   -1    0    0  501    0  0.00000000000E+00 -0.00000000000E+00 -0.43800410497E+01  0.43800439494E+01  0.50400000000E-02 0. -1.
        -24    2    1    2    0    0  0.00000000000E+00  0.00000000000E+00  0.36695710396E+03  0.37571718897E+03  0.80659097064E+02 0.  0.
         66    2    3    3    0    0 -0.34973872552E+02  0.46381223988E+01  0.27436803820E+03  0.27663424289E+03  0.20000035309E+01 0.  0.
         13    1    3    3    0    0  0.34973872552E+02 -0.46381223988E+01  0.92589065759E+02  0.99082946075E+02  0.10566000000E+00 0. -1.
         13    1    4    4    0    0 -0.23055131478E+01  0.49377320983E+00  0.21498129517E+02  0.21627296170E+02  0.10566000000E+00 0. -1.
        -13    1    4    4    0    0 -0.25513533402E+02  0.28319053556E+01  0.19720911020E+03  0.19887283471E+03  0.10566000000E+00 0.  1.
         14    1    4    4    0    0 -0.71548260023E+01  0.13124438334E+01  0.55660798480E+02  0.56134112012E+02  0.00000000000E+00 0. -1.
<mgrwt>
<rscale>  0 0.80659097E+02</rscale>
<asrwt>0</asrwt>
<pdfrwt beam="1">  1        1 0.67385251E-03 0.80659097E+02</pdfrwt>
<pdfrwt beam="2">  1       -2 0.57128807E-01 0.80659097E+02</pdfrwt>
<totfact> 0.60701774E+04</totfact>
</mgrwt>
</event>
<event>
 8    1  0.1372337E-020  0.7870981E+02  0.7818608E-02  0.1332753E+00
          1   -1    0    0  501    0  0.00000000000E+00  0.00000000000E+00  0.87718514137E+01  0.87718528616E+01  0.50400000000E-02 0. -1.
         -2   -1    0    0    0  501 -0.00000000000E+00 -0.00000000000E+00 -0.17656573422E+03  0.17656573423E+03  0.25500000000E-02 0.  1.
        -24    2    1    2    0    0 -0.35527136788E-14  0.00000000000E+00 -0.16779388280E+03  0.18533758710E+03  0.78709809329E+02 0.  0.
         66    2    3    3    0    0  0.20627166978E+02  0.11539991615E+02 -0.15797052865E+03  0.15974147656E+03  0.19999963535E+01 0.  0.
         13    1    3    3    0    0 -0.20627166978E+02 -0.11539991615E+02 -0.98233541495E+01  0.25596110540E+02  0.10566000000E+00 0. -1.
         13    1    4    4    0    0  0.30548839105E+01  0.19056998242E+01 -0.22020944807E+02  0.22313609788E+02  0.10566000000E+00 0. -1.
        -13    1    4    4    0    0  0.57549665843E+01  0.31689654822E+01 -0.49782466351E+02  0.50214212158E+02  0.10566000000E+00 0.  1.
         14    1    4    4    0    0  0.11817316483E+02  0.64653263083E+01 -0.86167117494E+02  0.87213654609E+02  0.00000000000E+00 0. -1.
<mgrwt>
<rscale>  0 0.78709809E+02</rscale>
<asrwt>0</asrwt>
<pdfrwt beam="1">  1        1 0.13495158E-02 0.78709809E+02</pdfrwt>
<pdfrwt beam="2">  1       -2 0.27163957E-01 0.78709809E+02</pdfrwt>
<totfact> 0.93107996E+04</totfact>
</mgrwt>
</event>
<event>
 8    1  0.1372337E-020  0.7928086E+02  0.7818608E-02  0.1331105E+00
          1   -1    0    0  501    0  0.00000000000E+00  0.00000000000E+00  0.97393049791E+02  0.97393049921E+02  0.50400000000E-02 0. -1.
         -2   -1    0    0    0  501 -0.00000000000E+00 -0.00000000000E+00 -0.16134248735E+02  0.16134248937E+02  0.25500000000E-02 0.  1.
        -24    2    1    2    0    0  0.71054273576E-14  0.00000000000E+00  0.81258801055E+02  0.11352729886E+03  0.79280860471E+02 0.  0.
         66    2    3    3    0    0 -0.33834329079E+02  0.96300929588E+01  0.66741230529E+02  0.75471135984E+02  0.19999999067E+01 0.  0.
         13    1    3    3    0    0  0.33834329079E+02 -0.96300929588E+01  0.14517570526E+02  0.38056162873E+02  0.10566000000E+00 0. -1.
         13    1    4    4    0    0 -0.18825941399E+02  0.58377638653E+01  0.37039174866E+02  0.41957206715E+02  0.10566000000E+00 0. -1.
        -13    1    4    4    0    0 -0.15006228288E+02  0.38280888623E+01  0.29642347281E+02  0.33444297992E+02  0.10566000000E+00 0.  1.
         14    1    4    4    0    0 -0.21593918347E-02 -0.35759768830E-01  0.59708381403E-01  0.69631277811E-01  0.00000000000E+00 0. -1.
<mgrwt>
<rscale>  0 0.79280860E+02</rscale>
<asrwt>0</asrwt>
<pdfrwt beam="1">  1        1 0.14983547E-01 0.79280860E+02</pdfrwt>
<pdfrwt beam="2">  1       -2 0.24821921E-02 0.79280860E+02</pdfrwt>
<totfact> 0.14995762E+05</totfact>
</mgrwt>
</event>
<event>
 8    1  0.1372337E-020  0.8104132E+02  0.7818608E-02  0.1326122E+00
          1   -1    0    0  501    0  0.00000000000E+00  0.00000000000E+00  0.15453394085E+03  0.15453394093E+03  0.50400000000E-02 0. -1.
         -2   -1    0    0    0  501 -0.00000000000E+00 -0.00000000000E+00 -0.10625004061E+02  0.10625004367E+02  0.25500000000E-02 0.  1.
        -24    2    1    2    0    0 -0.71054273576E-14  0.00000000000E+00  0.14390893679E+03  0.16515894530E+03  0.81041317393E+02 0.  0.
         66    2    3    3    0    0  0.36681795062E+02  0.58965505141E+01  0.39162633123E+02  0.54018841410E+02  0.19999993084E+01 0.  0.
         13    1    3    3    0    0 -0.36681795062E+02 -0.58965505141E+01  0.10474630367E+03  0.11114010389E+03  0.10566000000E+00 0. -1.
         13    1    4    4    0    0  0.24721275638E+01  0.62107985708E+00  0.30807093484E+01  0.39998861241E+01  0.10566000000E+00 0. -1.
        -13    1    4    4    0    0  0.23368247393E+02  0.40345266119E+01  0.24033936629E+02  0.33763792221E+02  0.10566000000E+00 0.  1.
        -14    1    4    4    0    0  0.10841420105E+02  0.12409440452E+01  0.12047987146E+02  0.16255163065E+02  0.00000000000E+00 0.  1.
<mgrwt>
<rscale>  0 0.81041317E+02</rscale>
<asrwt>0</asrwt>
<pdfrwt beam="1">  1        1 0.23774452E-01 0.81041317E+02</pdfrwt>
<pdfrwt beam="2">  1       -2 0.16346161E-02 0.81041317E+02</pdfrwt>
<totfact> 0.15336431E+05</totfact>
</mgrwt>
</event>
<event>
 8    1  0.1372337E-020  0.7576670E+02  0.7818608E-02  0.1341513E+00
         -2   -1    0    0    0  501 -0.00000000000E+00  0.00000000000E+00  0.11742946682E+02  0.11742946958E+02  0.25500000000E-02 0.  1.
          1   -1    0    0  501    0  0.00000000000E+00 -0.00000000000E+00 -0.12221362982E+03  0.12221362992E+03  0.50400000000E-02 0. -1.
        -24    2    1    2    0    0  0.00000000000E+00  0.35527136788E-14 -0.11047068314E+03  0.13395657688E+03  0.75766698864E+02 0.  0.
         66    2    3    3    0    0  0.92109105941E+01 -0.29663928089E+02 -0.17011279481E+02  0.35470736277E+02  0.19999997070E+01 0.  0.
         13    1    3    3    0    0 -0.92109105941E+01  0.29663928089E+02 -0.93459403655E+02  0.98485840603E+02  0.10566000000E+00 0. -1.
         13    1    4    4    0    0  0.51191156770E+01 -0.16793027948E+02 -0.95923345498E+01  0.20005878614E+02  0.10566000000E+00 0. -1.
        -13    1    4    4    0    0  0.29596808964E+01 -0.86661556740E+01 -0.43585301745E+01  0.10142480687E+02  0.10566000000E+00 0.  1.
         14    1    4    4    0    0  0.11321140207E+01 -0.42047444668E+01 -0.30604147566E+01  0.53223769755E+01  0.00000000000E+00 0. -1.
<mgrwt>
<rscale>  0 0.75766699E+02</rscale>
<asrwt>0</asrwt>
<pdfrwt beam="1">  1        1 0.18802096E-01 0.75766699E+02</pdfrwt>
<pdfrwt beam="2">  1       -2 0.18066073E-02 0.75766699E+02</pdfrwt>
<totfact> 0.17599110E+05</totfact>
</mgrwt>
</event>
<event>
 8    1  0.1372337E-020  0.7952752E+02  0.7818608E-02  0.1330398E+00
          1   -1    0    0  501    0  0.00000000000E+00  0.00000000000E+00  0.73394322454E+01  0.73394339758E+01  0.50400000000E-02 0. -1.
         -2   -1    0    0    0  501 -0.00000000000E+00 -0.00000000000E+00 -0.21543306711E+03  0.21543306713E+03  0.25500000000E-02 0.  1.
        -24    2    1    2    0    0  0.00000000000E+00 -0.88817841970E-15 -0.20809363487E+03  0.22277250111E+03  0.79527519613E+02 0.  0.
         66    2    3    3    0    0 -0.88283858414E+01  0.65754126043E+01 -0.21107190026E+03  0.21136821786E+03  0.19999986741E+01 0.  0.
         13    1    3    3    0    0  0.88283858414E+01 -0.65754126043E+01  0.29782653934E+01  0.11404283242E+02  0.10566000000E+00 0. -1.
         13    1    4    4    0    0 -0.69980481228E+01  0.58005355299E+01 -0.17899525775E+03  0.17922592544E+03  0.10566000000E+00 0. -1.
        -13    1    4    4    0    0 -0.26224637287E+00  0.18138841734E+00 -0.81856278638E+01  0.81925174689E+01  0.10566000000E+00 0.  1.
         14    1    4    4    0    0 -0.15680913457E+01  0.59348865711E+00 -0.23891014651E+02  0.23949774953E+02  0.00000000000E+00 0. -1.
<mgrwt>
<rscale>  0 0.79527520E+02</rscale>
<asrwt>0</asrwt>
<pdfrwt beam="1">  1        1 0.11291437E-02 0.79527520E+02</pdfrwt>
<pdfrwt beam="2">  1       -2 0.33143544E-01 0.79527520E+02</pdfrwt>
<totfact> 0.83751091E+04</totfact>
</mgrwt>
</event>
<event>
 8    1  0.1372337E-020  0.7922798E+02  0.7818608E-02  0.1331257E+00
          1   -1    0    0  501    0  0.00000000000E+00  0.00000000000E+00  0.29879841886E+01  0.29879884392E+01  0.50400000000E-02 0. -1.
         -2   -1    0    0    0  501 -0.00000000000E+00 -0.00000000000E+00 -0.52519256857E+03  0.52519256858E+03  0.25500000000E-02 0.  1.
        -24    2    1    2    0    0  0.00000000000E+00 -0.44408920985E-15 -0.52220458439E+03  0.52818055702E+03  0.79227980286E+02 0.  0.
         66    2    3    3    0    0  0.10443893359E+02  0.27147810349E+01 -0.51519606578E+03  0.51531294490E+03  0.20000112011E+01 0.  0.
         13    1    3    3    0    0 -0.10443893359E+02 -0.27147810349E+01 -0.70085186103E+01  0.12867612121E+02  0.10566000000E+00 0. -1.
         13    1    4    4    0    0  0.31089484589E+01  0.54178123437E+00 -0.17015050765E+03  0.17017980346E+03  0.10566000000E+00 0. -1.
        -13    1    4    4    0    0  0.65100191329E+01  0.14399006772E+01 -0.29932376119E+03  0.29939802745E+03  0.10566000000E+00 0.  1.
         14    1    4    4    0    0  0.82492576713E+00  0.73309912327E+00 -0.45721796932E+02  0.45735113989E+02  0.00000000000E+00 0. -1.
<mgrwt>
<rscale>  0 0.79227980E+02</rscale>
<asrwt>0</asrwt>
<pdfrwt beam="1">  1        1 0.45969062E-03 0.79227980E+02</pdfrwt>
<pdfrwt beam="2">  1       -2 0.80798783E-01 0.79227980E+02</pdfrwt>
<totfact> 0.49724597E+04</totfact>
</mgrwt>
</event>
<event>
 8    1  0.1372337E-020  0.7878273E+02  0.7818608E-02  0.1332542E+00
          1   -1    0    0  501    0  0.00000000000E+00  0.00000000000E+00  0.53749820875E+03  0.53749820877E+03  0.50400000000E-02 0. -1.
         -2   -1    0    0    0  501 -0.00000000000E+00 -0.00000000000E+00 -0.28868551471E+01  0.28868562733E+01  0.25500000000E-02 0.  1.
        -24    2    1    2    0    0 -0.35527136788E-14  0.35527136788E-14  0.53461135360E+03  0.54038506504E+03  0.78782733671E+02 0.  0.
         66    2    3    3    0    0 -0.20919327882E+02  0.31356904569E+02  0.34532270614E+03  0.34737968438E+03  0.20000006032E+01 0.  0.
         13    1    3    3    0    0  0.20919327882E+02 -0.31356904569E+02  0.18928864746E+03  0.19300538067E+03  0.10566000000E+00 0. -1.
         13    1    4    4    0    0 -0.16151652985E+02  0.23413559854E+02  0.26007544663E+03  0.26162629796E+03  0.10566000000E+00 0. -1.
        -13    1    4    4    0    0 -0.44678977703E+01  0.73036825487E+01  0.80451621981E+02  0.80905998125E+02  0.10566000000E+00 0.  1.
         14    1    4    4    0    0 -0.29977712714E+00  0.63966216608E+00  0.47956375203E+01  0.48473882905E+01  0.00000000000E+00 0. -1.
<mgrwt>
<rscale>  0 0.78782734E+02</rscale>
<asrwt>0</asrwt>
<pdfrwt beam="1">  1        1 0.82691990E-01 0.78782734E+02</pdfrwt>
<pdfrwt beam="2">  1       -2 0.44413188E-03 0.78782734E+02</pdfrwt>
<totfact> 0.20571219E+05</totfact>
</mgrwt>
</event>
<event>
 8    1  0.1372337E-020  0.7964048E+02  0.7818608E-02  0.1330075E+00
          1   -1    0    0  501    0  0.00000000000E+00  0.00000000000E+00  0.31590295925E+02  0.31590296327E+02  0.50400000000E-02 0. -1.
         -2   -1    0    0    0  501 -0.00000000000E+00 -0.00000000000E+00 -0.50194258045E+02  0.50194258110E+02  0.25500000000E-02 0.  1.
        -24    2    1    2    0    0  0.00000000000E+00  0.00000000000E+00 -0.18603962120E+02  0.81784554437E+02  0.79640479267E+02 0.  0.
         66    2    3    3    0    0  0.27460219491E+02 -0.25536472212E+02 -0.22988322496E+02  0.44029967332E+02  0.19999961239E+01 0.  0.
         13    1    3    3    0    0 -0.27460219491E+02  0.25536472212E+02  0.43843603763E+01  0.37754587105E+02  0.10566000000E+00 0. -1.
         13    1    4    4    0    0  0.56658435486E+01 -0.48290303122E+01 -0.49627144811E+01  0.89476821541E+01  0.10566000000E+00 0. -1.
        -13    1    4    4    0    0  0.12469364894E+02 -0.10871598663E+02 -0.99626265434E+01  0.19311701376E+02  0.10566000000E+00 0.  1.
         14    1    4    4    0    0  0.93250110486E+01 -0.98358432371E+01 -0.80629814717E+01  0.15770583802E+02  0.00000000000E+00 0. -1.
<mgrwt>
<rscale>  0 0.79640479E+02</rscale>
<asrwt>0</asrwt>
<pdfrwt beam="1">  1        1 0.48600456E-02 0.79640479E+02</pdfrwt>
<pdfrwt beam="2">  1       -2 0.77221935E-02 0.79640479E+02</pdfrwt>
<totfact> 0.12363216E+05</totfact>
</mgrwt>
</event>
<event>
 8    1  0.1372337E-020  0.7983687E+02  0.7818608E-02  0.1329515E+00
         -2   -1    0    0    0  501 -0.00000000000E+00  0.00000000000E+00  0.63609173579E+01  0.63609178690E+01  0.25500000000E-02 0.  1.
          1   -1    0    0  501    0  0.00000000000E+00 -0.00000000000E+00 -0.25051127743E+03  0.25051127748E+03  0.50400000000E-02 0. -1.
        -24    2    1    2    0    0 -0.71054273576E-14  0.00000000000E+00 -0.24415036008E+03  0.25687219535E+03  0.79836873815E+02 0.  0.
         66    2    3    3    0    0  0.39040696700E+02  0.40333777794E+01 -0.99166970118E+02  0.10667020248E+03  0.19999999548E+01 0.  0.
         13    1    3    3    0    0 -0.39040696700E+02 -0.40333777794E+01 -0.14498338996E+03  0.15020199287E+03  0.10566000000E+00 0. -1.
         13    1    4    4    0    0  0.45421952501E+01  0.66636918174E+00 -0.12994560027E+02  0.13782065880E+02  0.10566000000E+00 0. -1.
        -13    1    4    4    0    0  0.28866930907E+02  0.31116919707E+01 -0.72772791032E+02  0.78350957910E+02  0.10566000000E+00 0.  1.
         14    1    4    4    0    0  0.56315705429E+01  0.25531662698E+00 -0.13399619059E+02  0.14537178691E+02  0.00000000000E+00 0. -1.
<mgrwt>
<rscale>  0 0.79836874E+02</rscale>
<asrwt>0</asrwt>
<pdfrwt beam="1">  1        1 0.38540189E-01 0.79836874E+02</pdfrwt>
<pdfrwt beam="2">  1       -2 0.97860290E-03 0.79836874E+02</pdfrwt>
<totfact> 0.17516475E+05</totfact>
</mgrwt>
</event>
<event>
 8    1  0.1372337E-020  0.7269830E+02  0.7818608E-02  0.1351151E+00
         -2   -1    0    0    0  501 -0.00000000000E+00  0.00000000000E+00  0.10980714115E+02  0.10980714411E+02  0.25500000000E-02 0.  1.
          1   -1    0    0  501    0  0.00000000000E+00 -0.00000000000E+00 -0.12032556297E+03  0.12032556307E+03  0.50400000000E-02 0. -1.
        -24    2    1    2    0    0  0.00000000000E+00  0.00000000000E+00 -0.10934484885E+03  0.13130627748E+03  0.72698298029E+02 0.  0.
         66    2    3    3    0    0  0.31201326114E+02 -0.18582656236E+02 -0.53546021563E+02  0.64730319699E+02  0.19999997870E+01 0.  0.
         13    1    3    3    0    0 -0.31201326114E+02  0.18582656236E+02 -0.55798827289E+02  0.66575957785E+02  0.10566000000E+00 0. -1.
         13    1    4    4    0    0  0.14851931598E+01 -0.72681514226E+00 -0.21836863483E+01  0.27411145682E+01  0.10566000000E+00 0. -1.
        -13    1    4    4    0    0  0.27017158104E+02 -0.16012476748E+02 -0.45696399856E+02  0.55448159279E+02  0.10566000000E+00 0.  1.
         14    1    4    4    0    0  0.26989748508E+01 -0.18433643453E+01 -0.56659353579E+01  0.65410458517E+01  0.00000000000E+00 0. -1.
<mgrwt>
<rscale>  0 0.72698298E+02</rscale>
<asrwt>0</asrwt>
<pdfrwt beam="1">  1        1 0.18511624E-01 0.72698298E+02</pdfrwt>
<pdfrwt beam="2">  1       -2 0.16893407E-02 0.72698298E+02</pdfrwt>
<totfact> 0.19590691E+05</totfact>
</mgrwt>
</event>
<event>
 8    1  0.1372337E-020  0.7961052E+02  0.7818608E-02  0.1330160E+00
          1   -1    0    0  501    0  0.00000000000E+00  0.00000000000E+00  0.46889719923E+02  0.46889720194E+02  0.50400000000E-02 0. -1.
         -2   -1    0    0    0  501 -0.00000000000E+00 -0.00000000000E+00 -0.33791177826E+02  0.33791177922E+02  0.25500000000E-02 0.  1.
        -24    2    1    2    0    0  0.00000000000E+00 -0.17763568394E-14  0.13098542098E+02  0.80680898116E+02  0.79610523900E+02 0.  0.
         66    2    3    3    0    0  0.19397350892E+02  0.15051453393E+02 -0.25166799527E+02  0.35216065502E+02  0.20000000387E+01 0.  0.
         13    1    3    3    0    0 -0.19397350892E+02 -0.15051453393E+02  0.38265341625E+02  0.45464832613E+02  0.10566000000E+00 0. -1.
         13    1    4    4    0    0  0.29275321664E+01  0.25402627804E+01 -0.40151712320E+01  0.55817688627E+01  0.10566000000E+00 0. -1.
        -13    1    4    4    0    0  0.38556063878E+01  0.33995697917E+01 -0.61997617664E+01  0.80542526271E+01  0.10566000000E+00 0.  1.
        -14    1    4    4    0    0  0.12614212338E+02  0.91116208211E+01 -0.14951866529E+02  0.21580044013E+02  0.00000000000E+00 0.  1.
<mgrwt>
<rscale>  0 0.79610524E+02</rscale>
<asrwt>0</asrwt>
<pdfrwt beam="1">  1        1 0.72138031E-02 0.79610524E+02</pdfrwt>
<pdfrwt beam="2">  1       -2 0.51986427E-02 0.79610524E+02</pdfrwt>
<totfact> 0.13203102E+05</totfact>
</mgrwt>
</event>
<event>
 8    1  0.1372337E-020  0.8043651E+02  0.7818608E-02  0.1327817E+00
          1   -1    0    0  501    0  0.00000000000E+00  0.00000000000E+00  0.52498644648E+01  0.52498668840E+01  0.50400000000E-02 0. -1.
         -2   -1    0    0    0  501 -0.00000000000E+00 -0.00000000000E+00 -0.30810465169E+03  0.30810465170E+03  0.25500000000E-02 0.  1.
        -24    2    1    2    0    0  0.00000000000E+00  0.00000000000E+00 -0.30285478723E+03  0.31335451858E+03  0.80436510194E+02 0.  0.
         66    2    3    3    0    0  0.38992382278E+02  0.97154557978E+01 -0.14824486629E+03  0.15360773529E+03  0.20000006913E+01 0.  0.
         13    1    3    3    0    0 -0.38992382278E+02 -0.97154557978E+01 -0.15460992094E+03  0.15974678330E+03  0.10566000000E+00 0. -1.
         13    1    4    4    0    0  0.11971111393E+01  0.33671367497E+00 -0.37455688556E+01  0.39480249830E+01  0.10566000000E+00 0. -1.
        -13    1    4    4    0    0  0.14346653261E+02  0.30046189256E+01 -0.55340447710E+02  0.57248847250E+02  0.10566000000E+00 0.  1.
        -14    1    4    4    0    0  0.23448617878E+02  0.63741231972E+01 -0.89158849720E+02  0.92410863054E+02  0.00000000000E+00 0.  1.
<mgrwt>
<rscale>  0 0.80436510E+02</rscale>
<asrwt>0</asrwt>
<pdfrwt beam="1">  1        1 0.80767189E-03 0.80436510E+02</pdfrwt>
<pdfrwt beam="2">  1       -2 0.47400702E-01 0.80436510E+02</pdfrwt>
<totfact> 0.68281798E+04</totfact>
</mgrwt>
</event>
<event>
 8    1  0.1372337E-020  0.7937968E+02  0.7818608E-02  0.1330821E+00
          1   -1    0    0  501    0  0.00000000000E+00  0.00000000000E+00  0.52793212120E+03  0.52793212123E+03  0.50400000000E-02 0. -1.
         -2   -1    0    0    0  501 -0.00000000000E+00 -0.00000000000E+00 -0.29838742232E+01  0.29838753128E+01  0.25500000000E-02 0.  1.
        -24    2    1    2    0    0  0.00000000000E+00  0.00000000000E+00  0.52494824698E+03  0.53091599654E+03  0.79379678600E+02 0.  0.
         66    2    3    3    0    0 -0.24932906236E+02  0.27938717810E+02  0.35011577680E+03  0.35211827407E+03  0.20000013512E+01 0.  0.
         13    1    3    3    0    0  0.24932906236E+02 -0.27938717810E+02  0.17483247018E+03  0.17879772247E+03  0.10566000000E+00 0. -1.
         13    1    4    4    0    0 -0.54572370003E+00  0.55318947201E+00  0.60078539441E+01  0.60588205121E+01  0.10566000000E+00 0. -1.
        -13    1    4    4    0    0 -0.20571941948E+02  0.22587456829E+02  0.28243328195E+03  0.28408091791E+03  0.10566000000E+00 0.  1.
        -14    1    4    4    0    0 -0.38152405875E+01  0.47980715086E+01  0.61674640902E+02  0.61978535650E+02  0.00000000000E+00 0.  1.
<mgrwt>
<rscale>  0 0.79379679E+02</rscale>
<asrwt>0</asrwt>
<pdfrwt beam="1">  1        1 0.81220306E-01 0.79379679E+02</pdfrwt>
<pdfrwt beam="2">  1       -2 0.45905777E-03 0.79379679E+02</pdfrwt>
<totfact> 0.20132861E+05</totfact>
</mgrwt>
</event>
<event>
 8    1  0.1372337E-020  0.7993584E+02  0.7818608E-02  0.1329234E+00
          1   -1    0    0  501    0  0.00000000000E+00  0.00000000000E+00  0.15432687908E+03  0.15432687916E+03  0.50400000000E-02 0. -1.
         -2   -1    0    0    0  501 -0.00000000000E+00 -0.00000000000E+00 -0.10350980732E+02  0.10350981046E+02  0.25500000000E-02 0.  1.
        -24    2    1    2    0    0  0.35527136788E-14  0.00000000000E+00  0.14397589835E+03  0.16467786021E+03  0.79935838880E+02 0.  0.
         66    2    3    3    0    0  0.24776727269E+02  0.27792522164E+02  0.42241514625E+02  0.56344086628E+02  0.20000094295E+01 0.  0.
         13    1    3    3    0    0 -0.24776727269E+02 -0.27792522164E+02  0.10173438372E+03  0.10833377358E+03  0.10566000000E+00 0. -1.
         13    1    4    4    0    0  0.22732861508E+01  0.21587684887E+01  0.31016703864E+01  0.44113075763E+01  0.10566000000E+00 0. -1.
        -13    1    4    4    0    0  0.21532067446E+02  0.24183081728E+02  0.37370270094E+02  0.49446937431E+02  0.10566000000E+00 0.  1.
        -14    1    4    4    0    0  0.97137367253E+00  0.14506719477E+01  0.17695741445E+01  0.24858416210E+01  0.00000000000E+00 0.  1.
<mgrwt>
<rscale>  0 0.79935839E+02</rscale>
<asrwt>0</asrwt>
<pdfrwt beam="1">  1        1 0.23742594E-01 0.79935839E+02</pdfrwt>
<pdfrwt beam="2">  1       -2 0.15924588E-02 0.79935839E+02</pdfrwt>
<totfact> 0.15905785E+05</totfact>
</mgrwt>
</event>
<event>
 8    1  0.1372337E-020  0.8046507E+02  0.7818608E-02  0.1327737E+00
         -2   -1    0    0    0  501 -0.00000000000E+00  0.00000000000E+00  0.14842254522E+03  0.14842254524E+03  0.25500000000E-02 0.  1.
          1   -1    0    0  501    0  0.00000000000E+00 -0.00000000000E+00 -0.10905735101E+02  0.10905736266E+02  0.50400000000E-02 0. -1.
        -24    2    1    2    0    0  0.00000000000E+00  0.00000000000E+00  0.13751681012E+03  0.15932828151E+03  0.80465074556E+02 0.  0.
         66    2    3    3    0    0 -0.18344648457E+02 -0.23589021657E+02  0.12206797454E+03  0.12568833866E+03  0.19999996821E+01 0.  0.
         13    1    3    3    0    0  0.18344648457E+02  0.23589021657E+02  0.15448835584E+02  0.33639942846E+02  0.10566000000E+00 0. -1.
         13    1    4    4    0    0 -0.26539328430E+01 -0.32087232838E+01  0.14556552429E+02  0.15140794143E+02  0.10566000000E+00 0. -1.
        -13    1    4    4    0    0 -0.14643783209E+02 -0.19079595555E+02  0.10122223813E+03  0.10404049216E+03  0.10566000000E+00 0.  1.
        -14    1    4    4    0    0 -0.10469324053E+01 -0.13007028187E+01  0.62891839810E+01  0.65070523611E+01  0.00000000000E+00 0.  1.
<mgrwt>
<rscale>  0 0.80465075E+02</rscale>
<asrwt>0</asrwt>
<pdfrwt beam="1">  1        1 0.16778055E-02 0.80465075E+02</pdfrwt>
<pdfrwt beam="2">  1       -2 0.22834238E-01 0.80465075E+02</pdfrwt>
<totfact> 0.93433557E+04</totfact>
</mgrwt>
</event>
<event>
 8    1  0.1372337E-020  0.7610236E+02  0.7818608E-02  0.1340491E+00
          1   -1    0    0  501    0  0.00000000000E+00  0.00000000000E+00  0.21875355407E+01  0.21875413467E+01  0.50400000000E-02 0. -1.
         -2   -1    0    0    0  501 -0.00000000000E+00 -0.00000000000E+00 -0.66188197033E+03  0.66188197034E+03  0.25500000000E-02 0.  1.
        -24    2    1    2    0    0  0.00000000000E+00  0.00000000000E+00 -0.65969443479E+03  0.66406951168E+03  0.76102359050E+02 0.  0.
         66    2    3    3    0    0 -0.18645335156E+02  0.97814784441E+01 -0.60636806600E+03  0.60673681058E+03  0.20000002705E+01 0.  0.
         13    1    3    3    0    0  0.18645335156E+02 -0.97814784441E+01 -0.53326368788E+02  0.57332701103E+02  0.10566000000E+00 0. -1.
         13    1    4    4    0    0 -0.64615044962E+01  0.30406979564E+01 -0.22678610513E+03  0.22689853576E+03  0.10566000000E+00 0. -1.
        -13    1    4    4    0    0 -0.19611963477E+01  0.75232256005E+00 -0.58852912836E+02  0.58890481350E+02  0.10566000000E+00 0.  1.
        -14    1    4    4    0    0 -0.10222634312E+02  0.59884579276E+01 -0.32072904803E+03  0.32094779347E+03  0.00000000000E+00 0.  1.
<mgrwt>
<rscale>  0 0.76102359E+02</rscale>
<asrwt>0</asrwt>
<pdfrwt beam="1">  1        1 0.33654491E-03 0.76102359E+02</pdfrwt>
<pdfrwt beam="2">  1       -2 0.10182784E+00 0.76102359E+02</pdfrwt>
<totfact> 0.45332802E+04</totfact>
</mgrwt>
</event>
<event>
 8    1  0.1372337E-020  0.8119973E+02  0.7818608E-02  0.1325681E+00
         -2   -1    0    0    0  501 -0.00000000000E+00  0.00000000000E+00  0.52561156164E+02  0.52561156226E+02  0.25500000000E-02 0.  1.
          1   -1    0    0  501    0  0.00000000000E+00 -0.00000000000E+00 -0.31360596303E+02  0.31360596708E+02  0.50400000000E-02 0. -1.
        -24    2    1    2    0    0  0.00000000000E+00  0.00000000000E+00  0.21200559861E+02  0.83921752934E+02  0.81199734464E+02 0.  0.
         66    2    3    3    0    0  0.29053247369E+02 -0.18685415946E+02  0.32606604674E+02  0.47543944121E+02  0.20000006080E+01 0.  0.
         13    1    3    3    0    0 -0.29053247369E+02  0.18685415946E+02 -0.11406044813E+02  0.36377808813E+02  0.10566000000E+00 0. -1.
         13    1    4    4    0    0  0.38622092927E+01 -0.27078991313E+01  0.47613084936E+01  0.67030292355E+01  0.10566000000E+00 0. -1.
        -13    1    4    4    0    0  0.14276430269E+02 -0.85389215928E+01  0.16468716891E+02  0.23408533557E+02  0.10566000000E+00 0.  1.
         14    1    4    4    0    0  0.10914607807E+02 -0.74385952215E+01  0.11376579290E+02  0.17432381328E+02  0.00000000000E+00 0. -1.
<mgrwt>
<rscale>  0 0.81199734E+02</rscale>
<asrwt>0</asrwt>
<pdfrwt beam="1">  1        1 0.48247073E-02 0.81199734E+02</pdfrwt>
<pdfrwt beam="2">  1       -2 0.80863316E-02 0.81199734E+02</pdfrwt>
<totfact> 0.11679770E+05</totfact>
</mgrwt>
</event>
<event>
 8    1  0.1372337E-020  0.7769332E+02  0.7818608E-02  0.1335728E+00
          1   -1    0    0  501    0  0.00000000000E+00  0.00000000000E+00  0.93922364108E+01  0.93922377631E+01  0.50400000000E-02 0. -1.
         -2   -1    0    0    0  501 -0.00000000000E+00 -0.00000000000E+00 -0.16067131262E+03  0.16067131264E+03  0.25500000000E-02 0.  1.
        -24    2    1    2    0    0  0.00000000000E+00  0.00000000000E+00 -0.15127907621E+03  0.17006355041E+03  0.77693321960E+02 0.  0.
         66    2    3    3    0    0 -0.17376484106E+02  0.34675409968E+02 -0.79307453158E+02  0.88306275834E+02  0.19999922402E+01 0.  0.
         13    1    3    3    0    0  0.17376484106E+02 -0.34675409968E+02 -0.71971623054E+02  0.81757274572E+02  0.10566000000E+00 0. -1.
         13    1    4    4    0    0 -0.34808335553E+01  0.70094892177E+01 -0.14616358568E+02  0.16580055583E+02  0.10566000000E+00 0. -1.
        -13    1    4    4    0    0 -0.42553554073E+01  0.95704445670E+01 -0.21525116767E+02  0.23938322304E+02  0.10566000000E+00 0.  1.
         14    1    4    4    0    0 -0.96402951434E+01  0.18095476184E+02 -0.43165977823E+02  0.47787897947E+02  0.00000000000E+00 0. -1.
<mgrwt>
<rscale>  0 0.77693322E+02</rscale>
<asrwt>0</asrwt>
<pdfrwt beam="1">  1        1 0.14449597E-02 0.77693322E+02</pdfrwt>
<pdfrwt beam="2">  1       -2 0.24718662E-01 0.77693322E+02</pdfrwt>
<totfact> 0.99568823E+04</totfact>
</mgrwt>
</event>
<event>
 8    1  0.1372337E-020  0.7911928E+02  0.7818608E-02  0.1331570E+00
         -2   -1    0    0    0  501 -0.00000000000E+00  0.00000000000E+00  0.42023096813E+03  0.42023096814E+03  0.25500000000E-02 0.  1.
          1   -1    0    0  501    0  0.00000000000E+00 -0.00000000000E+00 -0.37240574798E+01  0.37240608902E+01  0.50400000000E-02 0. -1.
        -24    2    1    2    0    0  0.00000000000E+00  0.00000000000E+00  0.41650691065E+03  0.42395502903E+03  0.79119277163E+02 0.  0.
         66    2    3    3    0    0 -0.18037668012E+02 -0.13851629328E+02  0.38166609789E+03  0.38234831683E+03  0.19999999886E+01 0.  0.
         13    1    3    3    0    0  0.18037668012E+02  0.13851629328E+02  0.34840812765E+02  0.41606712205E+02  0.10566000000E+00 0. -1.
         13    1    4    4    0    0 -0.60639369383E+01 -0.49828928543E+01  0.14398681983E+03  0.14420061026E+03  0.10566000000E+00 0. -1.
        -13    1    4    4    0    0 -0.44004939431E+00 -0.27938688778E+00  0.10853421409E+02  0.10866444718E+02  0.10566000000E+00 0.  1.
        -14    1    4    4    0    0 -0.11533681679E+02 -0.85893495862E+01  0.22682585665E+03  0.22728126184E+03  0.00000000000E+00 0.  1.
<mgrwt>
<rscale>  0 0.79119277E+02</rscale>
<asrwt>0</asrwt>
<pdfrwt beam="1">  1        1 0.57293223E-03 0.79119277E+02</pdfrwt>
<pdfrwt beam="2">  1       -2 0.64650913E-01 0.79119277E+02</pdfrwt>
<totfact> 0.58818979E+04</totfact>
</mgrwt>
</event>
<event>
 8    1  0.1372337E-020  0.7925729E+02  0.7818608E-02  0.1331172E+00
         -2   -1    0    0    0  501 -0.00000000000E+00  0.00000000000E+00  0.11226316693E+02  0.11226316982E+02  0.25500000000E-02 0.  1.
          1   -1    0    0  501    0  0.00000000000E+00 -0.00000000000E+00 -0.13988823615E+03  0.13988823624E+03  0.50400000000E-02 0. -1.
        -24    2    1    2    0    0  0.00000000000E+00  0.00000000000E+00 -0.12866191946E+03  0.15111455322E+03  0.79257294159E+02 0.  0.
         66    2    3    3    0    0  0.33204296302E+01  0.35338857866E+02 -0.30879885142E+02  0.47089568113E+02  0.19999976260E+01 0.  0.
         13    1    3    3    0    0 -0.33204296302E+01 -0.35338857866E+02 -0.97782034317E+02  0.10402498511E+03  0.10566000000E+00 0. -1.
         13    1    4    4    0    0  0.18199815208E+00  0.11179437069E+02 -0.10040095864E+02  0.15027562195E+02  0.10566000000E+00 0. -1.
        -13    1    4    4    0    0  0.24907575797E+01  0.17941063704E+02 -0.15475826714E+02  0.23824315660E+02  0.10566000000E+00 0.  1.
        -14    1    4    4    0    0  0.64767389837E+00  0.62183570926E+01 -0.53639625644E+01  0.82376902590E+01  0.00000000000E+00 0.  1.
<mgrwt>
<rscale>  0 0.79257294E+02</rscale>
<asrwt>0</asrwt>
<pdfrwt beam="1">  1        1 0.21521266E-01 0.79257294E+02</pdfrwt>
<pdfrwt beam="2">  1       -2 0.17271258E-02 0.79257294E+02</pdfrwt>
<totfact> 0.15981704E+05</totfact>
</mgrwt>
</event>
<event>
 8    1  0.1372337E-020  0.7912711E+02  0.7818608E-02  0.1331547E+00
          1   -1    0    0  501    0  0.00000000000E+00  0.00000000000E+00  0.63565007267E+01  0.63565027248E+01  0.50400000000E-02 0. -1.
         -2   -1    0    0    0  501 -0.00000000000E+00 -0.00000000000E+00 -0.24624783926E+03  0.24624783928E+03  0.25500000000E-02 0.  1.
        -24    2    1    2    0    0  0.35527136788E-14 -0.35527136788E-14 -0.23989133854E+03  0.25260434200E+03  0.79127108458E+02 0.  0.
         66    2    3    3    0    0 -0.22699184479E+02  0.18720630719E+02 -0.20433705763E+03  0.20645422775E+03  0.20000110733E+01 0.  0.
         13    1    3    3    0    0  0.22699184479E+02 -0.18720630719E+02 -0.35554280902E+02  0.46150114247E+02  0.10566000000E+00 0. -1.
         13    1    4    4    0    0 -0.11324661501E+02  0.88512043861E+01 -0.94178075210E+02  0.95268634878E+02  0.10566000000E+00 0. -1.
        -13    1    4    4    0    0 -0.95493149631E+01  0.80062944534E+01 -0.90090476205E+02  0.90948310781E+02  0.10566000000E+00 0.  1.
         14    1    4    4    0    0 -0.18252080150E+01  0.18631318793E+01 -0.20068506218E+02  0.20237282093E+02  0.00000000000E+00 0. -1.
<mgrwt>
<rscale>  0 0.79127108E+02</rscale>
<asrwt>0</asrwt>
<pdfrwt beam="1">  1        1 0.97792354E-03 0.79127108E+02</pdfrwt>
<pdfrwt beam="2">  1       -2 0.37884276E-01 0.79127108E+02</pdfrwt>
<totfact> 0.79901230E+04</totfact>
</mgrwt>
</event>
<event>
 8    1  0.1372337E-020  0.8015655E+02  0.7818608E-02  0.1328608E+00
          1   -1    0    0  501    0  0.00000000000E+00  0.00000000000E+00  0.15919331160E+02  0.15919331958E+02  0.50400000000E-02 0. -1.
         -2   -1    0    0    0  501 -0.00000000000E+00 -0.00000000000E+00 -0.10090048764E+03  0.10090048767E+03  0.25500000000E-02 0.  1.
        -24    2    1    2    0    0  0.00000000000E+00 -0.17763568394E-14 -0.84981156475E+02  0.11681981963E+03  0.80156554950E+02 0.  0.
         66    2    3    3    0    0 -0.31910683382E+02  0.11104853970E+02 -0.73864650516E+02  0.81250206690E+02  0.19999989174E+01 0.  0.
         13    1    3    3    0    0  0.31910683382E+02 -0.11104853970E+02 -0.11116505959E+02  0.35569612936E+02  0.10566000000E+00 0. -1.
         13    1    4    4    0    0 -0.48963458208E+01  0.11634791360E+01 -0.11040136963E+02  0.12133576319E+02  0.10566000000E+00 0. -1.
        -13    1    4    4    0    0 -0.12272440400E+02  0.41622951012E+01 -0.27021324835E+02  0.29968327510E+02  0.10566000000E+00 0.  1.
         14    1    4    4    0    0 -0.14741897161E+02  0.57790797332E+01 -0.35803188718E+02  0.39148302861E+02  0.00000000000E+00 0. -1.
<mgrwt>
<rscale>  0 0.80156555E+02</rscale>
<asrwt>0</asrwt>
<pdfrwt beam="1">  1        1 0.24491280E-02 0.80156555E+02</pdfrwt>
<pdfrwt beam="2">  1       -2 0.15523151E-01 0.80156555E+02</pdfrwt>
<totfact> 0.10536249E+05</totfact>
</mgrwt>
</event>
<event>
 8    1  0.1372337E-020  0.7528701E+02  0.7818608E-02  0.1342985E+00
         -2   -1    0    0    0  501 -0.00000000000E+00  0.00000000000E+00  0.18415741566E+03  0.18415741568E+03  0.25500000000E-02 0.  1.
          1   -1    0    0  501    0  0.00000000000E+00 -0.00000000000E+00 -0.76946840890E+01  0.76946857395E+01  0.50400000000E-02 0. -1.
        -24    2    1    2    0    0  0.00000000000E+00  0.00000000000E+00  0.17646273157E+03  0.19185210142E+03  0.75287005417E+02 0.  0.
         66    2    3    3    0    0 -0.21550028375E+02 -0.30143361869E+02  0.71778260663E+02  0.80803123029E+02  0.19999999169E+01 0.  0.
         13    1    3    3    0    0  0.21550028375E+02  0.30143361869E+02  0.10468447091E+03  0.11104897839E+03  0.10566000000E+00 0. -1.
         13    1    4    4    0    0 -0.16263958852E+01 -0.24380080905E+01  0.61228506047E+01  0.67889255841E+01  0.10566000000E+00 0. -1.
        -13    1    4    4    0    0 -0.10784095928E+01 -0.94596070219E+00  0.28484308861E+01  0.31910079048E+01  0.10566000000E+00 0.  1.
        -14    1    4    4    0    0 -0.18845222897E+02 -0.26759393077E+02  0.62806979172E+02  0.70823189540E+02  0.00000000000E+00 0.  1.
<mgrwt>
<rscale>  0 0.75287005E+02</rscale>
<asrwt>0</asrwt>
<pdfrwt beam="1">  1        1 0.11837976E-02 0.75287005E+02</pdfrwt>
<pdfrwt beam="2">  1       -2 0.28331911E-01 0.75287005E+02</pdfrwt>
<totfact> 0.10274750E+05</totfact>
</mgrwt>
</event>
<event>
 8    1  0.1372337E-020  0.8082102E+02  0.7818608E-02  0.1326738E+00
          1   -1    0    0  501    0  0.00000000000E+00  0.00000000000E+00  0.10713558350E+03  0.10713558362E+03  0.50400000000E-02 0. -1.
         -2   -1    0    0    0  501 -0.00000000000E+00 -0.00000000000E+00 -0.15242453369E+02  0.15242453582E+02  0.25500000000E-02 0.  1.
        -24    2    1    2    0    0  0.00000000000E+00  0.00000000000E+00  0.91893130135E+02  0.12237803720E+03  0.80821015979E+02 0.  0.
         66    2    3    3    0    0 -0.33540933315E+02  0.13597746926E+02  0.18841052331E+02  0.40851905414E+02  0.19999984690E+01 0.  0.
         13    1    3    3    0    0  0.33540933315E+02 -0.13597746926E+02  0.73052077805E+02  0.81526131791E+02  0.10566000000E+00 0. -1.
         13    1    4    4    0    0 -0.99224983608E+01  0.49253131574E+01  0.60795080304E+01  0.12636703104E+02  0.10566000000E+00 0. -1.
        -13    1    4    4    0    0 -0.10967549587E+02  0.41804501799E+01  0.57834530523E+01  0.13085213063E+02  0.10566000000E+00 0.  1.
         14    1    4    4    0    0 -0.12650885368E+02  0.44919835885E+01  0.69780912479E+01  0.15129989247E+02  0.00000000000E+00 0. -1.
<mgrwt>
<rscale>  0 0.80821016E+02</rscale>
<asrwt>0</asrwt>
<pdfrwt beam="1">  1        1 0.16482398E-01 0.80821016E+02</pdfrwt>
<pdfrwt beam="2">  1       -2 0.23449928E-02 0.80821016E+02</pdfrwt>
<totfact> 0.14467629E+05</totfact>
</mgrwt>
</event>
<event>
 8    1  0.1372337E-020  0.8039610E+02  0.7818608E-02  0.1327931E+00
          1   -1    0    0  501    0  0.00000000000E+00  0.00000000000E+00  0.17159392501E+01  0.17159466518E+01  0.50400000000E-02 0. -1.
         -2   -1    0    0    0  501 -0.00000000000E+00 -0.00000000000E+00 -0.94168811682E+03  0.94168811682E+03  0.25500000000E-02 0.  1.
        -24    2    1    2    0    0  0.35527136788E-14  0.22204460493E-15 -0.93997217757E+03  0.94340406348E+03  0.80396096772E+02 0.  0.
         66    2    3    3    0    0 -0.23268020540E+02  0.16435556379E+01 -0.85407988491E+03  0.85440069748E+03  0.20000005932E+01 0.  0.
         13    1    3    3    0    0  0.23268020540E+02 -0.16435556379E+01 -0.85892292665E+02  0.89003365994E+02  0.10566000000E+00 0. -1.
         13    1    4    4    0    0 -0.14929805810E+02  0.86669795656E+00 -0.52765249924E+03  0.52786439678E+03  0.10566000000E+00 0. -1.
        -13    1    4    4    0    0 -0.30497915826E+01  0.50778089161E+00 -0.10469668726E+03  0.10474238186E+03  0.10566000000E+00 0.  1.
         14    1    4    4    0    0 -0.52884231469E+01  0.26907678976E+00 -0.22173069840E+03  0.22179391885E+03  0.00000000000E+00 0. -1.
<mgrwt>
<rscale>  0 0.80396097E+02</rscale>
<asrwt>0</asrwt>
<pdfrwt beam="1">  1        1 0.26399198E-03 0.80396097E+02</pdfrwt>
<pdfrwt beam="2">  1       -2 0.14487468E+00 0.80396097E+02</pdfrwt>
<totfact> 0.27574883E+04</totfact>
</mgrwt>
</event>
<event>
 8    1  0.1372337E-020  0.7975435E+02  0.7818608E-02  0.1329750E+00
         -2   -1    0    0    0  501 -0.00000000000E+00  0.00000000000E+00  0.11177578502E+03  0.11177578505E+03  0.25500000000E-02 0.  1.
          1   -1    0    0  501    0  0.00000000000E+00 -0.00000000000E+00 -0.14226597126E+02  0.14226598019E+02  0.50400000000E-02 0. -1.
        -24    2    1    2    0    0  0.00000000000E+00  0.00000000000E+00  0.97549187898E+02  0.12600238307E+03  0.79754350856E+02 0.  0.
         66    2    3    3    0    0 -0.22189613904E+02 -0.15408938835E+02  0.95092452892E+02  0.98875623735E+02  0.20000026709E+01 0.  0.
         13    1    3    3    0    0  0.22189613904E+02  0.15408938835E+02  0.24567350052E+01  0.27126759337E+02  0.10566000000E+00 0. -1.
         13    1    4    4    0    0 -0.69936911592E+01 -0.44040941793E+01  0.30975657446E+02  0.32059480342E+02  0.10566000000E+00 0. -1.
        -13    1    4    4    0    0 -0.66670504344E+01 -0.41132158744E+01  0.26607547097E+02  0.27736993941E+02  0.10566000000E+00 0.  1.
        -14    1    4    4    0    0 -0.85288723104E+01 -0.68916287811E+01  0.37509248349E+02  0.39079149452E+02  0.00000000000E+00 0.  1.
<mgrwt>
<rscale>  0 0.79754351E+02</rscale>
<asrwt>0</asrwt>
<pdfrwt beam="1">  1        1 0.21887072E-02 0.79754351E+02</pdfrwt>
<pdfrwt beam="2">  1       -2 0.17196275E-01 0.79754351E+02</pdfrwt>
<totfact> 0.10394515E+05</totfact>
</mgrwt>
</event>
<event>
 8    1  0.1372337E-020  0.7601924E+02  0.7818608E-02  0.1340744E+00
         -2   -1    0    0    0  501 -0.00000000000E+00  0.00000000000E+00  0.27531639300E+01  0.27531651109E+01  0.25500000000E-02 0.  1.
          1   -1    0    0  501    0  0.00000000000E+00 -0.00000000000E+00 -0.52475288549E+03  0.52475288551E+03  0.50400000000E-02 0. -1.
        -24    2    1    2    0    0 -0.86736173799E-18  0.00000000000E+00 -0.52199972156E+03  0.52750605062E+03  0.76019235311E+02 0.  0.
         66    2    3    3    0    0  0.43982425217E-02  0.37460134634E+02 -0.30477202160E+03  0.30707205483E+03  0.20000010367E+01 0.  0.
         13    1    3    3    0    0 -0.43982425217E-02 -0.37460134634E+02 -0.21722769996E+03  0.22043399579E+03  0.10566000000E+00 0. -1.
         13    1    4    4    0    0 -0.13203766431E+00  0.10150333221E+02 -0.79162673906E+02  0.79810944127E+02  0.10566000000E+00 0. -1.
        -13    1    4    4    0    0  0.32803400557E+00  0.16484705129E+02 -0.13049310798E+03  0.13153066374E+03  0.10566000000E+00 0.  1.
        -14    1    4    4    0    0 -0.19159809874E+00  0.10825096285E+02 -0.95116239713E+02  0.95730446967E+02  0.00000000000E+00 0.  1.
<mgrwt>
<rscale>  0 0.76019235E+02</rscale>
<asrwt>0</asrwt>
<pdfrwt beam="1">  1        1 0.80731134E-01 0.76019235E+02</pdfrwt>
<pdfrwt beam="2">  1       -2 0.42356419E-03 0.76019235E+02</pdfrwt>
<totfact> 0.22526230E+05</totfact>
</mgrwt>
</event>
<event>
 8    1  0.1372337E-020  0.8019411E+02  0.7818608E-02  0.1328501E+00
         -2   -1    0    0    0  501 -0.00000000000E+00  0.00000000000E+00  0.58772387602E+02  0.58772387657E+02  0.25500000000E-02 0.  1.
          1   -1    0    0  501    0  0.00000000000E+00 -0.00000000000E+00 -0.27355936144E+02  0.27355936609E+02  0.50400000000E-02 0. -1.
        -24    2    1    2    0    0  0.00000000000E+00  0.00000000000E+00  0.31416451458E+02  0.86128324266E+02  0.80194107132E+02 0.  0.
         66    2    3    3    0    0  0.28955461514E+02 -0.27444225297E+02  0.19760040063E+02  0.44565271632E+02  0.19999996856E+01 0.  0.
         13    1    3    3    0    0 -0.28955461514E+02  0.27444225297E+02  0.11656411394E+02  0.41563052634E+02  0.10566000000E+00 0. -1.
         13    1    4    4    0    0  0.91934528875E+01 -0.88619109542E+01  0.69309978370E+01  0.14529381845E+02  0.10566000000E+00 0.  1.
        -13    1    4    4    0    0  0.17331214880E+02 -0.16856435664E+02  0.11385760167E+02  0.26723718513E+02  0.10566000000E+00 0. -1.
         14    1    4    4    0    0  0.24307937457E+01 -0.17258786783E+01  0.14432820593E+01  0.33121712741E+01  0.00000000000E+00 0. -1.
<mgrwt>
<rscale>  0 0.80194107E+02</rscale>
<asrwt>0</asrwt>
<pdfrwt beam="1">  1        1 0.42086056E-02 0.80194107E+02</pdfrwt>
<pdfrwt beam="2">  1       -2 0.90419058E-02 0.80194107E+02</pdfrwt>
<totfact> 0.11811896E+05</totfact>
</mgrwt>
</event>
<event>
 8    1  0.1372337E-020  0.7642341E+02  0.7818608E-02  0.1339519E+00
          1   -1    0    0  501    0  0.00000000000E+00  0.00000000000E+00  0.33237328864E+02  0.33237329246E+02  0.50400000000E-02 0. -1.
         -2   -1    0    0    0  501 -0.00000000000E+00 -0.00000000000E+00 -0.43930555153E+02  0.43930555227E+02  0.25500000000E-02 0.  1.
        -24    2    1    2    0    0  0.17763568394E-14 -0.17763568394E-14 -0.10693226290E+02  0.77167884473E+02  0.76423408100E+02 0.  0.
         66    2    3    3    0    0  0.15741044414E+02 -0.15020770719E+02 -0.37036289753E+02  0.43001055693E+02  0.19999999553E+01 0.  0.
         13    1    3    3    0    0 -0.15741044414E+02  0.15020770719E+02  0.26343063463E+02  0.34166828780E+02  0.10566000000E+00 0. -1.
         13    1    4    4    0    0  0.10585703185E+01 -0.16719390089E+01 -0.28930433569E+01  0.35066814895E+01  0.10566000000E+00 0.  1.
        -13    1    4    4    0    0  0.70143225777E+01 -0.66241086411E+01 -0.16251553566E+02  0.18899833170E+02  0.10566000000E+00 0.  1.
         14    1    4    4    0    0  0.76681515177E+01 -0.67247230693E+01 -0.17891692830E+02  0.20594541033E+02  0.00000000000E+00 0. -1.
<mgrwt>
<rscale>  0 0.76423408E+02</rscale>
<asrwt>0</asrwt>
<pdfrwt beam="1">  1        1 0.51134353E-02 0.76423408E+02</pdfrwt>
<pdfrwt beam="2">  1       -2 0.67585470E-02 0.76423408E+02</pdfrwt>
<totfact> 0.14019556E+05</totfact>
</mgrwt>
</event>
<event>
 8    1  0.1372337E-020  0.7913018E+02  0.7818608E-02  0.1331538E+00
          1   -1    0    0  501    0  0.00000000000E+00  0.00000000000E+00  0.79637668189E+01  0.79637684137E+01  0.50400000000E-02 0. -1.
         -2   -1    0    0    0  501 -0.00000000000E+00 -0.00000000000E+00 -0.19656477431E+03  0.19656477433E+03  0.25500000000E-02 0.  1.
        -24    2    1    2    0    0  0.11102230246E-15  0.00000000000E+00 -0.18860100749E+03  0.20452854274E+03  0.79130176095E+02 0.  0.
         66    2    3    3    0    0  0.86890262527E+00  0.39482891521E+02 -0.89363633554E+02  0.97721608206E+02  0.19999984288E+01 0.  0.
         13    1    3    3    0    0 -0.86890262527E+00 -0.39482891521E+02 -0.99237373939E+02  0.10680693454E+03  0.10566000000E+00 0. -1.
         13    1    4    4    0    0  0.62696352343E+00  0.20835467004E+02 -0.47384370170E+02  0.51766779589E+02  0.10566000000E+00 0.  1.
        -13    1    4    4    0    0  0.53863737482E+00  0.58061138817E+01 -0.14123505262E+02  0.15280237352E+02  0.10566000000E+00 0. -1.
         14    1    4    4    0    0 -0.29669827299E+00  0.12841310636E+02 -0.27855758122E+02  0.30674591265E+02  0.00000000000E+00 0. -1.
<mgrwt>
<rscale>  0 0.79130176E+02</rscale>
<asrwt>0</asrwt>
<pdfrwt beam="1">  1        1 0.12251952E-02 0.79130176E+02</pdfrwt>
<pdfrwt beam="2">  1       -2 0.30240731E-01 0.79130176E+02</pdfrwt>
<totfact> 0.88121611E+04</totfact>
</mgrwt>
</event>
<event>
 8    1  0.1372337E-020  0.8675181E+02  0.7818608E-02  0.1310914E+00
         -2   -1    0    0    0  501 -0.00000000000E+00  0.00000000000E+00  0.85656303349E+01  0.85656307144E+01  0.25500000000E-02 0.  1.
          1   -1    0    0  501    0  0.00000000000E+00 -0.00000000000E+00 -0.21965329863E+03  0.21965329868E+03  0.50400000000E-02 0. -1.
        -24    2    1    2    0    0  0.17763568394E-14  0.35527136788E-14 -0.21108766829E+03  0.22821892940E+03  0.86751807077E+02 0.  0.
         66    2    3    3    0    0 -0.11789661323E+02 -0.30743660560E+02 -0.31411151221E+02  0.45550292984E+02  0.19999977930E+01 0.  0.
         13    1    3    3    0    0  0.11789661323E+02  0.30743660560E+02 -0.17967651707E+03  0.18266863641E+03  0.10566000000E+00 0. -1.
         13    1    4    4    0    0 -0.11028342774E+01 -0.27372159186E+01 -0.24618342138E+01  0.38445267798E+01  0.10566000000E+00 0. -1.
        -13    1    4    4    0    0 -0.62814446794E+01 -0.18428181727E+02 -0.18279339229E+02  0.26705801537E+02  0.10566000000E+00 0.  1.
        -14    1    4    4    0    0 -0.44053823662E+01 -0.95782629145E+01 -0.10669977778E+02  0.14999964667E+02  0.00000000000E+00 0.  1.
<mgrwt>
<rscale>  0 0.86751807E+02</rscale>
<asrwt>0</asrwt>
<pdfrwt beam="1">  1        1 0.33792811E-01 0.86751807E+02</pdfrwt>
<pdfrwt beam="2">  1       -2 0.13177895E-02 0.86751807E+02</pdfrwt>
<totfact> 0.13686413E+05</totfact>
</mgrwt>
</event>
<event>
 8    1  0.1372337E-020  0.7912850E+02  0.7818608E-02  0.1331543E+00
         -2   -1    0    0    0  501 -0.00000000000E+00  0.00000000000E+00  0.91014516541E+02  0.91014516576E+02  0.25500000000E-02 0.  1.
          1   -1    0    0  501    0  0.00000000000E+00 -0.00000000000E+00 -0.17198682575E+02  0.17198683313E+02  0.50400000000E-02 0. -1.
        -24    2    1    2    0    0  0.00000000000E+00 -0.35527136788E-14  0.73815833966E+02  0.10821319989E+03  0.79128498572E+02 0.  0.
         66    2    3    3    0    0 -0.20481007843E+02 -0.22500839592E+02  0.71462471978E+02  0.77695845134E+02  0.19999963101E+01 0.  0.
         13    1    3    3    0    0  0.20481007843E+02  0.22500839592E+02  0.23533619877E+01  0.30517354756E+02  0.10566000000E+00 0. -1.
         13    1    4    4    0    0 -0.75672228231E+01 -0.77919522441E+01  0.27335398563E+02  0.29414495740E+02  0.10566000000E+00 0. -1.
        -13    1    4    4    0    0 -0.10628149979E+02 -0.12403015567E+02  0.37427672953E+02  0.40836677557E+02  0.10566000000E+00 0.  1.
         14    1    4    4    0    0 -0.22856350414E+01 -0.23058717813E+01  0.66994004614E+01  0.74446718367E+01  0.00000000000E+00 0. -1.
<mgrwt>
<rscale>  0 0.79128499E+02</rscale>
<asrwt>0</asrwt>
<pdfrwt beam="1">  1        1 0.26459512E-02 0.79128499E+02</pdfrwt>
<pdfrwt beam="2">  1       -2 0.14002233E-01 0.79128499E+02</pdfrwt>
<totfact> 0.11164484E+05</totfact>
</mgrwt>
</event>
<event>
 8    1  0.1372337E-020  0.7871237E+02  0.7818608E-02  0.1332746E+00
         -2   -1    0    0    0  501 -0.00000000000E+00  0.00000000000E+00  0.44452892288E+03  0.44452892289E+03  0.25500000000E-02 0.  1.
          1   -1    0    0  501    0  0.00000000000E+00 -0.00000000000E+00 -0.34843817072E+01  0.34843853522E+01  0.50400000000E-02 0. -1.
        -24    2    1    2    0    0  0.00000000000E+00  0.00000000000E+00  0.44104454118E+03  0.44801330824E+03  0.78712369177E+02 0.  0.
         66    2    3    3    0    0 -0.28891694822E+02  0.25614251713E+02  0.26328970436E+03  0.26611329973E+03  0.19999880436E+01 0.  0.
         13    1    3    3    0    0  0.28891694822E+02 -0.25614251713E+02  0.17775483682E+03  0.18190000852E+03  0.10566000000E+00 0. -1.
         13    1    4    4    0    0 -0.13112607580E+02  0.12209047160E+02  0.11926659799E+03  0.12060486669E+03  0.10566000000E+00 0. -1.
        -13    1    4    4    0    0 -0.13866929107E+02  0.11280448244E+02  0.12502447939E+03  0.12629596924E+03  0.10566000000E+00 0.  1.
        -14    1    4    4    0    0 -0.19121581349E+01  0.21247563088E+01  0.18998626979E+02  0.19212463798E+02  0.00000000000E+00 0.  1.
<mgrwt>
<rscale>  0 0.78712369E+02</rscale>
<asrwt>0</asrwt>
<pdfrwt beam="1">  1        1 0.53605922E-03 0.78712369E+02</pdfrwt>
<pdfrwt beam="2">  1       -2 0.68389039E-01 0.78712369E+02</pdfrwt>
<totfact> 0.57313555E+04</totfact>
</mgrwt>
</event>
<event>
 8    1  0.1372337E-020  0.8074571E+02  0.7818608E-02  0.1326948E+00
          1   -1    0    0  501    0  0.00000000000E+00  0.00000000000E+00  0.21060452707E+03  0.21060452713E+03  0.50400000000E-02 0. -1.
         -2   -1    0    0    0  501 -0.00000000000E+00 -0.00000000000E+00 -0.77394695858E+01  0.77394700059E+01  0.25500000000E-02 0.  1.
        -24    2    1    2    0    0  0.00000000000E+00 -0.71054273576E-14  0.20286505748E+03  0.21834399714E+03  0.80745709095E+02 0.  0.
         66    2    3    3    0    0  0.43699035649E+01  0.29041475672E+02  0.26680600685E+02  0.39728551701E+02  0.20000002417E+01 0.  0.
         13    1    3    3    0    0 -0.43699035649E+01 -0.29041475672E+02  0.17618445680E+03  0.17861544543E+03  0.10566000000E+00 0. -1.
         13    1    4    4    0    0  0.53784962407E-01  0.17206928222E+01  0.16561211010E+01  0.23911456977E+01  0.10566000000E+00 0. -1.
        -13    1    4    4    0    0  0.36849533111E+00  0.45113840455E+01  0.48003404501E+01  0.65986973933E+01  0.10566000000E+00 0.  1.
        -14    1    4    4    0    0  0.39476232714E+01  0.22809398804E+02  0.20224139134E+02  0.30738708610E+02  0.00000000000E+00 0.  1.
<mgrwt>
<rscale>  0 0.80745709E+02</rscale>
<asrwt>0</asrwt>
<pdfrwt beam="1">  1        1 0.32400700E-01 0.80745709E+02</pdfrwt>
<pdfrwt beam="2">  1       -2 0.11906875E-02 0.80745709E+02</pdfrwt>
<totfact> 0.16432665E+05</totfact>
</mgrwt>
</event>
<event>
 8    1  0.1372337E-020  0.8038008E+02  0.7818608E-02  0.1327976E+00
          1   -1    0    0  501    0  0.00000000000E+00  0.00000000000E+00  0.34145066423E+03  0.34145066427E+03  0.50400000000E-02 0. -1.
         -2   -1    0    0    0  501 -0.00000000000E+00 -0.00000000000E+00 -0.47305195048E+01  0.47305201921E+01  0.25500000000E-02 0.  1.
        -24    2    1    2    0    0  0.35527136788E-14  0.00000000000E+00  0.33672014473E+03  0.34618118446E+03  0.80380075951E+02 0.  0.
         66    2    3    3    0    0  0.20811073863E+02  0.31982841390E+02  0.11446019447E+03  0.12066954487E+03  0.20000005941E+01 0.  0.
         13    1    3    3    0    0 -0.20811073863E+02 -0.31982841390E+02  0.22225995025E+03  0.22551163959E+03  0.10566000000E+00 0. -1.
         13    1    4    4    0    0  0.23599459155E+01  0.31155862532E+01  0.11195945412E+02  0.11859029477E+02  0.10566000000E+00 0. -1.
        -13    1    4    4    0    0  0.84682420790E+01  0.14095016717E+02  0.47539536935E+02  0.50303075017E+02  0.10566000000E+00 0.  1.
         14    1    4    4    0    0  0.99828858686E+01  0.14772238420E+02  0.55724712128E+02  0.58507440381E+02  0.00000000000E+00 0. -1.
<mgrwt>
<rscale>  0 0.80380076E+02</rscale>
<asrwt>0</asrwt>
<pdfrwt beam="1">  1        1 0.52530876E-01 0.80380076E+02</pdfrwt>
<pdfrwt beam="2">  1       -2 0.72777223E-03 0.80380076E+02</pdfrwt>
<totfact> 0.18251951E+05</totfact>
</mgrwt>
</event>
<event>
 8    1  0.1372337E-020  0.7789996E+02  0.7818608E-02  0.1335119E+00
         -2   -1    0    0    0  501 -0.00000000000E+00  0.00000000000E+00  0.50419638097E+01  0.50419644546E+01  0.25500000000E-02 0.  1.
          1   -1    0    0  501    0  0.00000000000E+00 -0.00000000000E+00 -0.30089486547E+03  0.30089486551E+03  0.50400000000E-02 0. -1.
        -24    2    1    2    0    0  0.00000000000E+00  0.00000000000E+00 -0.29585290166E+03  0.30593682997E+03  0.77899964758E+02 0.  0.
         66    2    3    3    0    0  0.30052360321E+02  0.22214239141E+02 -0.10527566891E+03  0.11172995679E+03  0.19999997265E+01 0.  0.
         13    1    3    3    0    0 -0.30052360321E+02 -0.22214239141E+02 -0.19057723275E+03  0.19420687318E+03  0.10566000000E+00 0. -1.
         13    1    4    4    0    0  0.23921185517E+02  0.17176396014E+02 -0.82577689663E+02  0.87671761079E+02  0.10566000000E+00 0. -1.
        -13    1    4    4    0    0  0.58532641351E+01  0.45971908719E+01 -0.21492177320E+02  0.22744663439E+02  0.10566000000E+00 0.  1.
         14    1    4    4    0    0  0.27791066856E+00  0.44065225483E+00 -0.12058019268E+01  0.13135322745E+01  0.00000000000E+00 0. -1.
<mgrwt>
<rscale>  0 0.77899965E+02</rscale>
<asrwt>0</asrwt>
<pdfrwt beam="1">  1        1 0.46291504E-01 0.77899965E+02</pdfrwt>
<pdfrwt beam="2">  1       -2 0.77568703E-03 0.77899965E+02</pdfrwt>
<totfact> 0.19361310E+05</totfact>
</mgrwt>
</event>
<event>
 8    1  0.1372337E-020  0.7843189E+02  0.7818608E-02  0.1333561E+00
         -2   -1    0    0    0  501 -0.00000000000E+00  0.00000000000E+00  0.70973753343E+03  0.70973753344E+03  0.25500000000E-02 0.  1.
          1   -1    0    0  501    0  0.00000000000E+00 -0.00000000000E+00 -0.21668406462E+01  0.21668465076E+01  0.50400000000E-02 0. -1.
        -24    2    1    2    0    0  0.00000000000E+00  0.00000000000E+00  0.70757069279E+03  0.71190437994E+03  0.78431886974E+02 0.  0.
         66    2    3    3    0    0  0.73005632836E+01  0.33628219960E+02  0.52424378498E+03  0.52537577170E+03  0.20000006353E+01 0.  0.
         13    1    3    3    0    0 -0.73005632836E+01 -0.33628219960E+02  0.18332690781E+03  0.18652860824E+03  0.10566000000E+00 0. -1.
         13    1    4    4    0    0  0.67015226279E+00  0.61179317773E+01  0.93699340181E+02  0.93901308339E+02  0.10566000000E+00 0. -1.
        -13    1    4    4    0    0  0.49696077380E+01  0.19135143143E+02  0.29666406596E+03  0.29732209790E+03  0.10566000000E+00 0.  1.
        -14    1    4    4    0    0  0.16608032828E+01  0.83751450399E+01  0.13388037884E+03  0.13415236546E+03  0.00000000000E+00 0.  1.
<mgrwt>
<rscale>  0 0.78431887E+02</rscale>
<asrwt>0</asrwt>
<pdfrwt beam="1">  1        1 0.33336010E-03 0.78431887E+02</pdfrwt>
<pdfrwt beam="2">  1       -2 0.10919054E+00 0.78431887E+02</pdfrwt>
<totfact> 0.39309450E+04</totfact>
</mgrwt>
</event>
<event>
 8    1  0.1372337E-020  0.7779546E+02  0.7818608E-02  0.1335427E+00
         -2   -1    0    0    0  501 -0.00000000000E+00  0.00000000000E+00  0.48353963298E+02  0.48353963365E+02  0.25500000000E-02 0.  1.
          1   -1    0    0  501    0  0.00000000000E+00 -0.00000000000E+00 -0.31290785547E+02  0.31290785953E+02  0.50400000000E-02 0. -1.
        -24    2    1    2    0    0  0.00000000000E+00 -0.17763568394E-14  0.17063177751E+02  0.79644749318E+02  0.77795462971E+02 0.  0.
         66    2    3    3    0    0  0.54934322195E+01  0.11097413171E+02  0.46260062412E+02  0.47930405330E+02  0.20000010146E+01 0.  0.
         13    1    3    3    0    0 -0.54934322195E+01 -0.11097413171E+02 -0.29196884661E+02  0.31714343988E+02  0.10566000000E+00 0. -1.
         13    1    4    4    0    0  0.13537933444E+00  0.45020976802E+00  0.10517780938E+01  0.11568999929E+01  0.10566000000E+00 0. -1.
        -13    1    4    4    0    0  0.10045184291E+01  0.33180036102E+01  0.13742203090E+02  0.14173126509E+02  0.10566000000E+00 0.  1.
         14    1    4    4    0    0  0.43535344560E+01  0.73291997928E+01  0.31466081229E+02  0.32600378829E+02  0.00000000000E+00 0. -1.
<mgrwt>
<rscale>  0 0.77795463E+02</rscale>
<asrwt>0</asrwt>
<pdfrwt beam="1">  1        1 0.48139670E-02 0.77795463E+02</pdfrwt>
<pdfrwt beam="2">  1       -2 0.74390714E-02 0.77795463E+02</pdfrwt>
<totfact> 0.13197157E+05</totfact>
</mgrwt>
</event>
<event>
 8    1  0.1372337E-020  0.7952015E+02  0.7818608E-02  0.1330419E+00
         -2   -1    0    0    0  501 -0.00000000000E+00  0.00000000000E+00  0.15631625514E+03  0.15631625516E+03  0.25500000000E-02 0.  1.
          1   -1    0    0  501    0  0.00000000000E+00 -0.00000000000E+00 -0.10113238068E+02  0.10113239324E+02  0.50400000000E-02 0. -1.
        -24    2    1    2    0    0  0.00000000000E+00  0.00000000000E+00  0.14620301707E+03  0.16642949448E+03  0.79520151114E+02 0.  0.
         66    2    3    3    0    0  0.16397256729E+02 -0.36185753278E+02  0.71553860125E+02  0.81867170926E+02  0.20000020497E+01 0.  0.
         13    1    3    3    0    0 -0.16397256729E+02  0.36185753278E+02  0.74649156944E+02  0.84562323555E+02  0.10566000000E+00 0. -1.
         13    1    4    4    0    0  0.26741013341E+00 -0.59166031655E+00  0.13284839252E+01  0.14824316796E+01  0.10566000000E+00 0. -1.
        -13    1    4    4    0    0  0.58833603346E+01 -0.11109840648E+02  0.23019005259E+02  0.26228386439E+02  0.10566000000E+00 0.  1.
        -14    1    4    4    0    0  0.10246486261E+02 -0.24484252313E+02  0.47206370941E+02  0.54156352808E+02  0.00000000000E+00 0.  1.
<mgrwt>
<rscale>  0 0.79520151E+02</rscale>
<asrwt>0</asrwt>
<pdfrwt beam="1">  1        1 0.15558828E-02 0.79520151E+02</pdfrwt>
<pdfrwt beam="2">  1       -2 0.24048655E-01 0.79520151E+02</pdfrwt>
<totfact> 0.94674177E+04</totfact>
</mgrwt>
</event>
<event>
 8    1  0.1372337E-020  0.8134003E+02  0.7818608E-02  0.1325291E+00
          1   -1    0    0  501    0  0.00000000000E+00  0.00000000000E+00  0.89894486579E+01  0.89894500708E+01  0.50400000000E-02 0. -1.
         -2   -1    0    0    0  501 -0.00000000000E+00 -0.00000000000E+00 -0.18399906114E+03  0.18399906116E+03  0.25500000000E-02 0.  1.
        -24    2    1    2    0    0  0.00000000000E+00  0.17763568394E-14 -0.17500961249E+03  0.19298851123E+03  0.81340033226E+02 0.  0.
         66    2    3    3    0    0 -0.14882241185E+02 -0.15693958109E+02 -0.16920665136E+03  0.17059505358E+03  0.20000040953E+01 0.  0.
         13    1    3    3    0    0  0.14882241185E+02  0.15693958109E+02 -0.58029611225E+01  0.22393457653E+02  0.10566000000E+00 0. -1.
         13    1    4    4    0    0 -0.11419006259E+01 -0.15509506076E+01 -0.16389838627E+02  0.16502950012E+02  0.10566000000E+00 0. -1.
        -13    1    4    4    0    0 -0.49549153024E+01 -0.42765251533E+01 -0.54468849085E+02  0.54860792354E+02  0.10566000000E+00 0.  1.
        -14    1    4    4    0    0 -0.87854252569E+01 -0.98664823481E+01 -0.98347963652E+02  0.99231311215E+02  0.00000000000E+00 0.  1.
<mgrwt>
<rscale>  0 0.81340033E+02</rscale>
<asrwt>0</asrwt>
<pdfrwt beam="1">  1        1 0.13829924E-02 0.81340033E+02</pdfrwt>
<pdfrwt beam="2">  1       -2 0.28307545E-01 0.81340033E+02</pdfrwt>
<totfact> 0.84227541E+04</totfact>
</mgrwt>
</event>
<event>
 8    1  0.1372337E-020  0.7860341E+02  0.7818608E-02  0.1333062E+00
          1   -1    0    0  501    0  0.00000000000E+00  0.00000000000E+00  0.29625487099E+02  0.29625487528E+02  0.50400000000E-02 0. -1.
         -2   -1    0    0    0  501 -0.00000000000E+00 -0.00000000000E+00 -0.52138351298E+02  0.52138351361E+02  0.25500000000E-02 0.  1.
        -24    2    1    2    0    0  0.00000000000E+00  0.71054273576E-14 -0.22512864199E+02  0.81763838889E+02  0.78603411474E+02 0.  0.
         66    2    3    3    0    0  0.10132510445E+02 -0.35943383935E+02  0.13920163974E+01  0.37423686690E+02  0.19999997886E+01 0.  0.
         13    1    3    3    0    0 -0.10132510445E+02  0.35943383935E+02 -0.23904880597E+02  0.44340152199E+02  0.10566000000E+00 0. -1.
         13    1    4    4    0    0  0.33147967731E+01 -0.12831858869E+02  0.47537384288E+00  0.13262036948E+02  0.10566000000E+00 0.  1.
        -13    1    4    4    0    0  0.55525036916E+01 -0.17438637566E+02  0.12139359978E+01  0.18341787864E+02  0.10566000000E+00 0.  1.
        -14    1    4    4    0    0  0.12652099805E+01 -0.56728875003E+01 -0.29729344330E+00  0.58198618778E+01  0.00000000000E+00 0.  1.
<mgrwt>
<rscale>  0 0.78603411E+02</rscale>
<asrwt>0</asrwt>
<pdfrwt beam="1">  1        1 0.45577673E-02 0.78603411E+02</pdfrwt>
<pdfrwt beam="2">  1       -2 0.80212849E-02 0.78603411E+02</pdfrwt>
<totfact> 0.12693826E+05</totfact>
</mgrwt>
</event>
<event>
 8    1  0.1372337E-020  0.8006604E+02  0.7818608E-02  0.1328864E+00
         -2   -1    0    0    0  501 -0.00000000000E+00  0.00000000000E+00  0.16069801254E+02  0.16069801456E+02  0.25500000000E-02 0.  1.
          1   -1    0    0  501    0  0.00000000000E+00 -0.00000000000E+00 -0.99730082865E+02  0.99730082992E+02  0.50400000000E-02 0. -1.
        -24    2    1    2    0    0  0.00000000000E+00  0.00000000000E+00 -0.83660281611E+02  0.11579988445E+03  0.80066038487E+02 0.  0.
         66    2    3    3    0    0  0.29787250157E+02 -0.17819722330E+02 -0.13081796734E+02  0.37147761353E+02  0.19999979713E+01 0.  0.
         13    1    3    3    0    0 -0.29787250157E+02  0.17819722330E+02 -0.70578484877E+02  0.78652123096E+02  0.10566000000E+00 0. -1.
         13    1    4    4    0    0  0.17721316423E+02 -0.98697919437E+01 -0.72674554254E+01  0.21547271780E+02  0.10566000000E+00 0.  1.
        -13    1    4    4    0    0  0.12355122673E+01 -0.58317183587E+00 -0.70344848405E+00  0.15403193689E+01  0.10566000000E+00 0. -1.
         14    1    4    4    0    0  0.10830421467E+02 -0.73667585506E+01 -0.51108928246E+01  0.14060170204E+02  0.00000000000E+00 0. -1.
<mgrwt>
<rscale>  0 0.80066038E+02</rscale>
<asrwt>0</asrwt>
<pdfrwt beam="1">  1        1 0.15343089E-01 0.80066038E+02</pdfrwt>
<pdfrwt beam="2">  1       -2 0.24722772E-02 0.80066038E+02</pdfrwt>
<totfact> 0.14659708E+05</totfact>
</mgrwt>
</event>
<event>
 8    1  0.1372337E-020  0.8099631E+02  0.7818608E-02  0.1326248E+00
          1   -1    0    0  501    0  0.00000000000E+00  0.00000000000E+00  0.40941511129E+02  0.40941511440E+02  0.50400000000E-02 0. -1.
         -2   -1    0    0    0  501 -0.00000000000E+00 -0.00000000000E+00 -0.40059601434E+02  0.40059601515E+02  0.25500000000E-02 0.  1.
        -24    2    1    2    0    0  0.17763568394E-14  0.00000000000E+00  0.88190969571E+00  0.81001112954E+02  0.80996311861E+02 0.  0.
         66    2    3    3    0    0 -0.11250990984E+02 -0.98506787511E+01 -0.37170513160E+02  0.40115678883E+02  0.19999934276E+01 0.  0.
         13    1    3    3    0    0  0.11250990984E+02  0.98506787511E+01  0.38052422856E+02  0.40885434071E+02  0.10566000000E+00 0. -1.
         13    1    4    4    0    0 -0.38106649111E+01 -0.40350495402E+01 -0.12644648063E+02  0.13809456200E+02  0.10566000000E+00 0. -1.
        -13    1    4    4    0    0 -0.60257118232E+01 -0.45657317780E+01 -0.18298093408E+02  0.19798648844E+02  0.10566000000E+00 0.  1.
         14    1    4    4    0    0 -0.14146142492E+01 -0.12498974329E+01 -0.62277716883E+01  0.65075738389E+01  0.00000000000E+00 0. -1.
<mgrwt>
<rscale>  0 0.80996312E+02</rscale>
<asrwt>0</asrwt>
<pdfrwt beam="1">  1        1 0.62986940E-02 0.80996312E+02</pdfrwt>
<pdfrwt beam="2">  1       -2 0.61630156E-02 0.80996312E+02</pdfrwt>
<totfact> 0.12308834E+05</totfact>
</mgrwt>
</event>
<event>
 8    1  0.1372337E-020  0.8145844E+02  0.7818608E-02  0.1324963E+00
          1   -1    0    0  501    0  0.00000000000E+00  0.00000000000E+00  0.10682449222E+03  0.10682449234E+03  0.50400000000E-02 0. -1.
         -2   -1    0    0    0  501 -0.00000000000E+00 -0.00000000000E+00 -0.15528924881E+02  0.15528925090E+02  0.25500000000E-02 0.  1.
        -24    2    1    2    0    0 -0.35527136788E-14 -0.44408920985E-15  0.91295567339E+02  0.12235341743E+03  0.81458444256E+02 0.  0.
         66    2    3    3    0    0  0.18405817251E+02 -0.33768624281E+01 -0.86205239019E+01  0.20700017282E+02  0.19999936458E+01 0.  0.
         13    1    3    3    0    0 -0.18405817251E+02  0.33768624281E+01  0.99916091241E+02  0.10165340015E+03  0.10566000000E+00 0. -1.
         13    1    4    4    0    0  0.42876196536E+01 -0.15445467924E+00 -0.22225149152E+01  0.48330399466E+01  0.10566000000E+00 0. -1.
        -13    1    4    4    0    0  0.19677061600E+01 -0.48324689782E+00 -0.52152690587E+00  0.20948864994E+01  0.10566000000E+00 0.  1.
        -14    1    4    4    0    0  0.12150491437E+02 -0.27391608511E+01 -0.58764820809E+01  0.13772090836E+02  0.00000000000E+00 0.  1.
<mgrwt>
<rscale>  0 0.81458444E+02</rscale>
<asrwt>0</asrwt>
<pdfrwt beam="1">  1        1 0.16434537E-01 0.81458444E+02</pdfrwt>
<pdfrwt beam="2">  1       -2 0.23890655E-02 0.81458444E+02</pdfrwt>
<totfact> 0.14156694E+05</totfact>
</mgrwt>
</event>
<event>
 8    1  0.1372337E-020  0.8004454E+02  0.7818608E-02  0.1328925E+00
          1   -1    0    0  501    0  0.00000000000E+00  0.00000000000E+00  0.13194290537E+03  0.13194290546E+03  0.50400000000E-02 0. -1.
         -2   -1    0    0    0  501 -0.00000000000E+00 -0.00000000000E+00 -0.12139963050E+02  0.12139963318E+02  0.25500000000E-02 0.  1.
        -24    2    1    2    0    0  0.14210854715E-13  0.88817841970E-15  0.11980294232E+03  0.14408286878E+03  0.80044538155E+02 0.  0.
         66    2    3    3    0    0  0.33089620529E+02  0.38068523612E+01  0.20078604711E+02  0.38943105672E+02  0.20000001430E+01 0.  0.
         13    1    3    3    0    0 -0.33089620529E+02 -0.38068523612E+01  0.99724337606E+02  0.10513976311E+03  0.10566000000E+00 0. -1.
         13    1    4    4    0    0  0.99709642155E+00  0.83700326919E-01  0.37183445154E+00  0.10726751202E+01  0.10566000000E+00 0. -1.
        -13    1    4    4    0    0  0.26027722146E+02  0.35565222646E+01  0.16178570371E+02  0.30852041651E+02  0.10566000000E+00 0.  1.
         14    1    4    4    0    0  0.60648019620E+01  0.16662976974E+00  0.35281998879E+01  0.70183889011E+01  0.00000000000E+00 0. -1.
<mgrwt>
<rscale>  0 0.80044538E+02</rscale>
<asrwt>0</asrwt>
<pdfrwt beam="1">  1        1 0.20298910E-01 0.80044538E+02</pdfrwt>
<pdfrwt beam="2">  1       -2 0.18676865E-02 0.80044538E+02</pdfrwt>
<totfact> 0.15401037E+05</totfact>
</mgrwt>
</event>
<event>
 8    1  0.1372337E-020  0.7936442E+02  0.7818608E-02  0.1330865E+00
         -2   -1    0    0    0  501 -0.00000000000E+00  0.00000000000E+00  0.42871713589E+03  0.42871713590E+03  0.25500000000E-02 0.  1.
          1   -1    0    0  501    0  0.00000000000E+00 -0.00000000000E+00 -0.36729975511E+01  0.36730010090E+01  0.50400000000E-02 0. -1.
        -24    2    1    2    0    0  0.00000000000E+00  0.00000000000E+00  0.42504413834E+03  0.43239013691E+03  0.79364418715E+02 0.  0.
         66    2    3    3    0    0 -0.59557350445E+01  0.39169601421E+02  0.20330812075E+03  0.20714227095E+03  0.19999995737E+01 0.  0.
         13    1    3    3    0    0  0.59557350445E+01 -0.39169601421E+02  0.22173601760E+03  0.22524786596E+03  0.10566000000E+00 0. -1.
         13    1    4    4    0    0 -0.11665292996E+01  0.90124809297E+01  0.44060996800E+02  0.44988534163E+02  0.10566000000E+00 0. -1.
        -13    1    4    4    0    0 -0.19505838280E+01  0.15829138917E+02  0.81176699320E+02  0.82728677571E+02  0.10566000000E+00 0.  1.
         14    1    4    4    0    0 -0.28386219169E+01  0.14327981574E+02  0.78070424627E+02  0.79425059218E+02  0.00000000000E+00 0. -1.
<mgrwt>
<rscale>  0 0.79364419E+02</rscale>
<asrwt>0</asrwt>
<pdfrwt beam="1">  1        1 0.56507689E-03 0.79364419E+02</pdfrwt>
<pdfrwt beam="2">  1       -2 0.65956474E-01 0.79364419E+02</pdfrwt>
<totfact> 0.57551995E+04</totfact>
</mgrwt>
</event>
<event>
 8    1  0.1372337E-020  0.8141797E+02  0.7818608E-02  0.1325075E+00
         -2   -1    0    0    0  501 -0.00000000000E+00  0.00000000000E+00  0.20276807634E+02  0.20276807794E+02  0.25500000000E-02 0.  1.
          1   -1    0    0  501    0  0.00000000000E+00 -0.00000000000E+00 -0.81729900905E+02  0.81729901060E+02  0.50400000000E-02 0. -1.
        -24    2    1    2    0    0 -0.35527136788E-14  0.00000000000E+00 -0.61453093271E+02  0.10200670885E+03  0.81417970859E+02 0.  0.
         66    2    3    3    0    0 -0.28215625940E+02  0.13109511306E+02  0.20993622961E+01  0.31247210506E+02  0.20000021258E+01 0.  0.
         13    1    3    3    0    0  0.28215625940E+02 -0.13109511306E+02 -0.63552455567E+02  0.70759498348E+02  0.10566000000E+00 0. -1.
         13    1    4    4    0    0 -0.92692759049E+00  0.14875739326E+00 -0.44236490894E-01  0.94575071916E+00  0.10566000000E+00 0. -1.
        -13    1    4    4    0    0 -0.95987681362E+01  0.43462247904E+01  0.11574175091E+01  0.10600792375E+02  0.10566000000E+00 0.  1.
         14    1    4    4    0    0 -0.17689930213E+02  0.86145291226E+01  0.98618127793E+00  0.19700667412E+02  0.00000000000E+00 0. -1.
<mgrwt>
<rscale>  0 0.81417971E+02</rscale>
<asrwt>0</asrwt>
<pdfrwt beam="1">  1        1 0.12573831E-01 0.81417971E+02</pdfrwt>
<pdfrwt beam="2">  1       -2 0.31195089E-02 0.81417971E+02</pdfrwt>
<totfact> 0.13553697E+05</totfact>
</mgrwt>
</event>
<event>
 8    1  0.1475180E-020  0.8034647E+02  0.7818608E-02  0.1328071E+00
          1   -1    0    0  501    0  0.00000000000E+00  0.00000000000E+00  0.31456098277E+02  0.31456098681E+02  0.50400000000E-02 0. -1.
         -2   -1    0    0    0  501 -0.00000000000E+00 -0.00000000000E+00 -0.51306067078E+02  0.51306067141E+02  0.25500000000E-02 0.  1.
        -24    2    1    2    0    0  0.35527136788E-14  0.00000000000E+00 -0.19849968801E+02  0.82762165822E+02  0.80346467441E+02 0.  0.
         66    2    3    3    0    0  0.18996018380E+02 -0.96424563048E+01 -0.44984523487E+02  0.49813984064E+02  0.19999942622E+01 0.  0.
         13    1    3    3    0    0 -0.18996018380E+02  0.96424563048E+01  0.25134554687E+02  0.32948181759E+02  0.10566000000E+00 0. -1.
         13    1    4    4    0    0  0.98572840433E+01 -0.48556904175E+01 -0.22524739409E+02  0.25062298929E+02  0.10566000000E+00 0. -1.
        -13    1    4    4    0    0  0.84455852853E+01 -0.47728682215E+01 -0.21180174539E+02  0.23296333175E+02  0.10566000000E+00 0.  1.
         14    1    4    4    0    0  0.69314905125E+00 -0.13897665762E-01 -0.12796095386E+01  0.14553519587E+01  0.00000000000E+00 0. -1.
<mgrwt>
<rscale>  0 0.80346467E+02</rscale>
<asrwt>0</asrwt>
<pdfrwt beam="1">  1        1 0.48393998E-02 0.80346467E+02</pdfrwt>
<pdfrwt beam="2">  1       -2 0.78932411E-02 0.80346467E+02</pdfrwt>
<totfact> 0.12045772E+05</totfact>
</mgrwt>
</event>
<event>
 8    1  0.1372337E-020  0.8206967E+02  0.7818608E-02  0.1323279E+00
         -2   -1    0    0    0  501 -0.00000000000E+00  0.00000000000E+00  0.23648228923E+02  0.23648229060E+02  0.25500000000E-02 0.  1.
          1   -1    0    0  501    0  0.00000000000E+00 -0.00000000000E+00 -0.71204387934E+02  0.71204388113E+02  0.50400000000E-02 0. -1.
        -24    2    1    2    0    0 -0.44408920985E-15 -0.35527136788E-14 -0.47556159012E+02  0.94852617173E+02  0.82069669943E+02 0.  0.
         66    2    3    3    0    0  0.23876251170E+01  0.24097666599E+02  0.14460687461E+02  0.28275603875E+02  0.20000008625E+01 0.  0.
         13    1    3    3    0    0 -0.23876251170E+01 -0.24097666599E+02 -0.62016846472E+02  0.66577013298E+02  0.10566000000E+00 0. -1.
         13    1    4    4    0    0  0.15407161231E+01  0.18655714936E+02  0.11314716969E+02  0.21873351139E+02  0.10566000000E+00 0. -1.
        -13    1    4    4    0    0  0.29622782898E+00  0.10505631726E+01  0.99800296373E+00  0.14827703320E+01  0.10566000000E+00 0.  1.
         14    1    4    4    0    0  0.55068116495E+00  0.43913884901E+01  0.21479675284E+01  0.49194824037E+01  0.00000000000E+00 0. -1.
<mgrwt>
<rscale>  0 0.82069670E+02</rscale>
<asrwt>0</asrwt>
<pdfrwt beam="1">  1        1 0.10954521E-01 0.82069670E+02</pdfrwt>
<pdfrwt beam="2">  1       -2 0.36381891E-02 0.82069670E+02</pdfrwt>
<totfact> 0.12967620E+05</totfact>
</mgrwt>
</event>
<event>
 8    1  0.1372337E-020  0.8122752E+02  0.7818608E-02  0.1325604E+00
         -2   -1    0    0    0  501 -0.00000000000E+00  0.00000000000E+00  0.10343815533E+03  0.10343815536E+03  0.25500000000E-02 0.  1.
          1   -1    0    0  501    0  0.00000000000E+00 -0.00000000000E+00 -0.15946508923E+02  0.15946509719E+02  0.50400000000E-02 0. -1.
        -24    2    1    2    0    0  0.00000000000E+00  0.00000000000E+00  0.87491646408E+02  0.11938466508E+03  0.81227520370E+02 0.  0.
         66    2    3    3    0    0  0.10137371641E+02 -0.11265089578E+02  0.99114091473E+02  0.10028594941E+03  0.19999934113E+01 0.  0.
         13    1    3    3    0    0 -0.10137371641E+02  0.11265089578E+02 -0.11622445065E+02  0.19098715671E+02  0.10566000000E+00 0. -1.
         13    1    4    4    0    0  0.51022873527E+01 -0.49402576971E+01  0.45677046341E+02  0.46226001437E+02  0.10566000000E+00 0. -1.
        -13    1    4    4    0    0  0.23711592442E+01 -0.26405453352E+01  0.19622462586E+02  0.19941090185E+02  0.10566000000E+00 0.  1.
         14    1    4    4    0    0  0.26639250444E+01 -0.36842865453E+01  0.33814582546E+02  0.34118857788E+02  0.00000000000E+00 0. -1.
<mgrwt>
<rscale>  0 0.81227520E+02</rscale>
<asrwt>0</asrwt>
<pdfrwt beam="1">  1        1 0.24533090E-02 0.81227520E+02</pdfrwt>
<pdfrwt beam="2">  1       -2 0.15913563E-01 0.81227520E+02</pdfrwt>
<totfact> 0.10120508E+05</totfact>
</mgrwt>
</event>
<event>
 8    1  0.1372337E-020  0.8048637E+02  0.7818608E-02  0.1327677E+00
         -2   -1    0    0    0  501 -0.00000000000E+00  0.00000000000E+00  0.28091389389E+02  0.28091389505E+02  0.25500000000E-02 0.  1.
          1   -1    0    0  501    0  0.00000000000E+00 -0.00000000000E+00 -0.57651610275E+02  0.57651610496E+02  0.50400000000E-02 0. -1.
        -24    2    1    2    0    0  0.00000000000E+00 -0.35527136788E-14 -0.29560220886E+02  0.85743000001E+02  0.80486367730E+02 0.  0.
         66    2    3    3    0    0  0.11084462035E+01  0.27174063227E+02  0.16774396061E+02  0.32016225884E+02  0.19999978485E+01 0.  0.
         13    1    3    3    0    0 -0.11084462035E+01 -0.27174063227E+02 -0.46334616948E+02  0.53726774116E+02  0.10566000000E+00 0. -1.
         13    1    4    4    0    0  0.72632275407E+00  0.14875486531E+02  0.88451051773E+01  0.17322086881E+02  0.10566000000E+00 0. -1.
        -13    1    4    4    0    0  0.69375900797E+00  0.88847489003E+01  0.52545745704E+01  0.10346099871E+02  0.10566000000E+00 0.  1.
         14    1    4    4    0    0 -0.31163555850E+00  0.34138277957E+01  0.26747163138E+01  0.43480391326E+01  0.00000000000E+00 0. -1.
<mgrwt>
<rscale>  0 0.80486368E+02</rscale>
<asrwt>0</asrwt>
<pdfrwt beam="1">  1        1 0.88694785E-02 0.80486368E+02</pdfrwt>
<pdfrwt beam="2">  1       -2 0.43217522E-02 0.80486368E+02</pdfrwt>
<totfact> 0.13230661E+05</totfact>
</mgrwt>
</event>
<event>
 8    1  0.1372337E-020  0.8413125E+02  0.7818608E-02  0.1317720E+00
         -2   -1    0    0    0  501 -0.00000000000E+00  0.00000000000E+00  0.15872223117E+02  0.15872223322E+02  0.25500000000E-02 0.  1.
          1   -1    0    0  501    0  0.00000000000E+00 -0.00000000000E+00 -0.11148511267E+03  0.11148511279E+03  0.50400000000E-02 0. -1.
        -24    2    1    2    0    0  0.35527136788E-14 -0.71054273576E-14 -0.95612889558E+02  0.12735733611E+03  0.84131245156E+02 0.  0.
         66    2    3    3    0    0 -0.74977896982E+01  0.25567266607E+02  0.13965580962E+01  0.26755417290E+02  0.20000019291E+01 0.  0.
         13    1    3    3    0    0  0.74977896982E+01 -0.25567266607E+02 -0.97009447654E+02  0.10060191882E+03  0.10566000000E+00 0. -1.
         13    1    4    4    0    0 -0.19100055578E+01  0.95668341983E+01  0.18257657543E+00  0.97579165835E+01  0.10566000000E+00 0. -1.
        -13    1    4    4    0    0 -0.42918044016E+01  0.12746142676E+02  0.10553767500E+01  0.13491060828E+02  0.10566000000E+00 0.  1.
         14    1    4    4    0    0 -0.12959797387E+01  0.32542897324E+01  0.15860477075E+00  0.35064398781E+01  0.00000000000E+00 0. -1.
<mgrwt>
<rscale>  0 0.84131245E+02</rscale>
<asrwt>0</asrwt>
<pdfrwt beam="1">  1        1 0.17151555E-01 0.84131245E+02</pdfrwt>
<pdfrwt beam="2">  1       -2 0.24418806E-02 0.84131245E+02</pdfrwt>
<totfact> 0.13068758E+05</totfact>
</mgrwt>
</event>
<event>
 8    1  0.1372337E-020  0.7915318E+02  0.7818608E-02  0.1331472E+00
          1   -1    0    0  501    0  0.00000000000E+00  0.00000000000E+00  0.10850790700E+03  0.10850790712E+03  0.50400000000E-02 0. -1.
         -2   -1    0    0    0  501 -0.00000000000E+00 -0.00000000000E+00 -0.14434954047E+02  0.14434954272E+02  0.25500000000E-02 0.  1.
        -24    2    1    2    0    0  0.00000000000E+00 -0.71054273576E-14  0.94072952952E+02  0.12294286139E+03  0.79153184960E+02 0.  0.
         66    2    3    3    0    0  0.73069018001E+01 -0.33294591812E+02  0.15909562346E+02  0.37670078785E+02  0.20000009476E+01 0.  0.
         13    1    3    3    0    0 -0.73069018001E+01  0.33294591812E+02  0.78163390607E+02  0.85272782604E+02  0.10566000000E+00 0. -1.
         13    1    4    4    0    0  0.20000600999E+01 -0.64589278235E+01  0.33360679659E+01  0.75404577143E+01  0.10566000000E+00 0. -1.
        -13    1    4    4    0    0  0.12634498977E+00 -0.19768288565E+01  0.10478690633E+01  0.22434368709E+01  0.10566000000E+00 0.  1.
         14    1    4    4    0    0  0.51804967104E+01 -0.24858835132E+02  0.11525625316E+02  0.27886184200E+02  0.00000000000E+00 0. -1.
<mgrwt>
<rscale>  0 0.79153185E+02</rscale>
<asrwt>0</asrwt>
<pdfrwt beam="1">  1        1 0.16693524E-01 0.79153185E+02</pdfrwt>
<pdfrwt beam="2">  1       -2 0.22207623E-02 0.79153185E+02</pdfrwt>
<totfact> 0.15337680E+05</totfact>
</mgrwt>
</event>
<event>
 8    1  0.1372337E-020  0.7941728E+02  0.7818608E-02  0.1330713E+00
         -2   -1    0    0    0  501 -0.00000000000E+00  0.00000000000E+00  0.71932382199E+01  0.71932386719E+01  0.25500000000E-02 0.  1.
          1   -1    0    0  501    0  0.00000000000E+00 -0.00000000000E+00 -0.21920254489E+03  0.21920254494E+03  0.50400000000E-02 0. -1.
        -24    2    1    2    0    0  0.00000000000E+00  0.00000000000E+00 -0.21200930667E+03  0.22639578362E+03  0.79417282288E+02 0.  0.
         66    2    3    3    0    0  0.32666040157E+02  0.21632661621E+02 -0.88103390005E+02  0.96442986124E+02  0.20000034207E+01 0.  0.
         13    1    3    3    0    0 -0.32666040157E+02 -0.21632661621E+02 -0.12390591666E+03  0.12995279749E+03  0.10566000000E+00 0. -1.
         13    1    4    4    0    0  0.21797633897E+01  0.19676130319E+01 -0.71157054715E+01  0.76985256946E+01  0.10566000000E+00 0. -1.
        -13    1    4    4    0    0  0.27986366382E+02  0.18246002346E+02 -0.74746973624E+02  0.81873527681E+02  0.10566000000E+00 0.  1.
        -14    1    4    4    0    0  0.24999103855E+01  0.14190462435E+01 -0.62407109092E+01  0.68709327481E+01  0.00000000000E+00 0.  1.
<mgrwt>
<rscale>  0 0.79417282E+02</rscale>
<asrwt>0</asrwt>
<pdfrwt beam="1">  1        1 0.33723464E-01 0.79417282E+02</pdfrwt>
<pdfrwt beam="2">  1       -2 0.11066522E-02 0.79417282E+02</pdfrwt>
<totfact> 0.17306171E+05</totfact>
</mgrwt>
</event>
<event>
 8    1  0.1372337E-020  0.7817818E+02  0.7818608E-02  0.1334302E+00
          1   -1    0    0  501    0  0.00000000000E+00  0.00000000000E+00  0.87621240675E+01  0.87621255170E+01  0.50400000000E-02 0. -1.
         -2   -1    0    0    0  501 -0.00000000000E+00 -0.00000000000E+00 -0.17438200897E+03  0.17438200899E+03  0.25500000000E-02 0.  1.
        -24    2    1    2    0    0  0.00000000000E+00  0.00000000000E+00 -0.16561988490E+03  0.18314413451E+03  0.78178179364E+02 0.  0.
         66    2    3    3    0    0  0.30049567448E+02 -0.94942813533E+01 -0.13693985275E+03  0.14053341648E+03  0.19999985459E+01 0.  0.
         13    1    3    3    0    0 -0.30049567448E+02  0.94942813533E+01 -0.28680032148E+02  0.42610718021E+02  0.10566000000E+00 0. -1.
         13    1    4    4    0    0  0.19845631563E+01 -0.79909284227E+00 -0.10550397467E+02  0.10765644014E+02  0.10566000000E+00 0. -1.
        -13    1    4    4    0    0  0.22576659204E+02 -0.74542122237E+01 -0.10378173917E+03  0.10647033094E+03  0.10566000000E+00 0.  1.
        -14    1    4    4    0    0  0.54883450874E+01 -0.12409762873E+01 -0.22607716119E+02  0.23297441534E+02  0.00000000000E+00 0.  1.
<mgrwt>
<rscale>  0 0.78178179E+02</rscale>
<asrwt>0</asrwt>
<pdfrwt beam="1">  1        1 0.13480193E-02 0.78178179E+02</pdfrwt>
<pdfrwt beam="2">  1       -2 0.26827999E-01 0.78178179E+02</pdfrwt>
<totfact> 0.95180825E+04</totfact>
</mgrwt>
</event>
<event>
 8    1  0.1372337E-020  0.8155959E+02  0.7818608E-02  0.1324683E+00
         -2   -1    0    0    0  501 -0.00000000000E+00  0.00000000000E+00  0.28575856051E+02  0.28575856165E+02  0.25500000000E-02 0.  1.
          1   -1    0    0  501    0  0.00000000000E+00 -0.00000000000E+00 -0.58195693711E+02  0.58195693929E+02  0.50400000000E-02 0. -1.
        -24    2    1    2    0    0 -0.35527136788E-14 -0.71054273576E-14 -0.29619837660E+02  0.86771550094E+02  0.81559592463E+02 0.  0.
         66    2    3    3    0    0 -0.13421744785E+02 -0.36021285005E+02 -0.29223229900E+02  0.48328804768E+02  0.19999994971E+01 0.  0.
         13    1    3    3    0    0  0.13421744785E+02  0.36021285005E+02 -0.39660775964E+00  0.38442745327E+02  0.10566000000E+00 0. -1.
         13    1    4    4    0    0 -0.29825322185E+01 -0.10216845911E+02 -0.78771116018E+01  0.13241581855E+02  0.10566000000E+00 0. -1.
        -13    1    4    4    0    0 -0.70641645873E+01 -0.18350950125E+02 -0.14934950962E+02  0.24692584232E+02  0.10566000000E+00 0.  1.
         14    1    4    4    0    0 -0.33750479796E+01 -0.74534889690E+01 -0.64111673371E+01  0.10394638681E+02  0.00000000000E+00 0. -1.
<mgrwt>
<rscale>  0 0.81559592E+02</rscale>
<asrwt>0</asrwt>
<pdfrwt beam="1">  1        1 0.89531837E-02 0.81559592E+02</pdfrwt>
<pdfrwt beam="2">  1       -2 0.43962856E-02 0.81559592E+02</pdfrwt>
<totfact> 0.12773479E+05</totfact>
</mgrwt>
</event>
<event>
 8    1  0.1372337E-020  0.7578869E+02  0.7818608E-02  0.1341446E+00
          1   -1    0    0  501    0  0.00000000000E+00  0.00000000000E+00  0.63544018862E+01  0.63544038849E+01  0.50400000000E-02 0. -1.
         -2   -1    0    0    0  501 -0.00000000000E+00 -0.00000000000E+00 -0.22598212916E+03  0.22598212918E+03  0.25500000000E-02 0.  1.
        -24    2    1    2    0    0  0.00000000000E+00  0.00000000000E+00 -0.21962772728E+03  0.23233653306E+03  0.75788693132E+02 0.  0.
         66    2    3    3    0    0  0.35157205438E+02 -0.30069802440E+01 -0.67755849364E+02  0.76419409277E+02  0.19999917363E+01 0.  0.
         13    1    3    3    0    0 -0.35157205438E+02  0.30069802440E+01 -0.15187187791E+03  0.15591712378E+03  0.10566000000E+00 0. -1.
         13    1    4    4    0    0  0.97660355382E+01 -0.50571139204E+00 -0.20327281052E+02  0.22557497936E+02  0.10566000000E+00 0. -1.
        -13    1    4    4    0    0  0.18845680220E+02 -0.21484514397E+01 -0.35667458372E+02  0.40397453599E+02  0.10566000000E+00 0.  1.
         14    1    4    4    0    0  0.65454896801E+01 -0.35281741220E+00 -0.11761109939E+02  0.13464457742E+02  0.00000000000E+00 0. -1.
<mgrwt>
<rscale>  0 0.75788693E+02</rscale>
<asrwt>0</asrwt>
<pdfrwt beam="1">  1        1 0.97760062E-03 0.75788693E+02</pdfrwt>
<pdfrwt beam="2">  1       -2 0.34766475E-01 0.75788693E+02</pdfrwt>
<totfact> 0.92859038E+04</totfact>
</mgrwt>
</event>
<event>
 8    1  0.1372337E-020  0.7938321E+02  0.7818608E-02  0.1330811E+00
         -2   -1    0    0    0  501 -0.00000000000E+00  0.00000000000E+00  0.11451398603E+02  0.11451398887E+02  0.25500000000E-02 0.  1.
          1   -1    0    0  501    0  0.00000000000E+00 -0.00000000000E+00 -0.13757477939E+03  0.13757477948E+03  0.50400000000E-02 0. -1.
        -24    2    1    2    0    0  0.71054273576E-14  0.00000000000E+00 -0.12612338078E+03  0.14902617837E+03  0.79383213958E+02 0.  0.
         66    2    3    3    0    0 -0.31778533399E+02 -0.23726568941E+02 -0.61655408319E+02  0.73336311829E+02  0.19999997702E+01 0.  0.
         13    1    3    3    0    0  0.31778533399E+02  0.23726568941E+02 -0.64467972465E+02  0.75689866537E+02  0.10566000000E+00 0. -1.
         13    1    4    4    0    0 -0.10403025992E+02 -0.75080762732E+01 -0.20921378537E+02  0.24541992646E+02  0.10566000000E+00 0. -1.
        -13    1    4    4    0    0 -0.49403068221E+00 -0.34874216192E+00 -0.66789262972E+00  0.90715600141E+00  0.10566000000E+00 0.  1.
        -14    1    4    4    0    0 -0.20881476725E+02 -0.15869750506E+02 -0.40066137152E+02  0.47887163182E+02  0.00000000000E+00 0.  1.
<mgrwt>
<rscale>  0 0.79383214E+02</rscale>
<asrwt>0</asrwt>
<pdfrwt beam="1">  1        1 0.21165350E-01 0.79383214E+02</pdfrwt>
<pdfrwt beam="2">  1       -2 0.17617537E-02 0.79383214E+02</pdfrwt>
<totfact> 0.15866046E+05</totfact>
</mgrwt>
</event>
<event>
 8    1  0.1372337E-020  0.7958842E+02  0.7818608E-02  0.1330224E+00
         -2   -1    0    0    0  501 -0.00000000000E+00  0.00000000000E+00  0.24371211154E+03  0.24371211155E+03  0.25500000000E-02 0.  1.
          1   -1    0    0  501    0  0.00000000000E+00 -0.00000000000E+00 -0.64977436538E+01  0.64977456085E+01  0.50400000000E-02 0. -1.
        -24    2    1    2    0    0  0.00000000000E+00  0.00000000000E+00  0.23721436788E+03  0.25020985716E+03  0.79588418059E+02 0.  0.
         66    2    3    3    0    0 -0.36956903387E+02 -0.71657410408E+01  0.15899285396E+03  0.16340100417E+03  0.20000002581E+01 0.  0.
         13    1    3    3    0    0  0.36956903387E+02  0.71657410408E+01  0.78221513924E+02  0.86808852989E+02  0.10566000000E+00 0. -1.
         13    1    4    4    0    0 -0.10580203159E+01 -0.50616423141E+00  0.45974752679E+01  0.47458984495E+01  0.10566000000E+00 0. -1.
        -13    1    4    4    0    0 -0.10484025161E+02 -0.16560811143E+01  0.44842816466E+02  0.46081956782E+02  0.10566000000E+00 0.  1.
         14    1    4    4    0    0 -0.25414857910E+02 -0.50034956951E+01  0.10955256223E+03  0.11257314894E+03  0.00000000000E+00 0. -1.
<mgrwt>
<rscale>  0 0.79588418E+02</rscale>
<asrwt>0</asrwt>
<pdfrwt beam="1">  1        1 0.99965310E-03 0.79588418E+02</pdfrwt>
<pdfrwt beam="2">  1       -2 0.37494168E-01 0.79588418E+02</pdfrwt>
<totfact> 0.79095075E+04</totfact>
</mgrwt>
</event>
<event>
 8    1  0.1372337E-020  0.7924997E+02  0.7818608E-02  0.1331193E+00
          1   -1    0    0  501    0  0.00000000000E+00  0.00000000000E+00  0.58627638489E+03  0.58627638491E+03  0.50400000000E-02 0. -1.
         -2   -1    0    0    0  501 -0.00000000000E+00 -0.00000000000E+00 -0.26781552392E+01  0.26781564532E+01  0.25500000000E-02 0.  1.
        -24    2    1    2    0    0  0.00000000000E+00  0.00000000000E+00  0.58359822965E+03  0.58895454136E+03  0.79249972510E+02 0.  0.
         66    2    3    3    0    0 -0.30365249609E+02 -0.22664759178E+02  0.37749470981E+03  0.37939688403E+03  0.19999963961E+01 0.  0.
         13    1    3    3    0    0  0.30365249609E+02  0.22664759178E+02  0.20610351984E+03  0.20955765734E+03  0.10566000000E+00 0. -1.
         13    1    4    4    0    0 -0.59158312078E+01 -0.48189018719E+01  0.73963456554E+02  0.74356055191E+02  0.10566000000E+00 0. -1.
        -13    1    4    4    0    0 -0.22818841645E+02 -0.16731929747E+02  0.27955542805E+03  0.28098381719E+03  0.10566000000E+00 0.  1.
        -14    1    4    4    0    0 -0.16305767565E+01 -0.11139275594E+01  0.23975825203E+02  0.24057011646E+02  0.00000000000E+00 0.  1.
<mgrwt>
<rscale>  0 0.79249973E+02</rscale>
<asrwt>0</asrwt>
<pdfrwt beam="1">  1        1 0.90196334E-01 0.79249973E+02</pdfrwt>
<pdfrwt beam="2">  1       -2 0.41202413E-03 0.79249973E+02</pdfrwt>
<totfact> 0.20402669E+05</totfact>
</mgrwt>
</event>
<event>
 8    1  0.1372337E-020  0.8132887E+02  0.7818608E-02  0.1325322E+00
          1   -1    0    0  501    0  0.00000000000E+00  0.00000000000E+00  0.12906888181E+03  0.12906888191E+03  0.50400000000E-02 0. -1.
         -2   -1    0    0    0  501 -0.00000000000E+00 -0.00000000000E+00 -0.12811733374E+02  0.12811733628E+02  0.25500000000E-02 0.  1.
        -24    2    1    2    0    0 -0.17763568394E-14 -0.71054273576E-14  0.11625714843E+03  0.14188061553E+03  0.81328866354E+02 0.  0.
         66    2    3    3    0    0  0.12382751167E+02  0.38216306088E+02  0.47441856148E+02  0.62197655035E+02  0.19999999063E+01 0.  0.
         13    1    3    3    0    0 -0.12382751167E+02 -0.38216306088E+02  0.68815292286E+02  0.79682960499E+02  0.10566000000E+00 0. -1.
         13    1    4    4    0    0  0.66706601311E+01  0.19692378028E+02  0.25535847187E+02  0.32929896972E+02  0.10566000000E+00 0. -1.
        -13    1    4    4    0    0  0.14577728905E+01  0.39640549186E+01  0.52711334377E+01  0.67553567597E+01  0.10566000000E+00 0.  1.
         14    1    4    4    0    0  0.42543181453E+01  0.14559873141E+02  0.16634875523E+02  0.22512401303E+02  0.00000000000E+00 0. -1.
<mgrwt>
<rscale>  0 0.81328866E+02</rscale>
<asrwt>0</asrwt>
<pdfrwt beam="1">  1        1 0.19856752E-01 0.81328866E+02</pdfrwt>
<pdfrwt beam="2">  1       -2 0.19710358E-02 0.81328866E+02</pdfrwt>
<totfact> 0.14698565E+05</totfact>
</mgrwt>
</event>
<event>
 8    1  0.1372337E-020  0.7661827E+02  0.7818608E-02  0.1338932E+00
          1   -1    0    0  501    0  0.00000000000E+00  0.00000000000E+00  0.10828618284E+03  0.10828618295E+03  0.50400000000E-02 0. -1.
         -2   -1    0    0    0  501 -0.00000000000E+00 -0.00000000000E+00 -0.13552882276E+02  0.13552882516E+02  0.25500000000E-02 0.  1.
        -24    2    1    2    0    0  0.00000000000E+00  0.00000000000E+00  0.94733300561E+02  0.12183906547E+03  0.76618272230E+02 0.  0.
         66    2    3    3    0    0 -0.31874343719E+02  0.21166984241E+02  0.49391359278E+02  0.62510170211E+02  0.19999997813E+01 0.  0.
         13    1    3    3    0    0  0.31874343719E+02 -0.21166984241E+02  0.45341941283E+02  0.59328895260E+02  0.10566000000E+00 0. -1.
         13    1    4    4    0    0 -0.83014063270E+01  0.52151191302E+01  0.13105372286E+02  0.16366818913E+02  0.10566000000E+00 0. -1.
        -13    1    4    4    0    0 -0.20966076474E+02  0.13634848976E+02  0.32181580051E+02  0.40757216882E+02  0.10566000000E+00 0.  1.
         14    1    4    4    0    0 -0.26068609173E+01  0.23170161343E+01  0.41044069408E+01  0.53861344158E+01  0.00000000000E+00 0. -1.
<mgrwt>
<rscale>  0 0.76618272E+02</rscale>
<asrwt>0</asrwt>
<pdfrwt beam="1">  1        1 0.16659412E-01 0.76618272E+02</pdfrwt>
<pdfrwt beam="2">  1       -2 0.20850589E-02 0.76618272E+02</pdfrwt>
<totfact> 0.16733528E+05</totfact>
</mgrwt>
</event>
<event>
 8    1  0.1372337E-020  0.7964458E+02  0.7818608E-02  0.1330063E+00
         -2   -1    0    0    0  501 -0.00000000000E+00  0.00000000000E+00  0.20540833596E+03  0.20540833598E+03  0.25500000000E-02 0.  1.
          1   -1    0    0  501    0  0.00000000000E+00 -0.00000000000E+00 -0.77203021819E+01  0.77203038270E+01  0.50400000000E-02 0. -1.
        -24    2    1    2    0    0  0.00000000000E+00  0.35527136788E-14  0.19768803378E+03  0.21312863980E+03  0.79644575491E+02 0.  0.
         66    2    3    3    0    0  0.31560532838E+02  0.22530408750E+02  0.12285942427E+03  0.12884923237E+03  0.20000000544E+01 0.  0.
         13    1    3    3    0    0 -0.31560532838E+02 -0.22530408750E+02  0.74828609509E+02  0.84279407429E+02  0.10566000000E+00 0. -1.
         13    1    4    4    0    0  0.19775472442E+01  0.15302852440E+01  0.79072262216E+01  0.82938444998E+01  0.10566000000E+00 0.  1.
        -13    1    4    4    0    0  0.60872662769E+01  0.48080646028E+01  0.26761182622E+02  0.27862956687E+02  0.10566000000E+00 0.  1.
         14    1    4    4    0    0  0.23495719317E+02  0.16192058903E+02  0.88191015426E+02  0.92692431188E+02  0.00000000000E+00 0. -1.
<mgrwt>
<rscale>  0 0.79644575E+02</rscale>
<asrwt>0</asrwt>
<pdfrwt beam="1">  1        1 0.11877391E-02 0.79644575E+02</pdfrwt>
<pdfrwt beam="2">  1       -2 0.31601279E-01 0.79644575E+02</pdfrwt>
<totfact> 0.85123512E+04</totfact>
</mgrwt>
</event>
<event>
 8    1  0.1372337E-020  0.7743180E+02  0.7818608E-02  0.1336502E+00
          1   -1    0    0  501    0  0.00000000000E+00  0.00000000000E+00  0.16046525433E+03  0.16046525441E+03  0.50400000000E-02 0. -1.
         -2   -1    0    0    0  501 -0.00000000000E+00 -0.00000000000E+00 -0.93410935314E+01  0.93410938795E+01  0.25500000000E-02 0.  1.
        -24    2    1    2    0    0 -0.35527136788E-14  0.00000000000E+00  0.15112416080E+03  0.16980634829E+03  0.77431801877E+02 0.  0.
         66    2    3    3    0    0  0.30241165909E+02  0.23902101437E+02  0.68313484485E+02  0.78463817975E+02  0.19999999872E+01 0.  0.
         13    1    3    3    0    0 -0.30241165909E+02 -0.23902101437E+02  0.82810676311E+02  0.91342530312E+02  0.10566000000E+00 0. -1.
         13    1    4    4    0    0  0.16494886735E+02  0.12864795624E+02  0.38155526171E+02  0.43513671372E+02  0.10566000000E+00 0. -1.
        -13    1    4    4    0    0  0.12047412565E+02  0.10056721959E+02  0.26451584656E+02  0.30756711478E+02  0.10566000000E+00 0.  1.
        -14    1    4    4    0    0  0.16988666094E+01  0.98058385387E+00  0.37063736578E+01  0.41934351244E+01  0.00000000000E+00 0.  1.
<mgrwt>
<rscale>  0 0.77431802E+02</rscale>
<asrwt>0</asrwt>
<pdfrwt beam="1">  1        1 0.24686962E-01 0.77431802E+02</pdfrwt>
<pdfrwt beam="2">  1       -2 0.14370914E-02 0.77431802E+02</pdfrwt>
<totfact> 0.17438662E+05</totfact>
</mgrwt>
</event>
<event>
 8    1  0.1372337E-020  0.7916102E+02  0.7818608E-02  0.1331449E+00
          1   -1    0    0  501    0  0.00000000000E+00  0.00000000000E+00  0.36908349164E+02  0.36908349508E+02  0.50400000000E-02 0. -1.
         -2   -1    0    0    0  501 -0.00000000000E+00 -0.00000000000E+00 -0.42446138093E+02  0.42446138169E+02  0.25500000000E-02 0.  1.
        -24    2    1    2    0    0  0.00000000000E+00  0.00000000000E+00 -0.55377889285E+01  0.79354487678E+02  0.79161023290E+02 0.  0.
         66    2    3    3    0    0 -0.24311925138E+01  0.17066838670E+02 -0.38458565984E+02  0.42192996787E+02  0.20000002905E+01 0.  0.
         13    1    3    3    0    0  0.24311925138E+01 -0.17066838670E+02  0.32920777055E+02  0.37161490890E+02  0.10566000000E+00 0. -1.
         13    1    4    4    0    0 -0.26967178389E+00  0.14661579848E+01 -0.24021611526E+01  0.28291137033E+01  0.10566000000E+00 0. -1.
        -13    1    4    4    0    0 -0.85368884959E+00  0.44196527024E+01 -0.91649677629E+01  0.10211264015E+02  0.10566000000E+00 0.  1.
         14    1    4    4    0    0 -0.13078318804E+01  0.11181027983E+02 -0.26891437068E+02  0.29152619069E+02  0.00000000000E+00 0. -1.
<mgrwt>
<rscale>  0 0.79161023E+02</rscale>
<asrwt>0</asrwt>
<pdfrwt beam="1">  1        1 0.56782076E-02 0.79161023E+02</pdfrwt>
<pdfrwt beam="2">  1       -2 0.65301751E-02 0.79161023E+02</pdfrwt>
<totfact> 0.12910474E+05</totfact>
</mgrwt>
</event>
<event>
 8    1  0.1372337E-020  0.8123694E+02  0.7818608E-02  0.1325577E+00
         -2   -1    0    0    0  501 -0.00000000000E+00  0.00000000000E+00  0.46299853295E+02  0.46299853365E+02  0.25500000000E-02 0.  1.
          1   -1    0    0  501    0  0.00000000000E+00 -0.00000000000E+00 -0.35634237964E+02  0.35634238320E+02  0.50400000000E-02 0. -1.
        -24    2    1    2    0    0  0.00000000000E+00  0.00000000000E+00  0.10665615331E+02  0.81934091685E+02  0.81236937595E+02 0.  0.
         66    2    3    3    0    0  0.30608747418E+02 -0.55084178389E+00  0.32222939452E+02  0.44491759594E+02  0.19999999149E+01 0.  0.
         13    1    3    3    0    0 -0.30608747418E+02  0.55084178389E+00 -0.21557324121E+02  0.37442332091E+02  0.10566000000E+00 0. -1.
         13    1    4    4    0    0  0.15654275117E+02  0.92979159052E-01  0.16775603985E+02  0.22945523042E+02  0.10566000000E+00 0.  1.
        -13    1    4    4    0    0  0.10824195476E+02 -0.31389172398E+00  0.10380246446E+02  0.15000747183E+02  0.10566000000E+00 0. -1.
        -14    1    4    4    0    0  0.41302768244E+01 -0.32992921896E+00  0.50670890209E+01  0.65454893691E+01  0.00000000000E+00 0.  1.
<mgrwt>
<rscale>  0 0.81236938E+02</rscale>
<asrwt>0</asrwt>
<pdfrwt beam="1">  1        1 0.54821905E-02 0.81236938E+02</pdfrwt>
<pdfrwt beam="2">  1       -2 0.71230543E-02 0.81236938E+02</pdfrwt>
<totfact> 0.11926172E+05</totfact>
</mgrwt>
</event>
<event>
 8    1  0.1372337E-020  0.7903604E+02  0.7818608E-02  0.1331809E+00
          1   -1    0    0  501    0  0.00000000000E+00  0.00000000000E+00  0.45215123256E+02  0.45215123537E+02  0.50400000000E-02 0. -1.
         -2   -1    0    0    0  501 -0.00000000000E+00 -0.00000000000E+00 -0.34538754312E+02  0.34538754406E+02  0.25500000000E-02 0.  1.
        -24    2    1    2    0    0  0.00000000000E+00  0.35527136788E-14  0.10676368944E+02  0.79753877943E+02  0.79036043633E+02 0.  0.
         66    2    3    3    0    0  0.17027344757E+02  0.16730333516E+02 -0.26405789473E+02  0.35652492864E+02  0.20000001615E+01 0.  0.
         13    1    3    3    0    0 -0.17027344757E+02 -0.16730333516E+02  0.37082158417E+02  0.44101385080E+02  0.10566000000E+00 0. -1.
         13    1    4    4    0    0  0.31300213641E+01  0.32532374002E+01 -0.40795773739E+01  0.60856144231E+01  0.10566000000E+00 0. -1.
        -13    1    4    4    0    0  0.46679609192E+01  0.42934408624E+01 -0.66771526826E+01  0.92097245108E+01  0.10566000000E+00 0.  1.
         14    1    4    4    0    0  0.92293624740E+01  0.91836552534E+01 -0.15649059417E+02  0.20357153930E+02  0.00000000000E+00 0. -1.
<mgrwt>
<rscale>  0 0.79036044E+02</rscale>
<asrwt>0</asrwt>
<pdfrwt beam="1">  1        1 0.69561729E-02 0.79036044E+02</pdfrwt>
<pdfrwt beam="2">  1       -2 0.53136545E-02 0.79036044E+02</pdfrwt>
<totfact> 0.13395780E+05</totfact>
</mgrwt>
</event>
<event>
 8    1  0.1372337E-020  0.7974958E+02  0.7818608E-02  0.1329764E+00
         -2   -1    0    0    0  501 -0.00000000000E+00  0.00000000000E+00  0.64265969285E+02  0.64265969336E+02  0.25500000000E-02 0.  1.
          1   -1    0    0  501    0  0.00000000000E+00 -0.00000000000E+00 -0.24740912020E+02  0.24740912533E+02  0.50400000000E-02 0. -1.
        -24    2    1    2    0    0  0.00000000000E+00 -0.17763568394E-14  0.39525057266E+02  0.89006881869E+02  0.79749575975E+02 0.  0.
         66    2    3    3    0    0 -0.17767180830E+02 -0.12998757287E+02  0.56847477841E+02  0.60994066510E+02  0.20000017138E+01 0.  0.
         13    1    3    3    0    0  0.17767180830E+02  0.12998757287E+02 -0.17322420576E+02  0.28012815359E+02  0.10566000000E+00 0. -1.
         13    1    4    4    0    0 -0.42877261716E-01 -0.74316443352E-01  0.23892526533E+00  0.27497401939E+00  0.10566000000E+00 0.  1.
        -13    1    4    4    0    0 -0.66339490289E+01 -0.52826457662E+01  0.22844264090E+02  0.24367749011E+02  0.10566000000E+00 0.  1.
        -14    1    4    4    0    0 -0.11090354540E+02 -0.76417950778E+01  0.33764288486E+02  0.36351343480E+02  0.00000000000E+00 0.  1.
<mgrwt>
<rscale>  0 0.79749576E+02</rscale>
<asrwt>0</asrwt>
<pdfrwt beam="1">  1        1 0.38062942E-02 0.79749576E+02</pdfrwt>
<pdfrwt beam="2">  1       -2 0.98870723E-02 0.79749576E+02</pdfrwt>
<totfact> 0.11779080E+05</totfact>
</mgrwt>
</event>
<event>
 8    1  0.1372337E-020  0.7984429E+02  0.7818608E-02  0.1329494E+00
         -2   -1    0    0    0  501 -0.00000000000E+00  0.00000000000E+00  0.10888764893E+03  0.10888764896E+03  0.25500000000E-02 0.  1.
          1   -1    0    0  501    0  0.00000000000E+00 -0.00000000000E+00 -0.14636898914E+02  0.14636899782E+02  0.50400000000E-02 0. -1.
        -24    2    1    2    0    0 -0.35527136788E-14  0.00000000000E+00  0.94250750012E+02  0.12352454874E+03  0.79844287604E+02 0.  0.
         66    2    3    3    0    0 -0.22884503969E+02  0.12990672353E+02  0.93549225057E+02  0.97200388895E+02  0.20000006203E+01 0.  0.
         13    1    3    3    0    0  0.22884503969E+02 -0.12990672353E+02  0.70152495458E+00  0.26324159842E+02  0.10566000000E+00 0. -1.
         13    1    4    4    0    0 -0.10440462082E+02  0.62889384304E+01  0.42688328553E+02  0.44394352724E+02  0.10566000000E+00 0. -1.
        -13    1    4    4    0    0 -0.76229708519E+01  0.33445257961E+01  0.29999541116E+02  0.31133248604E+02  0.10566000000E+00 0.  1.
         14    1    4    4    0    0 -0.48210710351E+01  0.33572081268E+01  0.20861355388E+02  0.21672787568E+02  0.00000000000E+00 0. -1.
<mgrwt>
<rscale>  0 0.79844288E+02</rscale>
<asrwt>0</asrwt>
<pdfrwt beam="1">  1        1 0.22518306E-02 0.79844288E+02</pdfrwt>
<pdfrwt beam="2">  1       -2 0.16751946E-01 0.79844288E+02</pdfrwt>
<totfact> 0.10436579E+05</totfact>
</mgrwt>
</event>
<event>
 8    1  0.1372337E-020  0.7934334E+02  0.7818608E-02  0.1330925E+00
          1   -1    0    0  501    0  0.00000000000E+00  0.00000000000E+00  0.36445042216E+01  0.36445077065E+01  0.50400000000E-02 0. -1.
         -2   -1    0    0    0  501 -0.00000000000E+00 -0.00000000000E+00 -0.43183946285E+03  0.43183946285E+03  0.25500000000E-02 0.  1.
        -24    2    1    2    0    0  0.00000000000E+00  0.88817841970E-15 -0.42819495863E+03  0.43548397056E+03  0.79343342653E+02 0.  0.
         66    2    3    3    0    0 -0.23785769407E+02 -0.41961948373E+01 -0.38679406677E+03  0.38755260413E+03  0.20000007173E+01 0.  0.
         13    1    3    3    0    0  0.23785769407E+02  0.41961948373E+01 -0.41400891856E+02  0.47931366431E+02  0.10566000000E+00 0. -1.
         13    1    4    4    0    0 -0.48311487808E+01 -0.63218476434E+00 -0.72036983682E+02  0.72201647060E+02  0.10566000000E+00 0. -1.
        -13    1    4    4    0    0 -0.42442952709E+01 -0.22600362456E+00 -0.73148810272E+02  0.73272264386E+02  0.10566000000E+00 0.  1.
        -14    1    4    4    0    0 -0.14710325355E+02 -0.33380064484E+01 -0.24160827282E+03  0.24207869268E+03  0.00000000000E+00 0.  1.
<mgrwt>
<rscale>  0 0.79343343E+02</rscale>
<asrwt>0</asrwt>
<pdfrwt beam="1">  1        1 0.56069357E-03 0.79343343E+02</pdfrwt>
<pdfrwt beam="2">  1       -2 0.66436800E-01 0.79343343E+02</pdfrwt>
<totfact> 0.57301398E+04</totfact>
</mgrwt>
</event>
<event>
 8    1  0.1372337E-020  0.8546872E+02  0.7818608E-02  0.1314211E+00
         -2   -1    0    0    0  501 -0.00000000000E+00  0.00000000000E+00  0.26945401356E+02  0.26945401477E+02  0.25500000000E-02 0.  1.
          1   -1    0    0  501    0  0.00000000000E+00 -0.00000000000E+00 -0.67775032666E+02  0.67775032853E+02  0.50400000000E-02 0. -1.
        -24    2    1    2    0    0  0.00000000000E+00  0.17763568394E-14 -0.40829631310E+02  0.94720434330E+02  0.85468718762E+02 0.  0.
         66    2    3    3    0    0 -0.31827780404E+02  0.95413210087E+01  0.93150539772E+01  0.34566090858E+02  0.19999986422E+01 0.  0.
         13    1    3    3    0    0  0.31827780404E+02 -0.95413210087E+01 -0.50144685287E+02  0.60154343472E+02  0.10566000000E+00 0. -1.
         13    1    4    4    0    0 -0.22544131705E+02  0.61298732403E+01  0.67571517469E+01  0.24320433468E+02  0.10566000000E+00 0. -1.
        -13    1    4    4    0    0 -0.75206576988E+01  0.25813553959E+01  0.23136120547E+01  0.82817662776E+01  0.10566000000E+00 0.  1.
         14    1    4    4    0    0 -0.17629909995E+01  0.83009237250E+00  0.24429017563E+00  0.19638911123E+01  0.00000000000E+00 0. -1.
<mgrwt>
<rscale>  0 0.85468719E+02</rscale>
<asrwt>0</asrwt>
<pdfrwt beam="1">  1        1 0.10426928E-01 0.85468719E+02</pdfrwt>
<pdfrwt beam="2">  1       -2 0.41454464E-02 0.85468719E+02</pdfrwt>
<totfact> 0.11501233E+05</totfact>
</mgrwt>
</event>
<event>
 8    1  0.1372337E-020  0.8052510E+02  0.7818608E-02  0.1327568E+00
         -2   -1    0    0    0  501 -0.00000000000E+00  0.00000000000E+00  0.17829913986E+02  0.17829914168E+02  0.25500000000E-02 0.  1.
          1   -1    0    0  501    0  0.00000000000E+00 -0.00000000000E+00 -0.90918722848E+02  0.90918722988E+02  0.50400000000E-02 0. -1.
        -24    2    1    2    0    0  0.00000000000E+00  0.00000000000E+00 -0.73088808862E+02  0.10874863716E+03  0.80525102311E+02 0.  0.
         66    2    3    3    0    0 -0.19428226441E+02 -0.35126530288E+02 -0.32809951692E+02  0.51882772072E+02  0.19999987610E+01 0.  0.
         13    1    3    3    0    0  0.19428226441E+02  0.35126530288E+02 -0.40278857170E+02  0.56865865084E+02  0.10566000000E+00 0. -1.
         13    1    4    4    0    0 -0.99880395811E+01 -0.19384944588E+02 -0.17036149372E+02  0.27672704255E+02  0.10566000000E+00 0. -1.
        -13    1    4    4    0    0 -0.53331834584E+01 -0.93415233781E+01 -0.89793917480E+01  0.14012406825E+02  0.10566000000E+00 0.  1.
         14    1    4    4    0    0 -0.41070034020E+01 -0.64000623227E+01 -0.67944105721E+01  0.10197660992E+02  0.00000000000E+00 0. -1.
<mgrwt>
<rscale>  0 0.80525102E+02</rscale>
<asrwt>0</asrwt>
<pdfrwt beam="1">  1        1 0.13987496E-01 0.80525102E+02</pdfrwt>
<pdfrwt beam="2">  1       -2 0.27430638E-02 0.80525102E+02</pdfrwt>
<totfact> 0.14213455E+05</totfact>
</mgrwt>
</event>
<event>
 8    1  0.1372337E-020  0.7811248E+02  0.7818608E-02  0.1334495E+00
         -2   -1    0    0    0  501 -0.00000000000E+00  0.00000000000E+00  0.53329430708E+02  0.53329430769E+02  0.25500000000E-02 0.  1.
          1   -1    0    0  501    0  0.00000000000E+00 -0.00000000000E+00 -0.28603152441E+02  0.28603152885E+02  0.50400000000E-02 0. -1.
        -24    2    1    2    0    0  0.88817841970E-15  0.35527136788E-14  0.24726278267E+02  0.81932583654E+02  0.78112479331E+02 0.  0.
         66    2    3    3    0    0 -0.73746856631E+01 -0.27936775038E+02  0.39894451976E+02  0.49299256427E+02  0.19999994090E+01 0.  0.
         13    1    3    3    0    0  0.73746856631E+01  0.27936775038E+02 -0.15168173709E+02  0.32633327227E+02  0.10566000000E+00 0. -1.
         13    1    4    4    0    0 -0.32573044359E+00 -0.32722685932E+01  0.40711070519E+01  0.52343976474E+01  0.10566000000E+00 0. -1.
        -13    1    4    4    0    0 -0.59093745959E+01 -0.20141149219E+02  0.28999213549E+02  0.35798773030E+02  0.10566000000E+00 0.  1.
         14    1    4    4    0    0 -0.11395806236E+01 -0.45233572260E+01  0.68241313754E+01  0.82660857497E+01  0.00000000000E+00 0. -1.
<mgrwt>
<rscale>  0 0.78112479E+02</rscale>
<asrwt>0</asrwt>
<pdfrwt beam="1">  1        1 0.44004851E-02 0.78112479E+02</pdfrwt>
<pdfrwt beam="2">  1       -2 0.82045278E-02 0.78112479E+02</pdfrwt>
<totfact> 0.12844960E+05</totfact>
</mgrwt>
</event>
<event>
 8    1  0.1372337E-020  0.8135049E+02  0.7818608E-02  0.1325262E+00
         -2   -1    0    0    0  501 -0.00000000000E+00  0.00000000000E+00  0.10264713240E+04  0.10264713240E+04  0.25500000000E-02 0.  1.
          1   -1    0    0  501    0  0.00000000000E+00 -0.00000000000E+00 -0.16118049920E+01  0.16118128718E+01  0.50400000000E-02 0. -1.
        -24    2    1    2    0    0 -0.17763568394E-14 -0.35527136788E-14  0.10248595190E+04  0.10280831369E+04  0.81350492470E+02 0.  0.
         66    2    3    3    0    0  0.68976289416E+01  0.28139226874E+02  0.87309645183E+03  0.87357930813E+03  0.20000042177E+01 0.  0.
         13    1    3    3    0    0 -0.68976289416E+01 -0.28139226874E+02  0.15176306716E+03  0.15450382873E+03  0.10566000000E+00 0. -1.
         13    1    4    4    0    0  0.54228050809E+01  0.20379625453E+02  0.65288287449E+03  0.65322338821E+03  0.10566000000E+00 0. -1.
        -13    1    4    4    0    0  0.49464391701E+00  0.19054439256E+01  0.49824003760E+02  0.49862991325E+02  0.10566000000E+00 0.  1.
        -14    1    4    4    0    0  0.98017994370E+00  0.58541574958E+01  0.17038957359E+03  0.17049292859E+03  0.00000000000E+00 0.  1.
<mgrwt>
<rscale>  0 0.81350492E+02</rscale>
<asrwt>0</asrwt>
<pdfrwt beam="1">  1        1 0.24797094E-03 0.81350492E+02</pdfrwt>
<pdfrwt beam="2">  1       -2 0.15791845E+00 0.81350492E+02</pdfrwt>
<totfact> 0.24217726E+04</totfact>
</mgrwt>
</event>
<event>
 8    1  0.1372337E-020  0.7629735E+02  0.7818608E-02  0.1339900E+00
          1   -1    0    0  501    0  0.00000000000E+00  0.00000000000E+00  0.26093613580E+01  0.26093662254E+01  0.50400000000E-02 0. -1.
         -2   -1    0    0    0  501 -0.00000000000E+00 -0.00000000000E+00 -0.55773035301E+03  0.55773035302E+03  0.25500000000E-02 0.  1.
        -24    2    1    2    0    0  0.17763568394E-14  0.00000000000E+00 -0.55512099166E+03  0.56033971924E+03  0.76297349801E+02 0.  0.
         66    2    3    3    0    0  0.14669934192E+02 -0.96476876706E+01 -0.52626459396E+03  0.52656120982E+03  0.19999977377E+01 0.  0.
         13    1    3    3    0    0 -0.14669934192E+02  0.96476876706E+01 -0.28856397699E+02  0.33778509422E+02  0.10566000000E+00 0. -1.
         13    1    4    4    0    0  0.19598431293E+01 -0.10326467574E+01 -0.79898010106E+02  0.79928784098E+02  0.10566000000E+00 0. -1.
        -13    1    4    4    0    0  0.67120988257E+01 -0.38322134838E+01 -0.23048721936E+03  0.23061679814E+03  0.10566000000E+00 0.  1.
        -14    1    4    4    0    0  0.59979922369E+01 -0.47828274294E+01 -0.21587936449E+03  0.21601562758E+03  0.00000000000E+00 0.  1.
<mgrwt>
<rscale>  0 0.76297350E+02</rscale>
<asrwt>0</asrwt>
<pdfrwt beam="1">  1        1 0.40144103E-03 0.76297350E+02</pdfrwt>
<pdfrwt beam="2">  1       -2 0.85804575E-01 0.76297350E+02</pdfrwt>
<totfact> 0.52209546E+04</totfact>
</mgrwt>
</event>
<event>
 8    1  0.1372337E-020  0.7876023E+02  0.7818608E-02  0.1332607E+00
          1   -1    0    0  501    0  0.00000000000E+00  0.00000000000E+00  0.73637983401E+02  0.73637983574E+02  0.50400000000E-02 0. -1.
         -2   -1    0    0    0  501 -0.00000000000E+00 -0.00000000000E+00 -0.21059694046E+02  0.21059694200E+02  0.25500000000E-02 0.  1.
        -24    2    1    2    0    0  0.35527136788E-14  0.00000000000E+00  0.52578289355E+02  0.94697677774E+02  0.78760228950E+02 0.  0.
         66    2    3    3    0    0  0.23417741694E+02 -0.85349655265E+01 -0.10312534244E+02  0.27047821014E+02  0.19999991294E+01 0.  0.
         13    1    3    3    0    0 -0.23417741694E+02  0.85349655265E+01  0.62890823599E+02  0.67649856759E+02  0.10566000000E+00 0. -1.
         13    1    4    4    0    0  0.34431241945E+01 -0.15482700758E+01 -0.10372802990E+01  0.39165493614E+01  0.10566000000E+00 0. -1.
        -13    1    4    4    0    0  0.47980084365E+01 -0.13803732658E+01 -0.25904353820E+01  0.56256408358E+01  0.10566000000E+00 0.  1.
         14    1    4    4    0    0  0.15176609063E+02 -0.56063221849E+01 -0.66848185628E+01  0.17505630817E+02  0.00000000000E+00 0. -1.
<mgrwt>
<rscale>  0 0.78760229E+02</rscale>
<asrwt>0</asrwt>
<pdfrwt beam="1">  1        1 0.11328920E-01 0.78760229E+02</pdfrwt>
<pdfrwt beam="2">  1       -2 0.32399530E-02 0.78760229E+02</pdfrwt>
<totfact> 0.14591576E+05</totfact>
</mgrwt>
</event>
<event>
 8    1  0.1372337E-020  0.7909830E+02  0.7818608E-02  0.1331630E+00
          1   -1    0    0  501    0  0.00000000000E+00  0.00000000000E+00  0.43848730050E+01  0.43848759015E+01  0.50400000000E-02 0. -1.
         -2   -1    0    0    0  501 -0.00000000000E+00 -0.00000000000E+00 -0.35671148792E+03  0.35671148793E+03  0.25500000000E-02 0.  1.
        -24    2    1    2    0    0  0.00000000000E+00  0.00000000000E+00 -0.35232661492E+03  0.36109636383E+03  0.79098295774E+02 0.  0.
         66    2    3    3    0    0 -0.17494097676E+02 -0.20187119023E+01 -0.33780820666E+03  0.33827282349E+03  0.19999944403E+01 0.  0.
         13    1    3    3    0    0  0.17494097676E+02  0.20187119023E+01 -0.14518408261E+02  0.22823540341E+02  0.10566000000E+00 0. -1.
         13    1    4    4    0    0 -0.15275746913E+01  0.25710529895E+00 -0.31297959423E+02  0.31336448676E+02  0.10566000000E+00 0. -1.
        -13    1    4    4    0    0 -0.15749693196E+02 -0.23764982737E+01 -0.30230431113E+03  0.30272365001E+03  0.10566000000E+00 0.  1.
        -14    1    4    4    0    0 -0.21682978777E+00  0.10068107243E+00 -0.42059361011E+01  0.42127248097E+01  0.00000000000E+00 0.  1.
<mgrwt>
<rscale>  0 0.79098296E+02</rscale>
<asrwt>0</asrwt>
<pdfrwt beam="1">  1        1 0.67459635E-03 0.79098296E+02</pdfrwt>
<pdfrwt beam="2">  1       -2 0.54878668E-01 0.79098296E+02</pdfrwt>
<totfact> 0.65462658E+04</totfact>
</mgrwt>
</event>
<event>
 8    1  0.1372337E-020  0.7843766E+02  0.7818608E-02  0.1333544E+00
          1   -1    0    0  501    0  0.00000000000E+00  0.00000000000E+00  0.22354980102E+03  0.22354980108E+03  0.50400000000E-02 0. -1.
         -2   -1    0    0    0  501 -0.00000000000E+00 -0.00000000000E+00 -0.68804210334E+01  0.68804215059E+01  0.25500000000E-02 0.  1.
        -24    2    1    2    0    0  0.00000000000E+00  0.00000000000E+00  0.21666937999E+03  0.23043022258E+03  0.78437664777E+02 0.  0.
         66    2    3    3    0    0  0.30649916481E+02 -0.22274072023E+02  0.78945256689E+02  0.87589412704E+02  0.19999998135E+01 0.  0.
         13    1    3    3    0    0 -0.30649916481E+02  0.22274072023E+02  0.13772412330E+03  0.14284080988E+03  0.10566000000E+00 0. -1.
         13    1    4    4    0    0  0.15319217883E+02 -0.10407455847E+02  0.38258330603E+02  0.42505347879E+02  0.10566000000E+00 0. -1.
        -13    1    4    4    0    0  0.74814676665E+01 -0.57283253019E+01  0.18471357638E+02  0.20736158908E+02  0.10566000000E+00 0.  1.
         14    1    4    4    0    0  0.78492309323E+01 -0.61382908742E+01  0.22215568448E+02  0.24347905917E+02  0.00000000000E+00 0. -1.
<mgrwt>
<rscale>  0 0.78437665E+02</rscale>
<asrwt>0</asrwt>
<pdfrwt beam="1">  1        1 0.34392276E-01 0.78437665E+02</pdfrwt>
<pdfrwt beam="2">  1       -2 0.10585264E-02 0.78437665E+02</pdfrwt>
<totfact> 0.17952417E+05</totfact>
</mgrwt>
</event>
<event>
 8    1  0.1372337E-020  0.8016256E+02  0.7818608E-02  0.1328591E+00
         -2   -1    0    0    0  501 -0.00000000000E+00  0.00000000000E+00  0.57019576717E+02  0.57019576774E+02  0.25500000000E-02 0.  1.
          1   -1    0    0  501    0  0.00000000000E+00 -0.00000000000E+00 -0.28174690726E+02  0.28174691177E+02  0.50400000000E-02 0. -1.
        -24    2    1    2    0    0  0.00000000000E+00  0.00000000000E+00  0.28844885991E+02  0.85194267951E+02  0.80162558866E+02 0.  0.
         66    2    3    3    0    0 -0.25476604649E+02  0.14733407889E+02  0.43310039441E+02  0.52401242460E+02  0.20000006343E+01 0.  0.
         13    1    3    3    0    0  0.25476604649E+02 -0.14733407889E+02 -0.14465153450E+02  0.32793025491E+02  0.10566000000E+00 0. -1.
         13    1    4    4    0    0 -0.55659059856E+01  0.33573232823E+01  0.10225225295E+02  0.12116819939E+02  0.10566000000E+00 0.  1.
        -13    1    4    4    0    0 -0.55738579535E+01  0.39703924441E+01  0.95848817004E+01  0.11777649591E+02  0.10566000000E+00 0.  1.
        -14    1    4    4    0    0 -0.14336840710E+02  0.74056921623E+01  0.23499932446E+02  0.28506772930E+02  0.00000000000E+00 0.  1.
<mgrwt>
<rscale>  0 0.80162559E+02</rscale>
<asrwt>0</asrwt>
<pdfrwt beam="1">  1        1 0.43345679E-02 0.80162559E+02</pdfrwt>
<pdfrwt beam="2">  1       -2 0.87722426E-02 0.80162559E+02</pdfrwt>
<totfact> 0.11889517E+05</totfact>
</mgrwt>
</event>
<event>
 8    1  0.1372337E-020  0.7977119E+02  0.7818608E-02  0.1329702E+00
         -2   -1    0    0    0  501 -0.00000000000E+00  0.00000000000E+00  0.40312072021E+01  0.40312080086E+01  0.25500000000E-02 0.  1.
          1   -1    0    0  501    0  0.00000000000E+00 -0.00000000000E+00 -0.39463622846E+03  0.39463622849E+03  0.50400000000E-02 0. -1.
        -24    2    1    2    0    0  0.35527136788E-14  0.00000000000E+00 -0.39060502126E+03  0.39866743650E+03  0.79771187118E+02 0.  0.
         66    2    3    3    0    0  0.20597810873E+02 -0.32775636223E+02 -0.24292706465E+03  0.24600014408E+03  0.20000015813E+01 0.  0.
         13    1    3    3    0    0 -0.20597810873E+02  0.32775636223E+02 -0.14767795661E+03  0.15266729242E+03  0.10566000000E+00 0. -1.
         13    1    4    4    0    0  0.32437310191E+00 -0.62573239793E+00 -0.38625389039E+01  0.39277385049E+01  0.10566000000E+00 0.  1.
        -13    1    4    4    0    0  0.70911782809E+00 -0.10878755740E+01 -0.66261329907E+01  0.67530085003E+01  0.10566000000E+00 0.  1.
         14    1    4    4    0    0  0.19564319943E+02 -0.31062028251E+02 -0.23243839276E+03  0.23531939708E+03  0.00000000000E+00 0. -1.
<mgrwt>
<rscale>  0 0.79771187E+02</rscale>
<asrwt>0</asrwt>
<pdfrwt beam="1">  1        1 0.60713236E-01 0.79771187E+02</pdfrwt>
<pdfrwt beam="2">  1       -2 0.62018610E-03 0.79771187E+02</pdfrwt>
<totfact> 0.19094458E+05</totfact>
</mgrwt>
</event>
<event>
 8    1  0.1372337E-020  0.7940279E+02  0.7818608E-02  0.1330755E+00
         -2   -1    0    0    0  501 -0.00000000000E+00  0.00000000000E+00  0.10720817404E+03  0.10720817407E+03  0.25500000000E-02 0.  1.
          1   -1    0    0  501    0  0.00000000000E+00 -0.00000000000E+00 -0.14702244232E+02  0.14702245095E+02  0.50400000000E-02 0. -1.
        -24    2    1    2    0    0 -0.44408920985E-15  0.00000000000E+00  0.92505929810E+02  0.12191041917E+03  0.79402791208E+02 0.  0.
         66    2    3    3    0    0 -0.21439967403E+01 -0.23850550974E+02  0.94852208381E+02  0.97848796384E+02  0.20000038482E+01 0.  0.
         13    1    3    3    0    0  0.21439967403E+01  0.23850550974E+02 -0.23462785704E+01  0.24061622783E+02  0.10566000000E+00 0. -1.
         13    1    4    4    0    0 -0.10743557764E+01 -0.81310303854E+01  0.31233086722E+02  0.32292178088E+02  0.10566000000E+00 0. -1.
        -13    1    4    4    0    0 -0.12996132019E+00 -0.11305920383E+02  0.45240745965E+02  0.46632359850E+02  0.10566000000E+00 0.  1.
         14    1    4    4    0    0 -0.93967964367E+00 -0.44136002058E+01  0.18378375694E+02  0.18924258447E+02  0.00000000000E+00 0. -1.
<mgrwt>
<rscale>  0 0.79402791E+02</rscale>
<asrwt>0</asrwt>
<pdfrwt beam="1">  1        1 0.22618839E-02 0.79402791E+02</pdfrwt>
<pdfrwt beam="2">  1       -2 0.16493565E-01 0.79402791E+02</pdfrwt>
<totfact> 0.10628936E+05</totfact>
</mgrwt>
</event>
<event>
 8    1  0.1372337E-020  0.7988494E+02  0.7818608E-02  0.1329378E+00
         -2   -1    0    0    0  501 -0.00000000000E+00  0.00000000000E+00  0.48955402639E+02  0.48955402705E+02  0.25500000000E-02 0.  1.
          1   -1    0    0  501    0  0.00000000000E+00 -0.00000000000E+00 -0.32588865643E+02  0.32588866033E+02  0.50400000000E-02 0. -1.
        -24    2    1    2    0    0  0.00000000000E+00  0.00000000000E+00  0.16366536996E+02  0.81544268738E+02  0.79884943705E+02 0.  0.
         66    2    3    3    0    0  0.35677423763E+02 -0.87667752052E+01  0.24122268483E+02  0.43995667582E+02  0.20000038357E+01 0.  0.
         13    1    3    3    0    0 -0.35677423763E+02  0.87667752052E+01 -0.77557314869E+01  0.37548601156E+02  0.10566000000E+00 0. -1.
         13    1    4    4    0    0  0.20311597066E+01 -0.64046636173E+00  0.18326194338E+01  0.28116658654E+01  0.10566000000E+00 0. -1.
        -13    1    4    4    0    0  0.28189264104E+02 -0.71528687730E+01  0.18972634301E+02  0.34724201341E+02  0.10566000000E+00 0.  1.
        -14    1    4    4    0    0  0.54569999520E+01 -0.97344007049E+00  0.33170147476E+01  0.64598003749E+01  0.00000000000E+00 0.  1.
<mgrwt>
<rscale>  0 0.79884944E+02</rscale>
<asrwt>0</asrwt>
<pdfrwt beam="1">  1        1 0.50136717E-02 0.79884944E+02</pdfrwt>
<pdfrwt beam="2">  1       -2 0.75316004E-02 0.79884944E+02</pdfrwt>
<totfact> 0.12321256E+05</totfact>
</mgrwt>
</event>
<event>
 8    1  0.1372337E-020  0.8665797E+02  0.7818608E-02  0.1311153E+00
          1   -1    0    0  501    0  0.00000000000E+00  0.00000000000E+00  0.92545971718E+02  0.92545971856E+02  0.50400000000E-02 0. -1.
         -2   -1    0    0    0  501 -0.00000000000E+00 -0.00000000000E+00 -0.20286144789E+02  0.20286144949E+02  0.25500000000E-02 0.  1.
        -24    2    1    2    0    0  0.00000000000E+00  0.00000000000E+00  0.72259826930E+02  0.11283211680E+03  0.86657971328E+02 0.  0.
         66    2    3    3    0    0  0.39302721748E+02 -0.11412064011E+02  0.17714466355E+02  0.44640132921E+02  0.20000017926E+01 0.  0.
         13    1    3    3    0    0 -0.39302721748E+02  0.11412064011E+02  0.54545360574E+02  0.68191983884E+02  0.10566000000E+00 0. -1.
         13    1    4    4    0    0  0.24342728048E+01 -0.79964099843E+00  0.89293575777E+00  0.27154388444E+01  0.10566000000E+00 0.  1.
        -13    1    4    4    0    0  0.19916885291E+02 -0.56605436541E+01  0.81716340211E+01  0.22260072793E+02  0.10566000000E+00 0.  1.
        -14    1    4    4    0    0  0.16951563652E+02 -0.49518793581E+01  0.86498965764E+01  0.19664621283E+02  0.00000000000E+00 0.  1.
<mgrwt>
<rscale>  0 0.86657971E+02</rscale>
<asrwt>0</asrwt>
<pdfrwt beam="1">  1        1 0.14237842E-01 0.86657971E+02</pdfrwt>
<pdfrwt beam="2">  1       -2 0.31209453E-02 0.86657971E+02</pdfrwt>
<totfact> 0.11670428E+05</totfact>
</mgrwt>
</event>
<event>
 8    1  0.1372337E-020  0.7799124E+02  0.7818608E-02  0.1334851E+00
         -2   -1    0    0    0  501 -0.00000000000E+00  0.00000000000E+00  0.38473649519E+02  0.38473649603E+02  0.25500000000E-02 0.  1.
          1   -1    0    0  501    0  0.00000000000E+00 -0.00000000000E+00 -0.39524674187E+02  0.39524674508E+02  0.50400000000E-02 0. -1.
        -24    2    1    2    0    0 -0.88817841970E-15  0.71054273576E-14 -0.10510246681E+01  0.77998324111E+02  0.77991242530E+02 0.  0.
         66    2    3    3    0    0 -0.68315575977E+01  0.37640652646E+02 -0.79538218765E+01  0.39124828203E+02  0.19999971614E+01 0.  0.
         13    1    3    3    0    0  0.68315575977E+01 -0.37640652646E+02  0.69027972085E+01  0.38873495909E+02  0.10566000000E+00 0. -1.
         13    1    4    4    0    0 -0.13904547514E+01  0.57754569431E+01 -0.17552772772E+01  0.61952747859E+01  0.10566000000E+00 0. -1.
        -13    1    4    4    0    0 -0.40324891058E+00  0.36283665327E+01 -0.50119035974E+00  0.36864629649E+01  0.10566000000E+00 0.  1.
        -14    1    4    4    0    0 -0.50378539357E+01  0.28236829170E+02 -0.56973542396E+01  0.29243090452E+02  0.00000000000E+00 0.  1.
<mgrwt>
<rscale>  0 0.77991243E+02</rscale>
<asrwt>0</asrwt>
<pdfrwt beam="1">  1        1 0.60807192E-02 0.77991243E+02</pdfrwt>
<pdfrwt beam="2">  1       -2 0.59190230E-02 0.77991243E+02</pdfrwt>
<totfact> 0.13612527E+05</totfact>
</mgrwt>
</event>
<event>
 8    1  0.1372337E-020  0.8262290E+02  0.7818608E-02  0.1321769E+00
          1   -1    0    0  501    0  0.00000000000E+00  0.00000000000E+00  0.17733733083E+03  0.17733733090E+03  0.50400000000E-02 0. -1.
         -2   -1    0    0    0  501 -0.00000000000E+00 -0.00000000000E+00 -0.96236693056E+01  0.96236696434E+01  0.25500000000E-02 0.  1.
        -24    2    1    2    0    0  0.00000000000E+00  0.00000000000E+00  0.16771366152E+03  0.18696100054E+03  0.82622899142E+02 0.  0.
         66    2    3    3    0    0 -0.26833726326E+02 -0.11882061420E+02  0.18190447667E+02  0.34585034926E+02  0.20000005951E+01 0.  0.
         13    1    3    3    0    0  0.26833726326E+02  0.11882061420E+02  0.14952321385E+03  0.15237596561E+03  0.10566000000E+00 0. -1.
         13    1    4    4    0    0 -0.49499435180E+01 -0.22258799551E+01  0.24910483005E+01  0.59726851647E+01  0.10566000000E+00 0. -1.
        -13    1    4    4    0    0 -0.82998481902E+01 -0.36343993512E+01  0.60321003972E+01  0.10885482895E+02  0.10566000000E+00 0.  1.
         14    1    4    4    0    0 -0.13583934618E+02 -0.60217821139E+01  0.96672989697E+01  0.17726866866E+02  0.00000000000E+00 0. -1.
<mgrwt>
<rscale>  0 0.82622899E+02</rscale>
<asrwt>0</asrwt>
<pdfrwt beam="1">  1        1 0.27282664E-01 0.82622899E+02</pdfrwt>
<pdfrwt beam="2">  1       -2 0.14805647E-02 0.82622899E+02</pdfrwt>
<totfact> 0.14948846E+05</totfact>
</mgrwt>
</event>
<event>
 8    1  0.1372337E-020  0.8342674E+02  0.7818608E-02  0.1319599E+00
         -2   -1    0    0    0  501 -0.00000000000E+00  0.00000000000E+00  0.50682426461E+02  0.50682426525E+02  0.25500000000E-02 0.  1.
          1   -1    0    0  501    0  0.00000000000E+00 -0.00000000000E+00 -0.34331527074E+02  0.34331527444E+02  0.50400000000E-02 0. -1.
        -24    2    1    2    0    0  0.71054273576E-14  0.00000000000E+00  0.16350899387E+02  0.85013953968E+02  0.83426737072E+02 0.  0.
         66    2    3    3    0    0 -0.39977165230E+02 -0.92012751088E+01  0.15748616118E+02  0.43986998041E+02  0.19999708948E+01 0.  0.
         13    1    3    3    0    0  0.39977165230E+02  0.92012751088E+01  0.60228326929E+00  0.41026955927E+02  0.10566000000E+00 0. -1.
         13    1    4    4    0    0 -0.26010554753E+01 -0.51484749164E+00  0.84977995880E+00  0.27863681629E+01  0.10566000000E+00 0. -1.
        -13    1    4    4    0    0 -0.32913919867E+02 -0.72938733635E+01  0.13567847018E+02  0.36340395518E+02  0.10566000000E+00 0.  1.
        -14    1    4    4    0    0 -0.44621898881E+01 -0.13925542537E+01  0.13309891410E+01  0.48602343606E+01  0.00000000000E+00 0.  1.
<mgrwt>
<rscale>  0 0.83426737E+02</rscale>
<asrwt>0</asrwt>
<pdfrwt beam="1">  1        1 0.52817735E-02 0.83426737E+02</pdfrwt>
<pdfrwt beam="2">  1       -2 0.77972964E-02 0.83426737E+02</pdfrwt>
<totfact> 0.10981441E+05</totfact>
</mgrwt>
</event>
<event>
 8    1  0.1372337E-020  0.8229885E+02  0.7818608E-02  0.1322651E+00
          1   -1    0    0  501    0  0.00000000000E+00  0.00000000000E+00  0.28263883858E+02  0.28263884308E+02  0.50400000000E-02 0. -1.
         -2   -1    0    0    0  501 -0.00000000000E+00 -0.00000000000E+00 -0.59909499227E+02  0.59909499281E+02  0.25500000000E-02 0.  1.
        -24    2    1    2    0    0  0.00000000000E+00  0.00000000000E+00 -0.31645615368E+02  0.88173383588E+02  0.82298849332E+02 0.  0.
         66    2    3    3    0    0 -0.22264060080E+02  0.97981475610E+01 -0.51358982683E+02  0.56863320002E+02  0.19999981388E+01 0.  0.
         13    1    3    3    0    0  0.22264060080E+02 -0.97981475610E+01  0.19713367315E+02  0.31310063586E+02  0.10566000000E+00 0. -1.
         13    1    4    4    0    0 -0.96312362319E+01  0.36995996606E+01 -0.23307477823E+02  0.25489163100E+02  0.10566000000E+00 0. -1.
        -13    1    4    4    0    0 -0.43933584487E+01  0.23809172929E+01 -0.10672147140E+02  0.11784576964E+02  0.10566000000E+00 0.  1.
         14    1    4    4    0    0 -0.82394653993E+01  0.37176306075E+01 -0.17379357719E+02  0.19589579938E+02  0.00000000000E+00 0. -1.
<mgrwt>
<rscale>  0 0.82298849E+02</rscale>
<asrwt>0</asrwt>
<pdfrwt beam="1">  1        1 0.43482899E-02 0.82298849E+02</pdfrwt>
<pdfrwt beam="2">  1       -2 0.92168460E-02 0.82298849E+02</pdfrwt>
<totfact> 0.11023291E+05</totfact>
</mgrwt>
</event>
<event>
 8    1  0.1372337E-020  0.8051538E+02  0.7818608E-02  0.1327595E+00
         -2   -1    0    0    0  501 -0.00000000000E+00  0.00000000000E+00  0.19634971043E+02  0.19634971208E+02  0.25500000000E-02 0.  1.
          1   -1    0    0  501    0  0.00000000000E+00 -0.00000000000E+00 -0.82540560991E+02  0.82540561144E+02  0.50400000000E-02 0. -1.
        -24    2    1    2    0    0  0.00000000000E+00  0.00000000000E+00 -0.62905589948E+02  0.10217553235E+03  0.80515378437E+02 0.  0.
         66    2    3    3    0    0  0.17511394245E+02 -0.32345625290E+02 -0.52160976173E+02  0.63856525411E+02  0.19999995962E+01 0.  0.
         13    1    3    3    0    0 -0.17511394245E+02  0.32345625290E+02 -0.10744613775E+02  0.38319006942E+02  0.10566000000E+00 0. -1.
         13    1    4    4    0    0  0.90212505196E+00 -0.11722626675E+01 -0.21744268800E+01  0.26319813189E+01  0.10566000000E+00 0. -1.
        -13    1    4    4    0    0  0.57168462632E+01 -0.11849528998E+02 -0.19420933904E+02  0.23457994509E+02  0.10566000000E+00 0.  1.
        -14    1    4    4    0    0  0.10892422930E+02 -0.19323833624E+02 -0.30565615390E+02  0.37766549582E+02  0.00000000000E+00 0.  1.
<mgrwt>
<rscale>  0 0.80515378E+02</rscale>
<asrwt>0</asrwt>
<pdfrwt beam="1">  1        1 0.12698548E-01 0.80515378E+02</pdfrwt>
<pdfrwt beam="2">  1       -2 0.30207648E-02 0.80515378E+02</pdfrwt>
<totfact> 0.13994376E+05</totfact>
</mgrwt>
</event>
<event>
 8    1  0.1372337E-020  0.7825783E+02  0.7818608E-02  0.1334069E+00
         -2   -1    0    0    0  501 -0.00000000000E+00  0.00000000000E+00  0.16105882944E+03  0.16105882946E+03  0.25500000000E-02 0.  1.
          1   -1    0    0  501    0  0.00000000000E+00 -0.00000000000E+00 -0.95062891710E+01  0.95062905071E+01  0.50400000000E-02 0. -1.
        -24    2    1    2    0    0  0.00000000000E+00  0.00000000000E+00  0.15155254027E+03  0.17056511997E+03  0.78257828283E+02 0.  0.
         66    2    3    3    0    0 -0.83582438565E+01 -0.37570473035E+02  0.90873257187E+02  0.98708406685E+02  0.19999984979E+01 0.  0.
         13    1    3    3    0    0  0.83582438565E+01  0.37570473035E+02  0.60679283084E+02  0.71856713285E+02  0.10566000000E+00 0. -1.
         13    1    4    4    0    0 -0.40055503904E+01 -0.15014614323E+02  0.35675264256E+02  0.38912963406E+02  0.10566000000E+00 0. -1.
        -13    1    4    4    0    0 -0.35530222310E+01 -0.16224697167E+02  0.39522460950E+02  0.42870745838E+02  0.10566000000E+00 0.  1.
         14    1    4    4    0    0 -0.79967123506E+00 -0.63311615452E+01  0.15675531981E+02  0.16924697442E+02  0.00000000000E+00 0. -1.
<mgrwt>
<rscale>  0 0.78257828E+02</rscale>
<asrwt>0</asrwt>
<pdfrwt beam="1">  1        1 0.14625062E-02 0.78257828E+02</pdfrwt>
<pdfrwt beam="2">  1       -2 0.24778280E-01 0.78257828E+02</pdfrwt>
<totfact> 0.97651106E+04</totfact>
</mgrwt>
</event>
<event>
 8    1  0.1372337E-020  0.7844354E+02  0.7818608E-02  0.1333527E+00
          1   -1    0    0  501    0  0.00000000000E+00  0.00000000000E+00  0.28618786569E+03  0.28618786573E+03  0.50400000000E-02 0. -1.
         -2   -1    0    0    0  501 -0.00000000000E+00 -0.00000000000E+00 -0.53753046082E+01  0.53753052130E+01  0.25500000000E-02 0.  1.
        -24    2    1    2    0    0  0.00000000000E+00  0.35527136788E-14  0.28081256108E+03  0.29156317094E+03  0.78443535052E+02 0.  0.
         66    2    3    3    0    0  0.34245370861E+02  0.19058700065E+02  0.14273556217E+03  0.14803182153E+03  0.20000008438E+01 0.  0.
         13    1    3    3    0    0 -0.34245370861E+02 -0.19058700065E+02  0.13807699890E+03  0.14353134941E+03  0.10566000000E+00 0. -1.
         13    1    4    4    0    0  0.32546374892E+01  0.22581187012E+01  0.15249174419E+02  0.15755641838E+02  0.10566000000E+00 0. -1.
        -13    1    4    4    0    0  0.37777044455E+01  0.19293503280E+01  0.16802931873E+02  0.17330410472E+02  0.10566000000E+00 0.  1.
        -14    1    4    4    0    0  0.27213028926E+02  0.14871231036E+02  0.11068345588E+03  0.11494576922E+03  0.00000000000E+00 0.  1.
<mgrwt>
<rscale>  0 0.78443535E+02</rscale>
<asrwt>0</asrwt>
<pdfrwt beam="1">  1        1 0.44028897E-01 0.78443535E+02</pdfrwt>
<pdfrwt beam="2">  1       -2 0.82697009E-03 0.78443535E+02</pdfrwt>
<totfact> 0.18829631E+05</totfact>
</mgrwt>
</event>
<event>
 8    1  0.1372337E-020  0.7959229E+02  0.7818608E-02  0.1330212E+00
         -2   -1    0    0    0  501 -0.00000000000E+00  0.00000000000E+00  0.15269786196E+03  0.15269786198E+03  0.25500000000E-02 0.  1.
          1   -1    0    0  501    0  0.00000000000E+00 -0.00000000000E+00 -0.10371677475E+02  0.10371678700E+02  0.50400000000E-02 0. -1.
        -24    2    1    2    0    0  0.00000000000E+00  0.35527136788E-14  0.14232618448E+03  0.16306954068E+03  0.79592287992E+02 0.  0.
         66    2    3    3    0    0 -0.56026814671E+00  0.21834111606E+02  0.13930384434E+03  0.14101986871E+03  0.19999983903E+01 0.  0.
         13    1    3    3    0    0  0.56026814671E+00 -0.21834111606E+02  0.30223401461E+01  0.22049671970E+02  0.10566000000E+00 0. -1.
         13    1    4    4    0    0 -0.64274729519E-01  0.58791410281E+01  0.34845928389E+02  0.35338623626E+02  0.10566000000E+00 0. -1.
        -13    1    4    4    0    0 -0.77511747965E+00  0.72326567769E+01  0.44197807991E+02  0.44792516410E+02  0.10566000000E+00 0.  1.
        -14    1    4    4    0    0  0.27912406246E+00  0.87223138008E+01  0.60260107957E+02  0.60888728671E+02  0.00000000000E+00 0.  1.
<mgrwt>
<rscale>  0 0.79592288E+02</rscale>
<asrwt>0</asrwt>
<pdfrwt beam="1">  1        1 0.15956429E-02 0.79592288E+02</pdfrwt>
<pdfrwt beam="2">  1       -2 0.23491978E-01 0.79592288E+02</pdfrwt>
<totfact> 0.95198459E+04</totfact>
</mgrwt>
</event>
<event>
 8    1  0.1372337E-020  0.8016306E+02  0.7818608E-02  0.1328589E+00
          1   -1    0    0  501    0  0.00000000000E+00  0.00000000000E+00  0.19978475384E+03  0.19978475390E+03  0.50400000000E-02 0. -1.
         -2   -1    0    0    0  501 -0.00000000000E+00 -0.00000000000E+00 -0.80412991964E+01  0.80412996007E+01  0.25500000000E-02 0.  1.
        -24    2    1    2    0    0  0.00000000000E+00  0.00000000000E+00  0.19174345464E+03  0.20782605350E+03  0.80163059550E+02 0.  0.
         66    2    3    3    0    0 -0.73934335347E+01  0.35798450026E+02  0.53463210185E+02  0.64795885165E+02  0.20000018132E+01 0.  0.
         13    1    3    3    0    0  0.73934335347E+01 -0.35798450026E+02  0.13828024446E+03  0.14303016834E+03  0.10566000000E+00 0. -1.
         13    1    4    4    0    0 -0.21359309622E+01  0.12587057750E+02  0.19718685952E+02  0.23491146494E+02  0.10566000000E+00 0. -1.
        -13    1    4    4    0    0 -0.19099143903E+01  0.95861675584E+01  0.13155094072E+02  0.16389327183E+02  0.10566000000E+00 0.  1.
        -14    1    4    4    0    0 -0.33475881823E+01  0.13625224718E+02  0.20589430160E+02  0.24915411487E+02  0.00000000000E+00 0.  1.
<mgrwt>
<rscale>  0 0.80163060E+02</rscale>
<asrwt>0</asrwt>
<pdfrwt beam="1">  1        1 0.30736118E-01 0.80163060E+02</pdfrwt>
<pdfrwt beam="2">  1       -2 0.12371229E-02 0.80163060E+02</pdfrwt>
<totfact> 0.16580549E+05</totfact>
</mgrwt>
</event>
<event>
 8    1  0.1372337E-020  0.7824736E+02  0.7818608E-02  0.1334100E+00
         -2   -1    0    0    0  501 -0.00000000000E+00  0.00000000000E+00  0.32034198458E+01  0.32034208608E+01  0.25500000000E-02 0.  1.
          1   -1    0    0  501    0  0.00000000000E+00 -0.00000000000E+00 -0.47782127648E+03  0.47782127650E+03  0.50400000000E-02 0. -1.
        -24    2    1    2    0    0  0.00000000000E+00  0.00000000000E+00 -0.47461785663E+03  0.48102469736E+03  0.78247361881E+02 0.  0.
         66    2    3    3    0    0 -0.94447163480E+01 -0.37931536066E+02 -0.24243246020E+03  0.24557178578E+03  0.20000288971E+01 0.  0.
         13    1    3    3    0    0  0.94447163480E+01  0.37931536066E+02 -0.23218539643E+03  0.23545291158E+03  0.10566000000E+00 0. -1.
         13    1    4    4    0    0 -0.28011442153E+01 -0.13436993602E+02 -0.80833964503E+02  0.81991098220E+02  0.10566000000E+00 0. -1.
        -13    1    4    4    0    0 -0.35388310838E+01 -0.12086856632E+02 -0.78839435286E+02  0.79839107892E+02  0.10566000000E+00 0.  1.
        -14    1    4    4    0    0 -0.31047410489E+01 -0.12407685832E+02 -0.82759060413E+02  0.83741579667E+02  0.00000000000E+00 0.  1.
<mgrwt>
<rscale>  0 0.78247362E+02</rscale>
<asrwt>0</asrwt>
<pdfrwt beam="1">  1        1 0.73510910E-01 0.78247362E+02</pdfrwt>
<pdfrwt beam="2">  1       -2 0.49283428E-03 0.78247362E+02</pdfrwt>
<totfact> 0.20663144E+05</totfact>
</mgrwt>
</event>
<event>
 8    1  0.1372337E-020  0.7939583E+02  0.7818608E-02  0.1330775E+00
          1   -1    0    0  501    0  0.00000000000E+00  0.00000000000E+00  0.17583144671E+02  0.17583145393E+02  0.50400000000E-02 0. -1.
         -2   -1    0    0    0  501 -0.00000000000E+00 -0.00000000000E+00 -0.89626994248E+02  0.89626994285E+02  0.25500000000E-02 0.  1.
        -24    2    1    2    0    0  0.00000000000E+00  0.00000000000E+00 -0.72043849578E+02  0.10721013968E+03  0.79395829788E+02 0.  0.
         66    2    3    3    0    0  0.68912489497E+01 -0.11956893234E+02 -0.86269947767E+02  0.87389704727E+02  0.19999991700E+01 0.  0.
         13    1    3    3    0    0 -0.68912489497E+01  0.11956893234E+02  0.14226098189E+02  0.19820434950E+02  0.10566000000E+00 0. -1.
         13    1    4    4    0    0  0.11206363988E+01 -0.26161996039E+01 -0.19928043974E+02  0.20130534692E+02  0.10566000000E+00 0. -1.
        -13    1    4    4    0    0  0.54231782506E+01 -0.83289529285E+01 -0.57494541521E+02  0.58347371731E+02  0.10566000000E+00 0.  1.
        -14    1    4    4    0    0  0.34743430033E+00 -0.10117407019E+01 -0.88473622715E+01  0.89117983036E+01  0.00000000000E+00 0.  1.
<mgrwt>
<rscale>  0 0.79395830E+02</rscale>
<asrwt>0</asrwt>
<pdfrwt beam="1">  1        1 0.27050993E-02 0.79395830E+02</pdfrwt>
<pdfrwt beam="2">  1       -2 0.13788768E-01 0.79395830E+02</pdfrwt>
<totfact> 0.11108342E+05</totfact>
</mgrwt>
</event>
<event>
 8    1  0.1372337E-020  0.7831523E+02  0.7818608E-02  0.1333902E+00
          1   -1    0    0  501    0  0.00000000000E+00  0.00000000000E+00  0.27980035552E+01  0.27980080944E+01  0.50400000000E-02 0. -1.
         -2   -1    0    0    0  501 -0.00000000000E+00 -0.00000000000E+00 -0.54800414426E+03  0.54800414427E+03  0.25500000000E-02 0.  1.
        -24    2    1    2    0    0 -0.35527136788E-14 -0.17763568394E-14 -0.54520614071E+03  0.55080215236E+03  0.78315229570E+02 0.  0.
         66    2    3    3    0    0  0.22336551864E+02  0.13159481921E+02 -0.47893906695E+03  0.47964437175E+03  0.19999962899E+01 0.  0.
         13    1    3    3    0    0 -0.22336551864E+02 -0.13159481921E+02 -0.66267073754E+02  0.71157780611E+02  0.10566000000E+00 0. -1.
         13    1    4    4    0    0  0.17102151814E+01  0.72166534846E+00 -0.33776361298E+02  0.33827494489E+02  0.10566000000E+00 0. -1.
        -13    1    4    4    0    0  0.93716517883E+01  0.51229829853E+01 -0.18485120370E+03  0.18515952983E+03  0.10566000000E+00 0.  1.
        -14    1    4    4    0    0  0.11254684894E+02  0.73148335876E+01 -0.26031150195E+03  0.26065734743E+03  0.00000000000E+00 0.  1.
<mgrwt>
<rscale>  0 0.78315230E+02</rscale>
<asrwt>0</asrwt>
<pdfrwt beam="1">  1        1 0.43046287E-03 0.78315230E+02</pdfrwt>
<pdfrwt beam="2">  1       -2 0.84308245E-01 0.78315230E+02</pdfrwt>
<totfact> 0.49519064E+04</totfact>
</mgrwt>
</event>
<event>
 8    1  0.1372337E-020  0.7914511E+02  0.7818608E-02  0.1331495E+00
          1   -1    0    0  501    0  0.00000000000E+00  0.00000000000E+00  0.19315849268E+02  0.19315849925E+02  0.50400000000E-02 0. -1.
         -2   -1    0    0    0  501 -0.00000000000E+00 -0.00000000000E+00 -0.81072650880E+02  0.81072650920E+02  0.25500000000E-02 0.  1.
        -24    2    1    2    0    0  0.35527136788E-14  0.17763568394E-14 -0.61756801612E+02  0.10038850085E+03  0.79145110756E+02 0.  0.
         66    2    3    3    0    0  0.19183892794E+02  0.12811640350E+02 -0.71641939721E+02  0.75290951350E+02  0.19999892592E+01 0.  0.
         13    1    3    3    0    0 -0.19183892794E+02 -0.12811640350E+02  0.98851381089E+01  0.25097549495E+02  0.10566000000E+00 0. -1.
         13    1    4    4    0    0  0.10374493191E+01  0.74415025869E+00 -0.31761300614E+01  0.34247666928E+01  0.10566000000E+00 0. -1.
        -13    1    4    4    0    0  0.88969081776E+00  0.52766686329E+00 -0.24009941326E+01  0.26164707012E+01  0.10566000000E+00 0.  1.
        -14    1    4    4    0    0  0.17256752657E+02  0.11539823228E+02 -0.66064815527E+02  0.69249713956E+02  0.00000000000E+00 0.  1.
<mgrwt>
<rscale>  0 0.79145111E+02</rscale>
<asrwt>0</asrwt>
<pdfrwt beam="1">  1        1 0.29716692E-02 0.79145111E+02</pdfrwt>
<pdfrwt beam="2">  1       -2 0.12472715E-01 0.79145111E+02</pdfrwt>
<totfact> 0.11453140E+05</totfact>
</mgrwt>
</event>
<event>
 8    1  0.1372337E-020  0.8076603E+02  0.7818608E-02  0.1326892E+00
         -2   -1    0    0    0  501 -0.00000000000E+00  0.00000000000E+00  0.59062757102E+01  0.59062762607E+01  0.25500000000E-02 0.  1.
          1   -1    0    0  501    0  0.00000000000E+00 -0.00000000000E+00 -0.27611099677E+03  0.27611099682E+03  0.50400000000E-02 0. -1.
        -24    2    1    2    0    0  0.00000000000E+00 -0.35527136788E-14 -0.27020472106E+03  0.28201727308E+03  0.80766026463E+02 0.  0.
         66    2    3    3    0    0 -0.29922112623E+02 -0.19825484037E+02 -0.70761838737E+02  0.79370148462E+02  0.20000010899E+01 0.  0.
         13    1    3    3    0    0  0.29922112623E+02  0.19825484037E+02 -0.19944288232E+03  0.20264712462E+03  0.10566000000E+00 0. -1.
         13    1    4    4    0    0 -0.98857133663E+01 -0.60731280350E+01 -0.21166714372E+02  0.24138168411E+02  0.10566000000E+00 0. -1.
        -13    1    4    4    0    0 -0.75730277313E+01 -0.54813654434E+01 -0.18826746683E+02  0.21020315669E+02  0.10566000000E+00 0.  1.
         14    1    4    4    0    0 -0.12463371526E+02 -0.82709905585E+01 -0.30768377682E+02  0.34211664382E+02  0.00000000000E+00 0. -1.
<mgrwt>
<rscale>  0 0.80766026E+02</rscale>
<asrwt>0</asrwt>
<pdfrwt beam="1">  1        1 0.42478605E-01 0.80766026E+02</pdfrwt>
<pdfrwt beam="2">  1       -2 0.90865806E-03 0.80766026E+02</pdfrwt>
<totfact> 0.17314589E+05</totfact>
</mgrwt>
</event>
<event>
 8    1  0.1372337E-020  0.7693100E+02  0.7818608E-02  0.1337994E+00
          1   -1    0    0  501    0  0.00000000000E+00  0.00000000000E+00  0.62997206889E+02  0.62997207091E+02  0.50400000000E-02 0. -1.
         -2   -1    0    0    0  501 -0.00000000000E+00 -0.00000000000E+00 -0.23486669868E+02  0.23486670007E+02  0.25500000000E-02 0.  1.
        -24    2    1    2    0    0 -0.35527136788E-14 -0.17763568394E-14  0.39510537021E+02  0.86483877097E+02  0.76930998057E+02 0.  0.
         66    2    3    3    0    0 -0.25749145354E+02  0.15325052477E+02 -0.72984512058E+01  0.30905389688E+02  0.20000004715E+01 0.  0.
         13    1    3    3    0    0  0.25749145354E+02 -0.15325052477E+02  0.46808988227E+02  0.55578487409E+02  0.10566000000E+00 0. -1.
         13    1    4    4    0    0 -0.88290773290E+01  0.57692986983E+01 -0.20452132082E+01  0.10743904088E+02  0.10566000000E+00 0. -1.
        -13    1    4    4    0    0 -0.81097905269E+01  0.43695828711E+01 -0.19407599758E+01  0.94148643207E+01  0.10566000000E+00 0.  1.
        -14    1    4    4    0    0 -0.88102774982E+01  0.51861709072E+01 -0.33124780218E+01  0.10746621279E+02  0.00000000000E+00 0.  1.
<mgrwt>
<rscale>  0 0.76930998E+02</rscale>
<asrwt>0</asrwt>
<pdfrwt beam="1">  1        1 0.96918780E-02 0.76930998E+02</pdfrwt>
<pdfrwt beam="2">  1       -2 0.36133339E-02 0.76930998E+02</pdfrwt>
<totfact> 0.15186943E+05</totfact>
</mgrwt>
</event>
<event>
 8    1  0.1372337E-020  0.7960123E+02  0.7818608E-02  0.1330187E+00
         -2   -1    0    0    0  501 -0.00000000000E+00  0.00000000000E+00  0.53648337737E+02  0.53648337797E+02  0.25500000000E-02 0.  1.
          1   -1    0    0  501    0  0.00000000000E+00 -0.00000000000E+00 -0.29527266900E+02  0.29527267330E+02  0.50400000000E-02 0. -1.
        -24    2    1    2    0    0  0.71054273576E-14  0.00000000000E+00  0.24121070836E+02  0.83175605128E+02  0.79601226310E+02 0.  0.
         66    2    3    3    0    0  0.36993586397E+02 -0.22257336254E+01  0.27159824320E+02  0.45990601276E+02  0.20000059775E+01 0.  0.
         13    1    3    3    0    0 -0.36993586397E+02  0.22257336254E+01 -0.30387534831E+01  0.37185003852E+02  0.10566000000E+00 0. -1.
         13    1    4    4    0    0  0.71424493582E+01 -0.16208814307E-01  0.56481380655E+01  0.91064522841E+01  0.10566000000E+00 0. -1.
        -13    1    4    4    0    0  0.11008934604E+02 -0.51599299705E+00  0.72452749587E+01  0.13189695340E+02  0.10566000000E+00 0.  1.
         14    1    4    4    0    0  0.18842202435E+02 -0.16935318141E+01  0.14266411295E+02  0.23694453652E+02  0.00000000000E+00 0. -1.
<mgrwt>
<rscale>  0 0.79601226E+02</rscale>
<asrwt>0</asrwt>
<pdfrwt beam="1">  1        1 0.45426566E-02 0.79601226E+02</pdfrwt>
<pdfrwt beam="2">  1       -2 0.82535903E-02 0.79601226E+02</pdfrwt>
<totfact> 0.12235322E+05</totfact>
</mgrwt>
</event>
<event>
 8    1  0.1372337E-020  0.7833185E+02  0.7818608E-02  0.1333853E+00
         -2   -1    0    0    0  501 -0.00000000000E+00  0.00000000000E+00  0.23833673561E+03  0.23833673562E+03  0.25500000000E-02 0.  1.
          1   -1    0    0  501    0  0.00000000000E+00 -0.00000000000E+00 -0.64361434768E+01  0.64361454502E+01  0.50400000000E-02 0. -1.
        -24    2    1    2    0    0  0.44408920985E-15  0.35527136788E-14  0.23190059213E+03  0.24477288107E+03  0.78331849700E+02 0.  0.
         66    2    3    3    0    0 -0.26458982693E+01 -0.17623058811E+02  0.22491976679E+03  0.22563349587E+03  0.19999963402E+01 0.  0.
         13    1    3    3    0    0  0.26458982693E+01  0.17623058811E+02  0.69808253425E+01  0.19139385205E+02  0.10566000000E+00 0. -1.
         13    1    4    4    0    0  0.16414957675E+00 -0.39047270561E+00  0.53766750766E+01  0.53943686315E+01  0.10566000000E+00 0. -1.
        -13    1    4    4    0    0 -0.30220182488E+00 -0.49218223162E+01  0.61908044201E+02  0.62104208889E+02  0.10566000000E+00 0.  1.
        -14    1    4    4    0    0 -0.25078460211E+01 -0.12310763790E+02  0.15763504751E+03  0.15813491835E+03  0.00000000000E+00 0.  1.
<mgrwt>
<rscale>  0 0.78331850E+02</rscale>
<asrwt>0</asrwt>
<pdfrwt beam="1">  1        1 0.99017603E-03 0.78331850E+02</pdfrwt>
<pdfrwt beam="2">  1       -2 0.36667192E-01 0.78331850E+02</pdfrwt>
<totfact> 0.83267614E+04</totfact>
</mgrwt>
</event>
<event>
 8    1  0.1372337E-020  0.7627594E+02  0.7818608E-02  0.1339965E+00
          1   -1    0    0  501    0  0.00000000000E+00  0.00000000000E+00  0.82314284555E+02  0.82314284709E+02  0.50400000000E-02 0. -1.
         -2   -1    0    0    0  501 -0.00000000000E+00 -0.00000000000E+00 -0.17670135627E+02  0.17670135811E+02  0.25500000000E-02 0.  1.
        -24    2    1    2    0    0  0.00000000000E+00  0.00000000000E+00  0.64644148928E+02  0.99984420520E+02  0.76275935628E+02 0.  0.
         66    2    3    3    0    0 -0.44711970443E+01  0.32347801004E+02  0.65863401933E+01  0.33372918871E+02  0.20000010012E+01 0.  0.
         13    1    3    3    0    0  0.44711970443E+01 -0.32347801004E+02  0.58057808735E+02  0.66611501649E+02  0.10566000000E+00 0. -1.
         13    1    4    4    0    0  0.25591095543E-01  0.17054298416E+01  0.24472433496E+00  0.17263255442E+01  0.10566000000E+00 0. -1.
        -13    1    4    4    0    0 -0.19825461300E+01  0.17939106350E+02  0.33757891884E+01  0.18361621455E+02  0.10566000000E+00 0.  1.
        -14    1    4    4    0    0 -0.25142420099E+01  0.12703264813E+02  0.29658266700E+01  0.13284971871E+02  0.00000000000E+00 0.  1.
<mgrwt>
<rscale>  0 0.76275936E+02</rscale>
<asrwt>0</asrwt>
<pdfrwt beam="1">  1        1 0.12663736E-01 0.76275936E+02</pdfrwt>
<pdfrwt beam="2">  1       -2 0.27184824E-02 0.76275936E+02</pdfrwt>
<totfact> 0.16199024E+05</totfact>
</mgrwt>
</event>
<event>
 8    1  0.1372337E-020  0.8021688E+02  0.7818608E-02  0.1328437E+00
         -2   -1    0    0    0  501 -0.00000000000E+00  0.00000000000E+00  0.27015281811E+02  0.27015281931E+02  0.25500000000E-02 0.  1.
          1   -1    0    0  501    0  0.00000000000E+00 -0.00000000000E+00 -0.59547299891E+02  0.59547300105E+02  0.50400000000E-02 0. -1.
        -24    2    1    2    0    0  0.00000000000E+00  0.88817841970E-15 -0.32532018081E+02  0.86562582035E+02  0.80216883561E+02 0.  0.
         66    2    3    3    0    0 -0.11370206806E+02 -0.57325439033E+01  0.24737609981E+02  0.27894318683E+02  0.20000011940E+01 0.  0.
         13    1    3    3    0    0  0.11370206806E+02  0.57325439033E+01 -0.57269628062E+02  0.58668263353E+02  0.10566000000E+00 0. -1.
         13    1    4    4    0    0 -0.17411649127E+01 -0.11260745668E+01  0.28294522636E+01  0.35095104118E+01  0.10566000000E+00 0. -1.
        -13    1    4    4    0    0 -0.82356451397E+01 -0.42538995283E+01  0.19023284160E+02  0.21161711091E+02  0.10566000000E+00 0.  1.
        -14    1    4    4    0    0 -0.13933967532E+01 -0.35256980821E+00  0.28848735583E+01  0.32230971795E+01  0.00000000000E+00 0.  1.
<mgrwt>
<rscale>  0 0.80216884E+02</rscale>
<asrwt>0</asrwt>
<pdfrwt beam="1">  1        1 0.91611231E-02 0.80216884E+02</pdfrwt>
<pdfrwt beam="2">  1       -2 0.41561972E-02 0.80216884E+02</pdfrwt>
<totfact> 0.13421831E+05</totfact>
</mgrwt>
</event>
<event>
 8    1  0.1372337E-020  0.8169856E+02  0.7818608E-02  0.1324299E+00
         -2   -1    0    0    0  501 -0.00000000000E+00  0.00000000000E+00  0.52220310100E+02  0.52220310162E+02  0.25500000000E-02 0.  1.
          1   -1    0    0  501    0  0.00000000000E+00 -0.00000000000E+00 -0.31954305160E+02  0.31954305557E+02  0.50400000000E-02 0. -1.
        -24    2    1    2    0    0  0.00000000000E+00 -0.17763568394E-14  0.20266004940E+02  0.84174615719E+02  0.81698561648E+02 0.  0.
         66    2    3    3    0    0  0.29836826565E+02 -0.11998139234E+02  0.36050151061E+02  0.48350852694E+02  0.20000000451E+01 0.  0.
         13    1    3    3    0    0 -0.29836826565E+02  0.11998139234E+02 -0.15784146121E+02  0.35823763026E+02  0.10566000000E+00 0. -1.
         13    1    4    4    0    0  0.11362150337E+02 -0.43921246142E+01  0.12827140514E+02  0.17689994820E+02  0.10566000000E+00 0. -1.
        -13    1    4    4    0    0  0.64803564580E+01 -0.20410667029E+01  0.80923753907E+01  0.10566866925E+02  0.10566000000E+00 0.  1.
         14    1    4    4    0    0  0.11994319770E+02 -0.55649479165E+01  0.15130635156E+02  0.20093990949E+02  0.00000000000E+00 0. -1.
<mgrwt>
<rscale>  0 0.81698562E+02</rscale>
<asrwt>0</asrwt>
<pdfrwt beam="1">  1        1 0.49160471E-02 0.81698562E+02</pdfrwt>
<pdfrwt beam="2">  1       -2 0.80338938E-02 0.81698562E+02</pdfrwt>
<totfact> 0.11514274E+05</totfact>
</mgrwt>
</event>
<event>
 8    1  0.1372337E-020  0.8040450E+02  0.7818608E-02  0.1327907E+00
         -2   -1    0    0    0  501 -0.00000000000E+00  0.00000000000E+00  0.74487330501E+01  0.74487334866E+01  0.25500000000E-02 0.  1.
          1   -1    0    0  501    0  0.00000000000E+00 -0.00000000000E+00 -0.21697932198E+03  0.21697932204E+03  0.50400000000E-02 0. -1.
        -24    2    1    2    0    0  0.00000000000E+00  0.00000000000E+00 -0.20953058893E+03  0.22442805552E+03  0.80404504907E+02 0.  0.
         66    2    3    3    0    0  0.91841501823E+01 -0.39054385253E+02 -0.98828766325E+02  0.10668045124E+03  0.20000004943E+01 0.  0.
         13    1    3    3    0    0 -0.91841501823E+01  0.39054385253E+02 -0.11070182260E+03  0.11774760428E+03  0.10566000000E+00 0. -1.
         13    1    4    4    0    0  0.51284093119E+01 -0.18728142679E+02 -0.48736779050E+02  0.52462641056E+02  0.10566000000E+00 0. -1.
        -13    1    4    4    0    0  0.97450457255E+00 -0.69014754669E+01 -0.16631206143E+02  0.18032975478E+02  0.10566000000E+00 0. -1.
        -14    1    4    4    0    0  0.30812362979E+01 -0.13424767107E+02 -0.33460781132E+02  0.36184834710E+02  0.00000000000E+00 0.  1.
<mgrwt>
<rscale>  0 0.80404505E+02</rscale>
<asrwt>0</asrwt>
<pdfrwt beam="1">  1        1 0.33381429E-01 0.80404505E+02</pdfrwt>
<pdfrwt beam="2">  1       -2 0.11459591E-02 0.80404505E+02</pdfrwt>
<totfact> 0.16715436E+05</totfact>
</mgrwt>
</event>
<event>
 8    1  0.1372337E-020  0.8322001E+02  0.7818608E-02  0.1320154E+00
         -2   -1    0    0    0  501 -0.00000000000E+00  0.00000000000E+00  0.15933020827E+03  0.15933020829E+03  0.25500000000E-02 0.  1.
          1   -1    0    0  501    0  0.00000000000E+00 -0.00000000000E+00 -0.10866692285E+02  0.10866693454E+02  0.50400000000E-02 0. -1.
        -24    2    1    2    0    0  0.00000000000E+00  0.00000000000E+00  0.14846351599E+03  0.17019690175E+03  0.83220008321E+02 0.  0.
         66    2    3    3    0    0  0.97374556943E+01  0.39633948251E+02  0.90599777129E+02  0.99388065179E+02  0.19999966995E+01 0.  0.
         13    1    3    3    0    0 -0.97374556943E+01 -0.39633948251E+02  0.57863738860E+02  0.70808836569E+02  0.10566000000E+00 0. -1.
         13    1    4    4    0    0  0.57544434558E+01  0.26235451612E+02  0.58318970149E+02  0.64206899817E+02  0.10566000000E+00 0. -1.
        -13    1    4    4    0    0  0.11169207120E+01  0.38120968093E+01  0.97396347387E+01  0.10519089449E+02  0.10566000000E+00 0.  1.
        -14    1    4    4    0    0  0.28660915265E+01  0.95863998299E+01  0.22541172242E+02  0.24662075914E+02  0.00000000000E+00 0.  1.
<mgrwt>
<rscale>  0 0.83220008E+02</rscale>
<asrwt>0</asrwt>
<pdfrwt beam="1">  1        1 0.16717990E-02 0.83220008E+02</pdfrwt>
<pdfrwt beam="2">  1       -2 0.24512338E-01 0.83220008E+02</pdfrwt>
<totfact> 0.83656528E+04</totfact>
</mgrwt>
</event>
<event>
 8    1  0.1372337E-020  0.8286514E+02  0.7818608E-02  0.1321112E+00
          1   -1    0    0  501    0  0.00000000000E+00  0.00000000000E+00  0.12071837597E+03  0.12071837608E+03  0.50400000000E-02 0. -1.
         -2   -1    0    0    0  501 -0.00000000000E+00 -0.00000000000E+00 -0.14220351359E+02  0.14220351588E+02  0.25500000000E-02 0.  1.
        -24    2    1    2    0    0 -0.88817841970E-15  0.35527136788E-14  0.10649802461E+03  0.13493872766E+03  0.82865137286E+02 0.  0.
         66    2    3    3    0    0 -0.73726798395E+01  0.20685126714E+02 -0.38869301083E+01  0.22390603434E+02  0.20000053185E+01 0.  0.
         13    1    3    3    0    0  0.73726798395E+01 -0.20685126714E+02  0.11038495472E+03  0.11254812423E+03  0.10566000000E+00 0. -1.
         13    1    4    4    0    0 -0.36151640893E+01  0.10822376797E+02 -0.11464217919E+01  0.11468160179E+02  0.10566000000E+00 0. -1.
        -13    1    4    4    0    0 -0.12184852503E+01  0.39355587776E+01 -0.12097887002E+01  0.42951230403E+01  0.10566000000E+00 0.  1.
         14    1    4    4    0    0 -0.25390304999E+01  0.59271911391E+01 -0.15307196163E+01  0.66273202143E+01  0.00000000000E+00 0. -1.
<mgrwt>
<rscale>  0 0.82865137E+02</rscale>
<asrwt>0</asrwt>
<pdfrwt beam="1">  1        1 0.18572058E-01 0.82865137E+02</pdfrwt>
<pdfrwt beam="2">  1       -2 0.21877464E-02 0.82865137E+02</pdfrwt>
<totfact> 0.13809448E+05</totfact>
</mgrwt>
</event>
<event>
 8    1  0.1372337E-020  0.7080437E+02  0.7818608E-02  0.1357379E+00
          1   -1    0    0  501    0  0.00000000000E+00  0.00000000000E+00  0.72559912031E+01  0.72559929535E+01  0.50400000000E-02 0. -1.
         -2   -1    0    0    0  501 -0.00000000000E+00 -0.00000000000E+00 -0.17272823014E+03  0.17272823015E+03  0.25500000000E-02 0.  1.
        -24    2    1    2    0    0 -0.71054273576E-14  0.35527136788E-14 -0.16547223893E+03  0.17998422311E+03  0.70804369289E+02 0.  0.
         66    2    3    3    0    0 -0.20769530292E+02  0.15686258053E+02 -0.14369729400E+03  0.14604911634E+03  0.20000003374E+01 0.  0.
         13    1    3    3    0    0  0.20769530292E+02 -0.15686258053E+02 -0.21774944931E+02  0.33935106764E+02  0.10566000000E+00 0. -1.
         13    1    4    4    0    0 -0.12906184143E+01  0.13358766076E+01 -0.95325070781E+01  0.97123693006E+01  0.10566000000E+00 0. -1.
        -13    1    4    4    0    0 -0.38205824712E+01  0.31638695261E+01 -0.24720480122E+02  0.25213492862E+02  0.10566000000E+00 0.  1.
        -14    1    4    4    0    0 -0.15658329407E+02  0.11186511920E+02 -0.10944430680E+03  0.11112325418E+03  0.00000000000E+00 0.  1.
<mgrwt>
<rscale>  0 0.70804369E+02</rscale>
<asrwt>0</asrwt>
<pdfrwt beam="1">  1        1 0.11163066E-02 0.70804369E+02</pdfrwt>
<pdfrwt beam="2">  1       -2 0.26573571E-01 0.70804369E+02</pdfrwt>
<totfact> 0.12310965E+05</totfact>
</mgrwt>
</event>
<event>
 8    1  0.1372337E-020  0.7984955E+02  0.7818608E-02  0.1329479E+00
         -2   -1    0    0    0  501 -0.00000000000E+00  0.00000000000E+00  0.13400437431E+03  0.13400437433E+03  0.25500000000E-02 0.  1.
          1   -1    0    0  501    0  0.00000000000E+00 -0.00000000000E+00 -0.11895041846E+02  0.11895042914E+02  0.50400000000E-02 0. -1.
        -24    2    1    2    0    0  0.35527136788E-14  0.00000000000E+00  0.12210933246E+03  0.14589941725E+03  0.79849551523E+02 0.  0.
         66    2    3    3    0    0  0.19058738620E+02  0.23524348465E+02  0.10857674899E+03  0.11273659970E+03  0.20000001067E+01 0.  0.
         13    1    3    3    0    0 -0.19058738620E+02 -0.23524348465E+02  0.13532583467E+02  0.33162817549E+02  0.10566000000E+00 0. -1.
         13    1    4    4    0    0  0.43807761776E+01  0.57642331819E+01  0.28636726106E+02  0.29537955755E+02  0.10566000000E+00 0. -1.
        -13    1    4    4    0    0  0.92783337992E+01  0.10633836425E+02  0.48316383315E+02  0.50335375393E+02  0.10566000000E+00 0.  1.
         14    1    4    4    0    0  0.53996286430E+01  0.71262788578E+01  0.31623639573E+02  0.32863268548E+02  0.00000000000E+00 0. -1.
<mgrwt>
<rscale>  0 0.79849552E+02</rscale>
<asrwt>0</asrwt>
<pdfrwt beam="1">  1        1 0.18300065E-02 0.79849552E+02</pdfrwt>
<pdfrwt beam="2">  1       -2 0.20616058E-01 0.79849552E+02</pdfrwt>
<totfact> 0.98412078E+04</totfact>
</mgrwt>
</event>
<event>
 8    1  0.1372337E-020  0.8025252E+02  0.7818608E-02  0.1328336E+00
          1   -1    0    0  501    0  0.00000000000E+00  0.00000000000E+00  0.84699364040E+01  0.84699379035E+01  0.50400000000E-02 0. -1.
         -2   -1    0    0    0  501 -0.00000000000E+00 -0.00000000000E+00 -0.19009783063E+03  0.19009783065E+03  0.25500000000E-02 0.  1.
        -24    2    1    2    0    0  0.00000000000E+00  0.17763568394E-14 -0.18162789423E+03  0.19856776855E+03  0.80252518629E+02 0.  0.
         66    2    3    3    0    0  0.35854786494E+02  0.14918800571E+02 -0.11561001814E+03  0.12197463928E+03  0.20000018833E+01 0.  0.
         13    1    3    3    0    0 -0.35854786494E+02 -0.14918800571E+02 -0.66017876088E+02  0.76593129275E+02  0.10566000000E+00 0. -1.
         13    1    4    4    0    0  0.13290563612E+02  0.54893744066E+01 -0.45380949756E+02  0.47604769480E+02  0.10566000000E+00 0. -1.
        -13    1    4    4    0    0  0.10361473119E+02  0.42672479520E+01 -0.33413425320E+02  0.35242555043E+02  0.10566000000E+00 0.  1.
        -14    1    4    4    0    0  0.12202749762E+02  0.51621782121E+01 -0.36815643065E+02  0.39127314755E+02  0.00000000000E+00 0.  1.
<mgrwt>
<rscale>  0 0.80252519E+02</rscale>
<asrwt>0</asrwt>
<pdfrwt beam="1">  1        1 0.13030674E-02 0.80252519E+02</pdfrwt>
<pdfrwt beam="2">  1       -2 0.29245817E-01 0.80252519E+02</pdfrwt>
<totfact> 0.86111433E+04</totfact>
</mgrwt>
</event>
<event>
 8    1  0.1372337E-020  0.8077836E+02  0.7818608E-02  0.1326857E+00
          1   -1    0    0  501    0  0.00000000000E+00  0.00000000000E+00  0.46809673638E+02  0.46809673909E+02  0.50400000000E-02 0. -1.
         -2   -1    0    0    0  501 -0.00000000000E+00 -0.00000000000E+00 -0.34849331750E+02  0.34849331844E+02  0.25500000000E-02 0.  1.
        -24    2    1    2    0    0  0.71054273576E-14  0.00000000000E+00  0.11960341887E+02  0.81659005753E+02  0.80778359989E+02 0.  0.
         66    2    3    3    0    0  0.34666592291E+02  0.10672858230E+02 -0.11917942603E+02  0.38232445239E+02  0.19999973029E+01 0.  0.
         13    1    3    3    0    0 -0.34666592291E+02 -0.10672858230E+02  0.23878284491E+02  0.43426560514E+02  0.10566000000E+00 0. -1.
         13    1    4    4    0    0  0.87350106252E+01  0.22852952869E+01 -0.24530003010E+01  0.93568883547E+01  0.10566000000E+00 0. -1.
        -13    1    4    4    0    0  0.22551898331E+02  0.69366330056E+01 -0.84173221217E+01  0.25051296803E+02  0.10566000000E+00 0.  1.
        -14    1    4    4    0    0  0.33796833343E+01  0.14509299373E+01 -0.10476201806E+01  0.38242600808E+01  0.00000000000E+00 0.  1.
<mgrwt>
<rscale>  0 0.80778360E+02</rscale>
<asrwt>0</asrwt>
<pdfrwt beam="1">  1        1 0.72014883E-02 0.80778360E+02</pdfrwt>
<pdfrwt beam="2">  1       -2 0.53614357E-02 0.80778360E+02</pdfrwt>
<totfact> 0.12673510E+05</totfact>
</mgrwt>
</event>
<event>
 8    1  0.1372337E-020  0.7880953E+02  0.7818608E-02  0.1332464E+00
         -2   -1    0    0    0  501 -0.00000000000E+00  0.00000000000E+00  0.20464725783E+02  0.20464725942E+02  0.25500000000E-02 0.  1.
          1   -1    0    0  501    0  0.00000000000E+00 -0.00000000000E+00 -0.75873747933E+02  0.75873748101E+02  0.50400000000E-02 0. -1.
        -24    2    1    2    0    0  0.00000000000E+00  0.00000000000E+00 -0.55409022150E+02  0.96338474042E+02  0.78809528898E+02 0.  0.
         66    2    3    3    0    0  0.38171399956E+02 -0.74315286623E+01 -0.35302020727E+02  0.52559642821E+02  0.19999982950E+01 0.  0.
         13    1    3    3    0    0 -0.38171399956E+02  0.74315286623E+01 -0.20107001423E+02  0.43778831221E+02  0.10566000000E+00 0. -1.
         13    1    4    4    0    0  0.99633420684E+01 -0.19918239352E+01 -0.10195027379E+02  0.14393932578E+02  0.10566000000E+00 0. -1.
        -13    1    4    4    0    0  0.15134759880E+02 -0.34084462717E+01 -0.13449448622E+02  0.20532347524E+02  0.10566000000E+00 0.  1.
        -14    1    4    4    0    0  0.13073298008E+02 -0.20312584554E+01 -0.11657544727E+02  0.17633362719E+02  0.00000000000E+00 0.  1.
<mgrwt>
<rscale>  0 0.78809529E+02</rscale>
<asrwt>0</asrwt>
<pdfrwt beam="1">  1        1 0.11672884E-01 0.78809529E+02</pdfrwt>
<pdfrwt beam="2">  1       -2 0.31484194E-02 0.78809529E+02</pdfrwt>
<totfact> 0.14635679E+05</totfact>
</mgrwt>
</event>
<event>
 8    1  0.1372337E-020  0.7711998E+02  0.7818608E-02  0.1337429E+00
          1   -1    0    0  501    0  0.00000000000E+00  0.00000000000E+00  0.18073276060E+03  0.18073276067E+03  0.50400000000E-02 0. -1.
         -2   -1    0    0    0  501 -0.00000000000E+00 -0.00000000000E+00 -0.82269144904E+01  0.82269148856E+01  0.25500000000E-02 0.  1.
        -24    2    1    2    0    0  0.00000000000E+00  0.00000000000E+00  0.17250584611E+03  0.18895967556E+03  0.77119984727E+02 0.  0.
         66    2    3    3    0    0 -0.31399799343E+02 -0.10212121240E+02  0.37636544531E+02  0.50107327749E+02  0.19999977477E+01 0.  0.
         13    1    3    3    0    0  0.31399799343E+02  0.10212121240E+02  0.13486930158E+03  0.13885234781E+03  0.10566000000E+00 0. -1.
         13    1    4    4    0    0 -0.13179535828E+02 -0.41165446419E+01  0.16647016962E+02  0.21628232526E+02  0.10566000000E+00 0. -1.
        -13    1    4    4    0    0 -0.17639747455E+02 -0.59412125368E+01  0.20596637143E+02  0.27761327820E+02  0.10566000000E+00 0.  1.
         14    1    4    4    0    0 -0.58051606029E+00 -0.15436406088E+00  0.39289042619E+00  0.71776740421E+00  0.00000000000E+00 0. -1.
<mgrwt>
<rscale>  0 0.77119985E+02</rscale>
<asrwt>0</asrwt>
<pdfrwt beam="1">  1        1 0.27805039E-01 0.77119985E+02</pdfrwt>
<pdfrwt beam="2">  1       -2 0.12656792E-02 0.77119985E+02</pdfrwt>
<totfact> 0.18022854E+05</totfact>
</mgrwt>
</event>
<event>
 8    1  0.1372337E-020  0.8247586E+02  0.7818608E-02  0.1322169E+00
          1   -1    0    0  501    0  0.00000000000E+00  0.00000000000E+00  0.52497435909E+02  0.52497436151E+02  0.50400000000E-02 0. -1.
         -2   -1    0    0    0  501 -0.00000000000E+00 -0.00000000000E+00 -0.32393331896E+02  0.32393331996E+02  0.25500000000E-02 0.  1.
        -24    2    1    2    0    0  0.00000000000E+00  0.00000000000E+00  0.20104104013E+02  0.84890768147E+02  0.82475860216E+02 0.  0.
         66    2    3    3    0    0 -0.29528725068E+01 -0.40263816679E+02  0.15287287908E+01  0.40450357277E+02  0.20000006174E+01 0.  0.
         13    1    3    3    0    0  0.29528725068E+01  0.40263816679E+02  0.18575375222E+02  0.44440410870E+02  0.10566000000E+00 0. -1.
         13    1    4    4    0    0 -0.19213147595E+01 -0.15837047847E+02  0.12033654121E+01  0.15998837060E+02  0.10566000000E+00 0. -1.
        -13    1    4    4    0    0 -0.57902578454E+00 -0.13552500805E+02  0.11106448499E+00  0.13565730658E+02  0.10566000000E+00 0.  1.
         14    1    4    4    0    0 -0.45253196281E+00 -0.10874268027E+02  0.21429889373E+00  0.10885789559E+02  0.00000000000E+00 0. -1.
<mgrwt>
<rscale>  0 0.82475860E+02</rscale>
<asrwt>0</asrwt>
<pdfrwt beam="1">  1        1 0.80765286E-02 0.82475860E+02</pdfrwt>
<pdfrwt beam="2">  1       -2 0.49835896E-02 0.82475860E+02</pdfrwt>
<totfact> 0.12180407E+05</totfact>
</mgrwt>
</event>
<event>
 8    1  0.1372337E-020  0.7908790E+02  0.7818608E-02  0.1331660E+00
          1   -1    0    0  501    0  0.00000000000E+00  0.00000000000E+00  0.42350774780E+02  0.42350775080E+02  0.50400000000E-02 0. -1.
         -2   -1    0    0    0  501 -0.00000000000E+00 -0.00000000000E+00 -0.36923152256E+02  0.36923152344E+02  0.25500000000E-02 0.  1.
        -24    2    1    2    0    0  0.00000000000E+00  0.00000000000E+00  0.54276225242E+01  0.79273927425E+02  0.79087903519E+02 0.  0.
         66    2    3    3    0    0  0.15968839326E+02  0.99659278463E+01 -0.32113787365E+02  0.37277592254E+02  0.19999995359E+01 0.  0.
         13    1    3    3    0    0 -0.15968839326E+02 -0.99659278463E+01  0.37541409889E+02  0.41996335170E+02  0.10566000000E+00 0. -1.
         13    1    4    4    0    0  0.23795866595E+01  0.20186392466E+01 -0.55847922579E+01  0.63983127212E+01  0.10566000000E+00 0. -1.
        -13    1    4    4    0    0  0.78525457888E+01  0.53696966583E+01 -0.16094117078E+02  0.18695664902E+02  0.10566000000E+00 0.  1.
        -14    1    4    4    0    0  0.57367068773E+01  0.25775919413E+01 -0.10434878029E+02  0.12183614631E+02  0.00000000000E+00 0.  1.
<mgrwt>
<rscale>  0 0.79087904E+02</rscale>
<asrwt>0</asrwt>
<pdfrwt beam="1">  1        1 0.65155038E-02 0.79087904E+02</pdfrwt>
<pdfrwt beam="2">  1       -2 0.56804850E-02 0.79087904E+02</pdfrwt>
<totfact> 0.13233911E+05</totfact>
</mgrwt>
</event>
<event>
 8    1  0.1372337E-020  0.8041013E+02  0.7818608E-02  0.1327892E+00
          1   -1    0    0  501    0  0.00000000000E+00  0.00000000000E+00  0.32730754888E+02  0.32730755276E+02  0.50400000000E-02 0. -1.
         -2   -1    0    0    0  501 -0.00000000000E+00 -0.00000000000E+00 -0.49386183332E+02  0.49386183397E+02  0.25500000000E-02 0.  1.
        -24    2    1    2    0    0  0.00000000000E+00  0.35527136788E-14 -0.16655428444E+02  0.82116938673E+02  0.80410125733E+02 0.  0.
         66    2    3    3    0    0 -0.26399426800E+02  0.22514105816E+02 -0.29026924942E+02  0.45281089481E+02  0.19999992254E+01 0.  0.
         13    1    3    3    0    0  0.26399426800E+02 -0.22514105816E+02  0.12371496498E+02  0.36835849192E+02  0.10566000000E+00 0. -1.
         13    1    4    4    0    0 -0.81195949791E+01  0.57949671288E+01 -0.80885283793E+01  0.12843088493E+02  0.10566000000E+00 0. -1.
        -13    1    4    4    0    0 -0.66939400749E+01  0.61406219165E+01 -0.78724743791E+01  0.12020943729E+02  0.10566000000E+00 0.  1.
         14    1    4    4    0    0 -0.11585891746E+02  0.10578516771E+02 -0.13065922184E+02  0.20417057259E+02  0.00000000000E+00 0. -1.
<mgrwt>
<rscale>  0 0.80410126E+02</rscale>
<asrwt>0</asrwt>
<pdfrwt beam="1">  1        1 0.50355008E-02 0.80410126E+02</pdfrwt>
<pdfrwt beam="2">  1       -2 0.75978743E-02 0.80410126E+02</pdfrwt>
<totfact> 0.12101765E+05</totfact>
</mgrwt>
</event>
<event>
 8    1  0.1372337E-020  0.7963348E+02  0.7818608E-02  0.1330095E+00
         -2   -1    0    0    0  501 -0.00000000000E+00  0.00000000000E+00  0.56807668338E+02  0.56807668396E+02  0.25500000000E-02 0.  1.
          1   -1    0    0  501    0  0.00000000000E+00 -0.00000000000E+00 -0.27907727771E+02  0.27907728226E+02  0.50400000000E-02 0. -1.
        -24    2    1    2    0    0  0.00000000000E+00  0.00000000000E+00  0.28899940567E+02  0.84715396622E+02  0.79633484540E+02 0.  0.
         66    2    3    3    0    0  0.27914142001E+02  0.28286936064E+02  0.12326660061E+02  0.41656891465E+02  0.19999956864E+01 0.  0.
         13    1    3    3    0    0 -0.27914142001E+02 -0.28286936064E+02  0.16573280506E+02  0.43058505156E+02  0.10566000000E+00 0. -1.
         13    1    4    4    0    0  0.18202318683E+02  0.17935013303E+02  0.77679703665E+01  0.26708456250E+02  0.10566000000E+00 0. -1.
        -13    1    4    4    0    0  0.68702316787E+01  0.69338711101E+01  0.26808171000E+01  0.10123072471E+02  0.10566000000E+00 0.  1.
         14    1    4    4    0    0  0.28415916401E+01  0.34180516507E+01  0.18778725947E+01  0.48253627447E+01  0.00000000000E+00 0. -1.
<mgrwt>
<rscale>  0 0.79633485E+02</rscale>
<asrwt>0</asrwt>
<pdfrwt beam="1">  1        1 0.42934966E-02 0.79633485E+02</pdfrwt>
<pdfrwt beam="2">  1       -2 0.87396413E-02 0.79633485E+02</pdfrwt>
<totfact> 0.12098184E+05</totfact>
</mgrwt>
</event>
<event>
 8    1  0.1372337E-020  0.8204742E+02  0.7818608E-02  0.1323340E+00
         -2   -1    0    0    0  501 -0.00000000000E+00  0.00000000000E+00  0.12691626421E+02  0.12691626677E+02  0.25500000000E-02 0.  1.
          1   -1    0    0  501    0  0.00000000000E+00 -0.00000000000E+00 -0.13260276990E+03  0.13260276999E+03  0.50400000000E-02 0. -1.
        -24    2    1    2    0    0 -0.17763568394E-14  0.17763568394E-14 -0.11991114348E+03  0.14529439667E+03  0.82047421495E+02 0.  0.
         66    2    3    3    0    0 -0.15312632904E+02  0.15338041362E+02  0.16390518289E+01  0.21827018865E+02  0.20000055878E+01 0.  0.
         13    1    3    3    0    0  0.15312632904E+02 -0.15338041362E+02 -0.12155019531E+03  0.12346737781E+03  0.10566000000E+00 0. -1.
         13    1    4    4    0    0 -0.62635668302E+01  0.62657204971E+01  0.60528670368E+00  0.88808253452E+01  0.10566000000E+00 0.  1.
        -13    1    4    4    0    0 -0.31228535779E+01  0.32494602834E+01 -0.35812296693E+00  0.45222364708E+01  0.10566000000E+00 0. -1.
         14    1    4    4    0    0 -0.59262124964E+01  0.58228605813E+01  0.13918880922E+01  0.84239570490E+01  0.00000000000E+00 0. -1.
<mgrwt>
<rscale>  0 0.82047421E+02</rscale>
<asrwt>0</asrwt>
<pdfrwt beam="1">  1        1 0.20400425E-01 0.82047421E+02</pdfrwt>
<pdfrwt beam="2">  1       -2 0.19525580E-02 0.82047421E+02</pdfrwt>
<totfact> 0.14425309E+05</totfact>
</mgrwt>
</event>
<event>
 8    1  0.1372337E-020  0.7998632E+02  0.7818608E-02  0.1329090E+00
          1   -1    0    0  501    0  0.00000000000E+00  0.00000000000E+00  0.25151758886E+02  0.25151759391E+02  0.50400000000E-02 0. -1.
         -2   -1    0    0    0  501 -0.00000000000E+00 -0.00000000000E+00 -0.63592090032E+02  0.63592090083E+02  0.25500000000E-02 0.  1.
        -24    2    1    2    0    0 -0.17763568394E-14 -0.88817841970E-15 -0.38440331147E+02  0.88743849474E+02  0.79986322336E+02 0.  0.
         66    2    3    3    0    0 -0.10480515698E+02  0.79195897160E+01 -0.61112732507E+02  0.62540604292E+02  0.20000000302E+01 0.  0.
         13    1    3    3    0    0  0.10480515698E+02 -0.79195897160E+01  0.22672401361E+02  0.26203245182E+02  0.10566000000E+00 0. -1.
         13    1    4    4    0    0 -0.39864428747E+01  0.25813422955E+01 -0.19637340987E+02  0.20203746680E+02  0.10566000000E+00 0. -1.
        -13    1    4    4    0    0 -0.19781077822E+01  0.16604608922E+01 -0.15727242262E+02  0.15938235598E+02  0.10566000000E+00 0.  1.
         14    1    4    4    0    0 -0.45159650408E+01  0.36777865283E+01 -0.25748149259E+02  0.26398622014E+02  0.00000000000E+00 0. -1.
<mgrwt>
<rscale>  0 0.79986322E+02</rscale>
<asrwt>0</asrwt>
<pdfrwt beam="1">  1        1 0.38695014E-02 0.79986322E+02</pdfrwt>
<pdfrwt beam="2">  1       -2 0.97833984E-02 0.79986322E+02</pdfrwt>
<totfact> 0.11714620E+05</totfact>
</mgrwt>
</event>
<event>
 8    1  0.1372337E-020  0.8726139E+02  0.7818608E-02  0.1309622E+00
          1   -1    0    0  501    0  0.00000000000E+00  0.00000000000E+00  0.11974153410E+02  0.11974154471E+02  0.50400000000E-02 0. -1.
         -2   -1    0    0    0  501 -0.00000000000E+00 -0.00000000000E+00 -0.15897888056E+03  0.15897888058E+03  0.25500000000E-02 0.  1.
        -24    2    1    2    0    0 -0.35527136788E-14 -0.35527136788E-14 -0.14700472715E+03  0.17095303505E+03  0.87261391170E+02 0.  0.
         66    2    3    3    0    0 -0.30403745576E+02 -0.26593781217E+02 -0.10573295243E+03  0.11320368443E+03  0.19999987958E+01 0.  0.
         13    1    3    3    0    0  0.30403745576E+02  0.26593781217E+02 -0.41271774724E+02  0.57749350622E+02  0.10566000000E+00 0. -1.
         13    1    4    4    0    0 -0.90481786411E+01 -0.78271070255E+01 -0.32631868570E+02  0.34756052013E+02  0.10566000000E+00 0. -1.
        -13    1    4    4    0    0 -0.18954326254E+02 -0.16151942691E+02 -0.64710413150E+02  0.69336862277E+02  0.10566000000E+00 0.  1.
         14    1    4    4    0    0 -0.24012406802E+01 -0.26147315001E+01 -0.83906707101E+01  0.91107701423E+01  0.00000000000E+00 0. -1.
<mgrwt>
<rscale>  0 0.87261391E+02</rscale>
<asrwt>0</asrwt>
<pdfrwt beam="1">  1        1 0.18421777E-02 0.87261391E+02</pdfrwt>
<pdfrwt beam="2">  1       -2 0.24458288E-01 0.87261391E+02</pdfrwt>
<totfact> 0.74066288E+04</totfact>
</mgrwt>
</event>
<event>
 8    1  0.1372337E-020  0.8026525E+02  0.7818608E-02  0.1328300E+00
         -2   -1    0    0    0  501 -0.00000000000E+00  0.00000000000E+00  0.18326867317E+03  0.18326867318E+03  0.25500000000E-02 0.  1.
          1   -1    0    0  501    0  0.00000000000E+00 -0.00000000000E+00 -0.87883406994E+01  0.87883421446E+01  0.50400000000E-02 0. -1.
        -24    2    1    2    0    0  0.00000000000E+00  0.00000000000E+00  0.17448033247E+03  0.19205701533E+03  0.80265252253E+02 0.  0.
         66    2    3    3    0    0  0.51401967584E+01  0.33100030184E+02  0.14007593049E+03  0.14403923049E+03  0.19999994943E+01 0.  0.
         13    1    3    3    0    0 -0.51401967584E+01 -0.33100030184E+02  0.34404401977E+02  0.48017784834E+02  0.10566000000E+00 0. -1.
         13    1    4    4    0    0  0.69534495424E+00  0.19518762975E+01  0.82739228695E+01  0.85300814399E+01  0.10566000000E+00 0. -1.
        -13    1    4    4    0    0  0.33484364738E+01  0.21117248876E+02  0.88147669990E+02  0.90703765719E+02  0.10566000000E+00 0.  1.
        -14    1    4    4    0    0  0.10964153304E+01  0.10030905011E+02  0.43654337630E+02  0.44805383336E+02  0.00000000000E+00 0.  1.
<mgrwt>
<rscale>  0 0.80265252E+02</rscale>
<asrwt>0</asrwt>
<pdfrwt beam="1">  1        1 0.13520526E-02 0.80265252E+02</pdfrwt>
<pdfrwt beam="2">  1       -2 0.28195180E-01 0.80265252E+02</pdfrwt>
<totfact> 0.87299985E+04</totfact>
</mgrwt>
</event>
<event>
 8    1  0.1372337E-020  0.7608781E+02  0.7818608E-02  0.1340535E+00
         -2   -1    0    0    0  501 -0.00000000000E+00  0.00000000000E+00  0.16197238551E+03  0.16197238553E+03  0.25500000000E-02 0.  1.
          1   -1    0    0  501    0  0.00000000000E+00 -0.00000000000E+00 -0.89357117152E+01  0.89357131365E+01  0.50400000000E-02 0. -1.
        -24    2    1    2    0    0 -0.17763568394E-14 -0.35527136788E-14  0.15303667379E+03  0.17090809867E+03  0.76087808903E+02 0.  0.
         66    2    3    3    0    0  0.63350607993E+01  0.27343417614E+02  0.13416914846E+03  0.13708813181E+03  0.20000002868E+01 0.  0.
         13    1    3    3    0    0 -0.63350607993E+01 -0.27343417614E+02  0.18867525332E+02  0.33819966859E+02  0.10566000000E+00 0. -1.
         13    1    4    4    0    0  0.42748167879E+01  0.20793445651E+02  0.98832959840E+02  0.10108712359E+03  0.10566000000E+00 0. -1.
        -13    1    4    4    0    0  0.19383278577E+01  0.55580704769E+01  0.30221810564E+02  0.30789905165E+02  0.10566000000E+00 0.  1.
        -14    1    4    4    0    0  0.12191615375E+00  0.99190148568E+00  0.51143780594E+01  0.52111030541E+01  0.00000000000E+00 0.  1.
<mgrwt>
<rscale>  0 0.76087809E+02</rscale>
<asrwt>0</asrwt>
<pdfrwt beam="1">  1        1 0.13747252E-02 0.76087809E+02</pdfrwt>
<pdfrwt beam="2">  1       -2 0.24918826E-01 0.76087809E+02</pdfrwt>
<totfact> 0.10476496E+05</totfact>
</mgrwt>
</event>
<event>
 8    1  0.1372337E-020  0.7950295E+02  0.7818608E-02  0.1330468E+00
          1   -1    0    0  501    0  0.00000000000E+00  0.00000000000E+00  0.21050788793E+03  0.21050788799E+03  0.50400000000E-02 0. -1.
         -2   -1    0    0    0  501 -0.00000000000E+00 -0.00000000000E+00 -0.75065107654E+01  0.75065111986E+01  0.25500000000E-02 0.  1.
        -24    2    1    2    0    0  0.00000000000E+00  0.00000000000E+00  0.20300137717E+03  0.21801439919E+03  0.79502950405E+02 0.  0.
         66    2    3    3    0    0  0.25798371429E+02 -0.29361080619E+02  0.12106069712E+03  0.12722940465E+03  0.19999991597E+01 0.  0.
         13    1    3    3    0    0 -0.25798371429E+02  0.29361080619E+02  0.81940680045E+02  0.90784994540E+02  0.10566000000E+00 0. -1.
         13    1    4    4    0    0  0.21793353637E+01 -0.29508678239E+01  0.10529849400E+02  0.11151054478E+02  0.10566000000E+00 0. -1.
        -13    1    4    4    0    0  0.12562495241E+02 -0.14329031353E+02  0.57378692652E+02  0.60460424748E+02  0.10566000000E+00 0.  1.
        -14    1    4    4    0    0  0.11056540824E+02 -0.12081181442E+02  0.53152155072E+02  0.55617925427E+02  0.00000000000E+00 0.  1.
<mgrwt>
<rscale>  0 0.79502950E+02</rscale>
<asrwt>0</asrwt>
<pdfrwt beam="1">  1        1 0.32385834E-01 0.79502950E+02</pdfrwt>
<pdfrwt beam="2">  1       -2 0.11548477E-02 0.79502950E+02</pdfrwt>
<totfact> 0.17121392E+05</totfact>
</mgrwt>
</event>
<event>
 8    1  0.1372337E-020  0.7909830E+02  0.7818608E-02  0.1331630E+00
         -2   -1    0    0    0  501 -0.00000000000E+00  0.00000000000E+00  0.62968476426E+03  0.62968476426E+03  0.25500000000E-02 0.  1.
          1   -1    0    0  501    0  0.00000000000E+00 -0.00000000000E+00 -0.24839948811E+01  0.24839999942E+01  0.50400000000E-02 0. -1.
        -24    2    1    2    0    0  0.00000000000E+00  0.00000000000E+00  0.62720076937E+03  0.63216876426E+03  0.79098302104E+02 0.  0.
         66    2    3    3    0    0 -0.15662515661E+02 -0.32127190382E+02  0.44864344880E+03  0.45006934456E+03  0.20000005805E+01 0.  0.
         13    1    3    3    0    0  0.15662515661E+02  0.32127190382E+02  0.17855732057E+03  0.18209941969E+03  0.10566000000E+00 0. -1.
         13    1    4    4    0    0 -0.94860777918E+01 -0.19616729685E+02  0.26727736459E+03  0.26816413359E+03  0.10566000000E+00 0. -1.
        -13    1    4    4    0    0 -0.46564798900E+01 -0.83310220572E+01  0.12202912691E+03  0.12240182887E+03  0.10566000000E+00 0.  1.
         14    1    4    4    0    0 -0.15199579789E+01 -0.41794386392E+01  0.59336957302E+02  0.59503382101E+02  0.00000000000E+00 0. -1.
<mgrwt>
<rscale>  0 0.79098302E+02</rscale>
<asrwt>0</asrwt>
<pdfrwt beam="1">  1        1 0.38215333E-03 0.79098302E+02</pdfrwt>
<pdfrwt beam="2">  1       -2 0.96874611E-01 0.79098302E+02</pdfrwt>
<totfact> 0.42920037E+04</totfact>
</mgrwt>
</event>
<event>
 8    1  0.1372337E-020  0.7323780E+02  0.7818608E-02  0.1349416E+00
         -2   -1    0    0    0  501 -0.00000000000E+00  0.00000000000E+00  0.22533627412E+02  0.22533627556E+02  0.25500000000E-02 0.  1.
          1   -1    0    0  501    0  0.00000000000E+00 -0.00000000000E+00 -0.59508561596E+02  0.59508561810E+02  0.50400000000E-02 0. -1.
        -24    2    1    2    0    0 -0.35527136788E-14 -0.53290705182E-14 -0.36974934184E+02  0.82042189366E+02  0.73237798151E+02 0.  0.
         66    2    3    3    0    0  0.22738937280E+02  0.15136127517E+02  0.87727160080E+01  0.28759731774E+02  0.20000001848E+01 0.  0.
         13    1    3    3    0    0 -0.22738937280E+02 -0.15136127517E+02 -0.45747650192E+02  0.53282457591E+02  0.10566000000E+00 0. -1.
         13    1    4    4    0    0  0.10363249306E+02  0.70279615374E+01  0.44230258322E+01  0.13280192058E+02  0.10566000000E+00 0. -1.
        -13    1    4    4    0    0  0.76996481820E+01  0.57459120418E+01  0.30732824829E+01  0.10087433597E+02  0.10566000000E+00 0.  1.
         14    1    4    4    0    0  0.46760397926E+01  0.23622539379E+01  0.12764076929E+01  0.53921061198E+01  0.00000000000E+00 0. -1.
<mgrwt>
<rscale>  0 0.73237798E+02</rscale>
<asrwt>0</asrwt>
<pdfrwt beam="1">  1        1 0.91551633E-02 0.73237798E+02</pdfrwt>
<pdfrwt beam="2">  1       -2 0.34667119E-02 0.73237798E+02</pdfrwt>
<totfact> 0.17217287E+05</totfact>
</mgrwt>
</event>
<event>
 8    1  0.1372337E-020  0.7644678E+02  0.7818608E-02  0.1339448E+00
         -2   -1    0    0    0  501 -0.00000000000E+00  0.00000000000E+00  0.15502759206E+04  0.15502759206E+04  0.25500000000E-02 0.  1.
          1   -1    0    0  501    0  0.00000000000E+00 -0.00000000000E+00 -0.94242401450E+00  0.94243749114E+00  0.50400000000E-02 0. -1.
        -24    2    1    2    0    0  0.17763568394E-14 -0.13877787808E-15  0.15493334966E+04  0.15512183581E+04  0.76446784391E+02 0.  0.
         66    2    3    3    0    0  0.10962012271E+02 -0.20536313293E+00  0.15176570699E+04  0.15176979903E+04  0.19999972281E+01 0.  0.
         13    1    3    3    0    0 -0.10962012271E+02  0.20536313293E+00  0.31676426728E+02  0.33520367858E+02  0.10566000000E+00 0. -1.
         13    1    4    4    0    0  0.44155478858E+01  0.60312484279E+00  0.54287736617E+03  0.54289566833E+03  0.10566000000E+00 0. -1.
        -13    1    4    4    0    0  0.43649936321E+01 -0.89227098941E+00  0.66176441071E+03  0.66177941624E+03  0.10566000000E+00 0.  1.
        -14    1    4    4    0    0  0.21814707529E+01  0.83783013686E-01  0.31301529300E+03  0.31302290569E+03  0.00000000000E+00 0.  1.
<mgrwt>
<rscale>  0 0.76446784E+02</rscale>
<asrwt>0</asrwt>
<pdfrwt beam="1">  1        1 0.14498991E-03 0.76446784E+02</pdfrwt>
<pdfrwt beam="2">  1       -2 0.23850306E+00 0.76446784E+02</pdfrwt>
<totfact> 0.15777031E+04</totfact>
</mgrwt>
</event>
<event>
 8    1  0.1372337E-020  0.8022445E+02  0.7818608E-02  0.1328416E+00
         -2   -1    0    0    0  501 -0.00000000000E+00  0.00000000000E+00  0.16907839244E+03  0.16907839246E+03  0.25500000000E-02 0.  1.
          1   -1    0    0  501    0  0.00000000000E+00 -0.00000000000E+00 -0.95162396475E+01  0.95162409821E+01  0.50400000000E-02 0. -1.
        -24    2    1    2    0    0  0.17763568394E-14  0.00000000000E+00  0.15956215279E+03  0.17859463344E+03  0.80224450701E+02 0.  0.
         66    2    3    3    0    0 -0.11105432311E+02  0.36452553488E+02  0.10753437858E+03  0.11410417107E+03  0.19999994648E+01 0.  0.
         13    1    3    3    0    0  0.11105432311E+02 -0.36452553488E+02  0.52027774218E+02  0.64490462370E+02  0.10566000000E+00 0. -1.
         13    1    4    4    0    0 -0.59405535075E+01  0.17352992167E+02  0.52026094293E+02  0.55164682221E+02  0.10566000000E+00 0. -1.
        -13    1    4    4    0    0 -0.42431831003E+01  0.14487745714E+02  0.41266490766E+02  0.43941253998E+02  0.10566000000E+00 0.  1.
         14    1    4    4    0    0 -0.92169570304E+00  0.46118156068E+01  0.14241793517E+02  0.14998234854E+02  0.00000000000E+00 0. -1.
<mgrwt>
<rscale>  0 0.80224451E+02</rscale>
<asrwt>0</asrwt>
<pdfrwt beam="1">  1        1 0.14640372E-02 0.80224451E+02</pdfrwt>
<pdfrwt beam="2">  1       -2 0.26012056E-01 0.80224451E+02</pdfrwt>
<totfact> 0.90054615E+04</totfact>
</mgrwt>
</event>
<event>
 8    1  0.1372337E-020  0.7516817E+02  0.7818608E-02  0.1343351E+00
         -2   -1    0    0    0  501 -0.00000000000E+00  0.00000000000E+00  0.14948751542E+03  0.14948751544E+03  0.25500000000E-02 0.  1.
          1   -1    0    0  501    0  0.00000000000E+00 -0.00000000000E+00 -0.94493733784E+01  0.94493747225E+01  0.50400000000E-02 0. -1.
        -24    2    1    2    0    0  0.00000000000E+00 -0.35527136788E-14  0.14003814204E+03  0.15893689017E+03  0.75168170316E+02 0.  0.
         66    2    3    3    0    0  0.33852891827E+02  0.16162524546E+02  0.66219854029E+02  0.76133530970E+02  0.19999963755E+01 0.  0.
         13    1    3    3    0    0 -0.33852891827E+02 -0.16162524546E+02  0.73818288013E+02  0.82803359195E+02  0.10566000000E+00 0. -1.
         13    1    4    4    0    0  0.14114552975E+02  0.69021179527E+01  0.29399522299E+02  0.33334710338E+02  0.10566000000E+00 0. -1.
        -13    1    4    4    0    0  0.11297983828E+02  0.56545503858E+01  0.20888115104E+02  0.24411941653E+02  0.10566000000E+00 0.  1.
         14    1    4    4    0    0  0.84403550248E+01  0.36058562075E+01  0.15932216626E+02  0.18386878978E+02  0.00000000000E+00 0. -1.
<mgrwt>
<rscale>  0 0.75168170E+02</rscale>
<asrwt>0</asrwt>
<pdfrwt beam="1">  1        1 0.14537498E-02 0.75168170E+02</pdfrwt>
<pdfrwt beam="2">  1       -2 0.22998080E-01 0.75168170E+02</pdfrwt>
<totfact> 0.11103699E+05</totfact>
</mgrwt>
</event>
<event>
 8    1  0.1372337E-020  0.7728333E+02  0.7818608E-02  0.1336943E+00
         -2   -1    0    0    0  501 -0.00000000000E+00  0.00000000000E+00  0.21884382408E+02  0.21884382556E+02  0.25500000000E-02 0.  1.
          1   -1    0    0  501    0  0.00000000000E+00 -0.00000000000E+00 -0.68230320570E+02  0.68230320757E+02  0.50400000000E-02 0. -1.
        -24    2    1    2    0    0  0.44408920985E-15  0.35527136788E-14 -0.46345938163E+02  0.90114703313E+02  0.77283334355E+02 0.  0.
         66    2    3    3    0    0  0.37103079450E+01  0.20644411764E+02  0.14617114050E+02  0.25644066420E+02  0.19999993114E+01 0.  0.
         13    1    3    3    0    0 -0.37103079450E+01 -0.20644411764E+02 -0.60963052213E+02  0.64470636893E+02  0.10566000000E+00 0. -1.
         13    1    4    4    0    0  0.12338252669E+01  0.60025516513E+01  0.37124905140E+01  0.71656612373E+01  0.10566000000E+00 0. -1.
        -13    1    4    4    0    0  0.12397299986E+01  0.42279309480E+01  0.27605113462E+01  0.52003766689E+01  0.10566000000E+00 0.  1.
         14    1    4    4    0    0  0.12367526796E+01  0.10413929165E+02  0.81441121903E+01  0.13278028514E+02  0.00000000000E+00 0. -1.
<mgrwt>
<rscale>  0 0.77283334E+02</rscale>
<asrwt>0</asrwt>
<pdfrwt beam="1">  1        1 0.10496972E-01 0.77283334E+02</pdfrwt>
<pdfrwt beam="2">  1       -2 0.33668281E-02 0.77283334E+02</pdfrwt>
<totfact> 0.15183022E+05</totfact>
</mgrwt>
</event>
<event>
 8    1  0.1372337E-020  0.7403041E+02  0.7818608E-02  0.1346900E+00
          1   -1    0    0  501    0  0.00000000000E+00  0.00000000000E+00  0.40474781766E+02  0.40474782080E+02  0.50400000000E-02 0. -1.
         -2   -1    0    0    0  501 -0.00000000000E+00 -0.00000000000E+00 -0.33851337537E+02  0.33851337633E+02  0.25500000000E-02 0.  1.
        -24    2    1    2    0    0 -0.35527136788E-14  0.17763568394E-14  0.66234442291E+01  0.74326119713E+02  0.74030413062E+02 0.  0.
         66    2    3    3    0    0 -0.17986637854E+02  0.15086792868E+02 -0.25383079841E+02  0.34632805321E+02  0.20000004600E+01 0.  0.
         13    1    3    3    0    0  0.17986637854E+02 -0.15086792868E+02  0.32006524070E+02  0.39693314392E+02  0.10566000000E+00 0. -1.
         13    1    4    4    0    0 -0.10805905427E+02  0.83277447313E+01 -0.15481390417E+02  0.20635007577E+02  0.10566000000E+00 0. -1.
        -13    1    4    4    0    0 -0.21741083625E+01  0.18627995539E+01 -0.24216504707E+01  0.37513096896E+01  0.10566000000E+00 0.  1.
         14    1    4    4    0    0 -0.50066240638E+01  0.48962485833E+01 -0.74800389530E+01  0.10246488054E+02  0.00000000000E+00 0. -1.
<mgrwt>
<rscale>  0 0.74030413E+02</rscale>
<asrwt>0</asrwt>
<pdfrwt beam="1">  1        1 0.62268895E-02 0.74030413E+02</pdfrwt>
<pdfrwt beam="2">  1       -2 0.52078981E-02 0.74030413E+02</pdfrwt>
<totfact> 0.15799200E+05</totfact>
</mgrwt>
</event>
<event>
 8    1  0.1372337E-020  0.7953075E+02  0.7818608E-02  0.1330388E+00
         -2   -1    0    0    0  501 -0.00000000000E+00  0.00000000000E+00  0.86853015751E+02  0.86853015788E+02  0.25500000000E-02 0.  1.
          1   -1    0    0  501    0  0.00000000000E+00 -0.00000000000E+00 -0.18206451361E+02  0.18206452059E+02  0.50400000000E-02 0. -1.
        -24    2    1    2    0    0 -0.71054273576E-14  0.00000000000E+00  0.68646564389E+02  0.10505946785E+03  0.79530754943E+02 0.  0.
         66    2    3    3    0    0 -0.33071299045E+02 -0.14413847973E+02  0.56362751096E+02  0.66949455161E+02  0.20000003288E+01 0.  0.
         13    1    3    3    0    0  0.33071299045E+02  0.14413847973E+02  0.12283813293E+02  0.38110012686E+02  0.10566000000E+00 0. -1.
         13    1    4    4    0    0 -0.77205855754E+01 -0.42076046344E+01  0.13387954260E+02  0.16017486123E+02  0.10566000000E+00 0. -1.
        -13    1    4    4    0    0 -0.16902457829E+02 -0.64895978751E+01  0.28392525306E+02  0.33674242657E+02  0.10566000000E+00 0.  1.
        -14    1    4    4    0    0 -0.84482556402E+01 -0.37166454633E+01  0.14582271530E+02  0.17257726380E+02  0.00000000000E+00 0.  1.
<mgrwt>
<rscale>  0 0.79530755E+02</rscale>
<asrwt>0</asrwt>
<pdfrwt beam="1">  1        1 0.28009925E-02 0.79530755E+02</pdfrwt>
<pdfrwt beam="2">  1       -2 0.13362003E-01 0.79530755E+02</pdfrwt>
<totfact> 0.11140331E+05</totfact>
</mgrwt>
</event>
<event>
 8    1  0.1372337E-020  0.7881238E+02  0.7818608E-02  0.1332456E+00
         -2   -1    0    0    0  501 -0.00000000000E+00  0.00000000000E+00  0.67033234256E+01  0.67033239106E+01  0.25500000000E-02 0.  1.
          1   -1    0    0  501    0  0.00000000000E+00 -0.00000000000E+00 -0.23165341582E+03  0.23165341587E+03  0.50400000000E-02 0. -1.
        -24    2    1    2    0    0 -0.35527136788E-14  0.35527136788E-14 -0.22495009239E+03  0.23835673978E+03  0.78812380581E+02 0.  0.
         66    2    3    3    0    0 -0.22876669491E+02  0.31794263695E+02 -0.10021558290E+03  0.10761682149E+03  0.20000006144E+01 0.  0.
         13    1    3    3    0    0  0.22876669491E+02 -0.31794263695E+02 -0.12473450950E+03  0.13073991829E+03  0.10566000000E+00 0. -1.
         13    1    4    4    0    0 -0.92761890180E+01  0.14282600795E+02 -0.42149684210E+02  0.45460393874E+02  0.10566000000E+00 0. -1.
        -13    1    4    4    0    0 -0.37168082551E+01  0.48815083171E+01 -0.15707940443E+02  0.16863995495E+02  0.10566000000E+00 0.  1.
         14    1    4    4    0    0 -0.98836722176E+01  0.12630154583E+02 -0.42357958242E+02  0.45292432124E+02  0.00000000000E+00 0. -1.
<mgrwt>
<rscale>  0 0.78812381E+02</rscale>
<asrwt>0</asrwt>
<pdfrwt beam="1">  1        1 0.35638981E-01 0.78812381E+02</pdfrwt>
<pdfrwt beam="2">  1       -2 0.10312807E-02 0.78812381E+02</pdfrwt>
<totfact> 0.17850820E+05</totfact>
</mgrwt>
</event>
<event>
 8    1  0.1372337E-020  0.8085661E+02  0.7818608E-02  0.1326638E+00
          1   -1    0    0  501    0  0.00000000000E+00  0.00000000000E+00  0.13045395904E+03  0.13045395914E+03  0.50400000000E-02 0. -1.
         -2   -1    0    0    0  501 -0.00000000000E+00 -0.00000000000E+00 -0.12528923652E+02  0.12528923911E+02  0.25500000000E-02 0.  1.
        -24    2    1    2    0    0  0.00000000000E+00  0.00000000000E+00  0.11792503539E+03  0.14298288305E+03  0.80856606864E+02 0.  0.
         66    2    3    3    0    0 -0.12889428323E+02  0.37657925109E+02  0.71273710596E+02  0.81659038136E+02  0.20000002866E+01 0.  0.
         13    1    3    3    0    0  0.12889428323E+02 -0.37657925109E+02  0.46651324792E+02  0.61323844912E+02  0.10566000000E+00 0. -1.
         13    1    4    4    0    0 -0.59535685113E+00  0.16609848668E+01  0.38697685498E+01  0.42543616645E+01  0.10566000000E+00 0. -1.
        -13    1    4    4    0    0 -0.52591496334E+01  0.15294461837E+02  0.29782545351E+02  0.33890859968E+02  0.10566000000E+00 0.  1.
         14    1    4    4    0    0 -0.70349218382E+01  0.20702478405E+02  0.37621396695E+02  0.43513816503E+02  0.00000000000E+00 0. -1.
<mgrwt>
<rscale>  0 0.80856607E+02</rscale>
<asrwt>0</asrwt>
<pdfrwt beam="1">  1        1 0.20069838E-01 0.80856607E+02</pdfrwt>
<pdfrwt beam="2">  1       -2 0.19275269E-02 0.80856607E+02</pdfrwt>
<totfact> 0.14959010E+05</totfact>
</mgrwt>
</event>
<event>
 8    1  0.1372337E-020  0.7968121E+02  0.7818608E-02  0.1329959E+00
         -2   -1    0    0    0  501 -0.00000000000E+00  0.00000000000E+00  0.16732770591E+02  0.16732770785E+02  0.25500000000E-02 0.  1.
          1   -1    0    0  501    0  0.00000000000E+00 -0.00000000000E+00 -0.94860185751E+02  0.94860185885E+02  0.50400000000E-02 0. -1.
        -24    2    1    2    0    0  0.00000000000E+00  0.00000000000E+00 -0.78127415160E+02  0.11159295667E+03  0.79681208442E+02 0.  0.
         66    2    3    3    0    0 -0.22700564822E+02 -0.32237191732E+02 -0.46850140797E+02  0.61265715243E+02  0.19999993974E+01 0.  0.
         13    1    3    3    0    0  0.22700564822E+02  0.32237191732E+02 -0.31277274363E+02  0.50327241427E+02  0.10566000000E+00 0. -1.
         13    1    4    4    0    0 -0.64605357308E+01 -0.78894059004E+01 -0.12608587116E+02  0.16216315257E+02  0.10566000000E+00 0. -1.
        -13    1    4    4    0    0 -0.11880167616E+02 -0.17488510278E+02 -0.24396640576E+02  0.32283023554E+02  0.10566000000E+00 0.  1.
        -14    1    4    4    0    0 -0.43598614754E+01 -0.68592755534E+01 -0.98449131044E+01  0.12766376433E+02  0.00000000000E+00 0.  1.
<mgrwt>
<rscale>  0 0.79681208E+02</rscale>
<asrwt>0</asrwt>
<pdfrwt beam="1">  1        1 0.14593874E-01 0.79681208E+02</pdfrwt>
<pdfrwt beam="2">  1       -2 0.25742725E-02 0.79681208E+02</pdfrwt>
<totfact> 0.14728272E+05</totfact>
</mgrwt>
</event>
<event>
 8    1  0.1372337E-020  0.8085927E+02  0.7818608E-02  0.1326630E+00
          1   -1    0    0  501    0  0.00000000000E+00  0.00000000000E+00  0.15492829314E+03  0.15492829322E+03  0.50400000000E-02 0. -1.
         -2   -1    0    0    0  501 -0.00000000000E+00 -0.00000000000E+00 -0.10550399901E+02  0.10550400209E+02  0.25500000000E-02 0.  1.
        -24    2    1    2    0    0  0.35527136788E-14  0.00000000000E+00  0.14437789324E+03  0.16547869343E+03  0.80859272340E+02 0.  0.
         66    2    3    3    0    0  0.28045490465E+02 -0.92602554378E+01  0.15805582257E+02  0.33557686076E+02  0.19999995275E+01 0.  0.
         13    1    3    3    0    0 -0.28045490465E+02  0.92602554378E+01  0.12857231098E+03  0.13192100735E+03  0.10566000000E+00 0. -1.
         13    1    4    4    0    0  0.16751159210E+02 -0.59602122582E+01  0.93305375065E+01  0.20079730059E+02  0.10566000000E+00 0. -1.
        -13    1    4    4    0    0  0.19148487033E+01 -0.72262293978E+00  0.70009913895E+00  0.21656713300E+01  0.10566000000E+00 0.  1.
         14    1    4    4    0    0  0.93794825513E+01 -0.25774202399E+01  0.57749456119E+01  0.11312284687E+02  0.00000000000E+00 0. -1.
<mgrwt>
<rscale>  0 0.80859272E+02</rscale>
<asrwt>0</asrwt>
<pdfrwt beam="1">  1        1 0.23835119E-01 0.80859272E+02</pdfrwt>
<pdfrwt beam="2">  1       -2 0.16231387E-02 0.80859272E+02</pdfrwt>
<totfact> 0.15436258E+05</totfact>
</mgrwt>
</event>
<event>
 8    1  0.1372337E-020  0.8186406E+02  0.7818608E-02  0.1323843E+00
          1   -1    0    0  501    0  0.00000000000E+00  0.00000000000E+00  0.22796409655E+03  0.22796409660E+03  0.50400000000E-02 0. -1.
         -2   -1    0    0    0  501 -0.00000000000E+00 -0.00000000000E+00 -0.73495390674E+01  0.73495395098E+01  0.25500000000E-02 0.  1.
        -24    2    1    2    0    0  0.00000000000E+00  0.35527136788E-14  0.22061455748E+03  0.23531363611E+03  0.81864060299E+02 0.  0.
         66    2    3    3    0    0 -0.25925886268E+02  0.25531413717E+02  0.56641479817E+02  0.67351777266E+02  0.19999999485E+01 0.  0.
         13    1    3    3    0    0  0.25925886268E+02 -0.25531413717E+02  0.16397307766E+03  0.16796185885E+03  0.10566000000E+00 0. -1.
         13    1    4    4    0    0 -0.49548385930E+01  0.42044457574E+01  0.96486895272E+01  0.11633407207E+02  0.10566000000E+00 0. -1.
        -13    1    4    4    0    0 -0.24032298783E+01  0.29144842808E+01  0.63870258166E+01  0.74212529460E+01  0.10566000000E+00 0.  1.
        -14    1    4    4    0    0 -0.18567817796E+02  0.18412483679E+02  0.40605764473E+02  0.48297117113E+02  0.00000000000E+00 0.  1.
<mgrwt>
<rscale>  0 0.81864060E+02</rscale>
<asrwt>0</asrwt>
<pdfrwt beam="1">  1        1 0.35071399E-01 0.81864060E+02</pdfrwt>
<pdfrwt beam="2">  1       -2 0.11306984E-02 0.81864060E+02</pdfrwt>
<totfact> 0.16091106E+05</totfact>
</mgrwt>
</event>
<event>
 8    1  0.1372337E-020  0.7971757E+02  0.7818608E-02  0.1329855E+00
          1   -1    0    0  501    0  0.00000000000E+00  0.00000000000E+00  0.47070904574E+01  0.47070931556E+01  0.50400000000E-02 0. -1.
         -2   -1    0    0    0  501 -0.00000000000E+00 -0.00000000000E+00 -0.33751684807E+03  0.33751684808E+03  0.25500000000E-02 0.  1.
        -24    2    1    2    0    0  0.35527136788E-14  0.35527136788E-14 -0.33280975761E+03  0.34222394123E+03  0.79717571416E+02 0.  0.
         66    2    3    3    0    0 -0.19393066857E+02 -0.19466889283E+02 -0.29031229952E+03  0.29161666973E+03  0.19999983235E+01 0.  0.
         13    1    3    3    0    0  0.19393066857E+02  0.19466889283E+02 -0.42497458091E+02  0.50607271500E+02  0.10566000000E+00 0. -1.
         13    1    4    4    0    0 -0.28018659860E+01 -0.29547209864E+01 -0.47306079801E+02  0.47481124452E+02  0.10566000000E+00 0. -1.
        -13    1    4    4    0    0 -0.14702199927E+02 -0.15085466703E+02 -0.22151661264E+03  0.22251594735E+03  0.10566000000E+00 0.  1.
        -14    1    4    4    0    0 -0.18890009436E+01 -0.14267015933E+01 -0.21489607081E+02  0.21619597926E+02  0.00000000000E+00 0.  1.
<mgrwt>
<rscale>  0 0.79717571E+02</rscale>
<asrwt>0</asrwt>
<pdfrwt beam="1">  1        1 0.72416824E-03 0.79717571E+02</pdfrwt>
<pdfrwt beam="2">  1       -2 0.51925650E-01 0.79717571E+02</pdfrwt>
<totfact> 0.66330862E+04</totfact>
</mgrwt>
</event>
<event>
 8    1  0.1372337E-020  0.8170932E+02  0.7818608E-02  0.1324269E+00
          1   -1    0    0  501    0  0.00000000000E+00  0.00000000000E+00  0.40673737702E+02  0.40673738014E+02  0.50400000000E-02 0. -1.
         -2   -1    0    0    0  501 -0.00000000000E+00 -0.00000000000E+00 -0.41036384855E+02  0.41036384934E+02  0.25500000000E-02 0.  1.
        -24    2    1    2    0    0  0.00000000000E+00  0.88817841970E-15 -0.36264715315E+00  0.81710122948E+02  0.81709318191E+02 0.  0.
         66    2    3    3    0    0 -0.39071336090E+02 -0.67223308039E+01 -0.99457047665E+01  0.40922806384E+02  0.20000009466E+01 0.  0.
         13    1    3    3    0    0  0.39071336090E+02  0.67223308039E+01  0.95830576133E+01  0.40787316564E+02  0.10566000000E+00 0. -1.
         13    1    4    4    0    0 -0.35726774462E+00  0.39361279419E-01 -0.18246567734E+00  0.41671010387E+00  0.10566000000E+00 0. -1.
        -13    1    4    4    0    0 -0.35535225323E+02 -0.59387893155E+01 -0.89362150817E+01  0.37119921353E+02  0.10566000000E+00 0.  1.
         14    1    4    4    0    0 -0.31788430223E+01 -0.82290276776E+00 -0.82702400746E+00  0.33861749268E+01  0.00000000000E+00 0. -1.
<mgrwt>
<rscale>  0 0.81709318E+02</rscale>
<asrwt>0</asrwt>
<pdfrwt beam="1">  1        1 0.62574982E-02 0.81709318E+02</pdfrwt>
<pdfrwt beam="2">  1       -2 0.63132900E-02 0.81709318E+02</pdfrwt>
<totfact> 0.11995019E+05</totfact>
</mgrwt>
</event>
<event>
 8    1  0.1372337E-020  0.8138040E+02  0.7818608E-02  0.1325179E+00
         -2   -1    0    0    0  501 -0.00000000000E+00  0.00000000000E+00  0.27029903821E+02  0.27029903941E+02  0.25500000000E-02 0.  1.
          1   -1    0    0  501    0  0.00000000000E+00 -0.00000000000E+00 -0.61254100943E+02  0.61254101150E+02  0.50400000000E-02 0. -1.
        -24    2    1    2    0    0  0.71054273576E-14  0.00000000000E+00 -0.34224197122E+02  0.88284005091E+02  0.81380402348E+02 0.  0.
         66    2    3    3    0    0  0.35409643830E+02 -0.15303114571E+02 -0.31596826284E+01  0.38755796800E+02  0.19999998831E+01 0.  0.
         13    1    3    3    0    0 -0.35409643830E+02  0.15303114571E+02 -0.31064514494E+02  0.49528208291E+02  0.10566000000E+00 0. -1.
         13    1    4    4    0    0  0.79925004635E+00 -0.15615354759E+00  0.15190736432E-01  0.82132780367E+00  0.10566000000E+00 0. -1.
        -13    1    4    4    0    0  0.24406145046E+02 -0.10679776624E+02 -0.28202381322E+01  0.26789595964E+02  0.10566000000E+00 0.  1.
         14    1    4    4    0    0  0.10204248737E+02 -0.44671843999E+01 -0.35463523265E+00  0.11144873032E+02  0.00000000000E+00 0. -1.
<mgrwt>
<rscale>  0 0.81380402E+02</rscale>
<asrwt>0</asrwt>
<pdfrwt beam="1">  1        1 0.94237079E-02 0.81380402E+02</pdfrwt>
<pdfrwt beam="2">  1       -2 0.41584468E-02 0.81380402E+02</pdfrwt>
<totfact> 0.12956514E+05</totfact>
</mgrwt>
</event>
<event>
 8    1  0.1372337E-020  0.7862764E+02  0.7818608E-02  0.1332992E+00
         -2   -1    0    0    0  501 -0.00000000000E+00  0.00000000000E+00  0.19359366931E+03  0.19359366932E+03  0.25500000000E-02 0.  1.
          1   -1    0    0  501    0  0.00000000000E+00 -0.00000000000E+00 -0.79836089649E+01  0.79836105558E+01  0.50400000000E-02 0. -1.
        -24    2    1    2    0    0  0.00000000000E+00 -0.88817841970E-15  0.18561006034E+03  0.20157727988E+03  0.78627636766E+02 0.  0.
         66    2    3    3    0    0  0.91486780813E+01 -0.62685714849E+01  0.18949200074E+03  0.18982679375E+03  0.19999953863E+01 0.  0.
         13    1    3    3    0    0 -0.91486780813E+01  0.62685714849E+01 -0.38819403952E+01  0.11750486133E+02  0.10566000000E+00 0. -1.
         13    1    4    4    0    0  0.33476688556E+01 -0.28739076312E+01  0.78504483669E+02  0.78628438570E+02  0.10566000000E+00 0. -1.
        -13    1    4    4    0    0  0.18448782494E+01 -0.16856825488E+01  0.46214024095E+02  0.46281662551E+02  0.10566000000E+00 0.  1.
         14    1    4    4    0    0  0.39561309763E+01 -0.17089813049E+01  0.64773492972E+02  0.64916692624E+02  0.00000000000E+00 0. -1.
<mgrwt>
<rscale>  0 0.78627637E+02</rscale>
<asrwt>0</asrwt>
<pdfrwt beam="1">  1        1 0.12282477E-02 0.78627637E+02</pdfrwt>
<pdfrwt beam="2">  1       -2 0.29783640E-01 0.78627637E+02</pdfrwt>
<totfact> 0.90125100E+04</totfact>
</mgrwt>
</event>
<event>
 8    1  0.1372337E-020  0.7950297E+02  0.7818608E-02  0.1330468E+00
         -2   -1    0    0    0  501 -0.00000000000E+00  0.00000000000E+00  0.30863152803E+02  0.30863152908E+02  0.25500000000E-02 0.  1.
          1   -1    0    0  501    0  0.00000000000E+00 -0.00000000000E+00 -0.51199585045E+02  0.51199585293E+02  0.50400000000E-02 0. -1.
        -24    2    1    2    0    0  0.00000000000E+00  0.00000000000E+00 -0.20336432242E+02  0.82062738201E+02  0.79502971798E+02 0.  0.
         66    2    3    3    0    0 -0.21332650473E+02 -0.28642880452E+02  0.77831970095E+01  0.36607031298E+02  0.20000019928E+01 0.  0.
         13    1    3    3    0    0  0.21332650473E+02  0.28642880452E+02 -0.28119629251E+02  0.45455706903E+02  0.10566000000E+00 0. -1.
         13    1    4    4    0    0 -0.11382275336E+02 -0.14898680562E+02  0.42316958379E+01  0.19220959601E+02  0.10566000000E+00 0. -1.
        -13    1    4    4    0    0 -0.91430614005E+01 -0.12694660018E+02  0.36271105870E+01  0.16059796387E+02  0.10566000000E+00 0.  1.
         14    1    4    4    0    0 -0.80731373682E+00 -0.10495398723E+01 -0.75609415401E-01  0.13262753097E+01  0.00000000000E+00 0. -1.
<mgrwt>
<rscale>  0 0.79502972E+02</rscale>
<asrwt>0</asrwt>
<pdfrwt beam="1">  1        1 0.78768593E-02 0.79502972E+02</pdfrwt>
<pdfrwt beam="2">  1       -2 0.47481774E-02 0.79502972E+02</pdfrwt>
<totfact> 0.13436746E+05</totfact>
</mgrwt>
</event>
<event>
 8    1  0.1372337E-020  0.7468452E+02  0.7818608E-02  0.1344851E+00
          1   -1    0    0  501    0  0.00000000000E+00  0.00000000000E+00  0.27708456742E+02  0.27708457200E+02  0.50400000000E-02 0. -1.
         -2   -1    0    0    0  501 -0.00000000000E+00 -0.00000000000E+00 -0.50325590634E+02  0.50325590699E+02  0.25500000000E-02 0.  1.
        -24    2    1    2    0    0  0.00000000000E+00 -0.35527136788E-14 -0.22617133892E+02  0.78034047899E+02  0.74684522399E+02 0.  0.
         66    2    3    3    0    0 -0.25829763788E+01 -0.21178559455E+02 -0.43303993142E+02  0.48316032198E+02  0.19999994439E+01 0.  0.
         13    1    3    3    0    0  0.25829763788E+01  0.21178559455E+02  0.20686859250E+02  0.29718015701E+02  0.10566000000E+00 0. -1.
         13    1    4    4    0    0 -0.11042450343E+01 -0.11704519940E+02 -0.21736608227E+02  0.24712475501E+02  0.10566000000E+00 0. -1.
        -13    1    4    4    0    0 -0.11876130033E+01 -0.72660202431E+01 -0.16518462767E+02  0.18085249543E+02  0.10566000000E+00 0.  1.
         14    1    4    4    0    0 -0.29111834121E+00 -0.22080192718E+01 -0.50489221472E+01  0.55183071536E+01  0.00000000000E+00 0. -1.
<mgrwt>
<rscale>  0 0.74684522E+02</rscale>
<asrwt>0</asrwt>
<pdfrwt beam="1">  1        1 0.42628395E-02 0.74684522E+02</pdfrwt>
<pdfrwt beam="2">  1       -2 0.77423986E-02 0.74684522E+02</pdfrwt>
<totfact> 0.14523263E+05</totfact>
</mgrwt>
</event>
<event>
 8    1  0.1372337E-020  0.8037373E+02  0.7818608E-02  0.1327994E+00
          1   -1    0    0  501    0  0.00000000000E+00  0.00000000000E+00  0.50447687321E+02  0.50447687573E+02  0.50400000000E-02 0. -1.
         -2   -1    0    0    0  501 -0.00000000000E+00 -0.00000000000E+00 -0.32013043044E+02  0.32013043146E+02  0.25500000000E-02 0.  1.
        -24    2    1    2    0    0  0.00000000000E+00  0.00000000000E+00  0.18434644277E+02  0.82460730719E+02  0.80373727057E+02 0.  0.
         66    2    3    3    0    0 -0.17417839612E+02 -0.36045374342E+02  0.12520323885E+02  0.41992959617E+02  0.19999997384E+01 0.  0.
         13    1    3    3    0    0  0.17417839612E+02  0.36045374342E+02  0.59143203924E+01  0.40467771102E+02  0.10566000000E+00 0. -1.
         13    1    4    4    0    0 -0.27133332763E+01 -0.46565836369E+01  0.22430710490E+01  0.58385340970E+01  0.10566000000E+00 0. -1.
        -13    1    4    4    0    0 -0.80330609094E+01 -0.17135635560E+02  0.56870760393E+01  0.19761428884E+02  0.10566000000E+00 0.  1.
         14    1    4    4    0    0 -0.66714454264E+01 -0.14253155146E+02  0.45901767965E+01  0.16392996636E+02  0.00000000000E+00 0. -1.
<mgrwt>
<rscale>  0 0.80373727E+02</rscale>
<asrwt>0</asrwt>
<pdfrwt beam="1">  1        1 0.77611827E-02 0.80373727E+02</pdfrwt>
<pdfrwt beam="2">  1       -2 0.49250836E-02 0.80373727E+02</pdfrwt>
<totfact> 0.13005864E+05</totfact>
</mgrwt>
</event>
<event>
 8    1  0.1372337E-020  0.8038665E+02  0.7818608E-02  0.1327958E+00
          1   -1    0    0  501    0  0.00000000000E+00  0.00000000000E+00  0.32515037569E+01  0.32515076630E+01  0.50400000000E-02 0. -1.
         -2   -1    0    0    0  501 -0.00000000000E+00 -0.00000000000E+00 -0.49684781044E+03  0.49684781044E+03  0.25500000000E-02 0.  1.
        -24    2    1    2    0    0  0.00000000000E+00  0.00000000000E+00 -0.49359630668E+03  0.50009931811E+03  0.80386653136E+02 0.  0.
         66    2    3    3    0    0 -0.81210085556E+01  0.22643640989E+02 -0.44707640158E+03  0.44772758917E+03  0.19999993790E+01 0.  0.
         13    1    3    3    0    0  0.81210085556E+01 -0.22643640989E+02 -0.46519905100E+02  0.52371728936E+02  0.10566000000E+00 0. -1.
         13    1    4    4    0    0 -0.67317038972E+01  0.19188413045E+02 -0.37475396190E+03  0.37530528128E+03  0.10566000000E+00 0.  1.
        -13    1    4    4    0    0 -0.11007629866E+01  0.21575408043E+01 -0.51949613602E+02  0.52006155202E+02  0.10566000000E+00 0. -1.
         14    1    4    4    0    0 -0.28854167170E+00  0.12976871399E+01 -0.20372826079E+02  0.20416152690E+02  0.00000000000E+00 0. -1.
<mgrwt>
<rscale>  0 0.80386653E+02</rscale>
<asrwt>0</asrwt>
<pdfrwt beam="1">  1        1 0.50023204E-03 0.80386653E+02</pdfrwt>
<pdfrwt beam="2">  1       -2 0.76438065E-01 0.80386653E+02</pdfrwt>
<totfact> 0.50005599E+04</totfact>
</mgrwt>
</event>
<event>
 8    1  0.1372337E-020  0.8274939E+02  0.7818608E-02  0.1321425E+00
          1   -1    0    0  501    0  0.00000000000E+00  0.00000000000E+00  0.13543929186E+03  0.13543929195E+03  0.50400000000E-02 0. -1.
         -2   -1    0    0    0  501 -0.00000000000E+00 -0.00000000000E+00 -0.12639357012E+02  0.12639357269E+02  0.25500000000E-02 0.  1.
        -24    2    1    2    0    0  0.00000000000E+00  0.00000000000E+00  0.12279993485E+03  0.14807864922E+03  0.82749394904E+02 0.  0.
         66    2    3    3    0    0 -0.34094326738E+02  0.22118926616E+02  0.47785067566E+02  0.62762112094E+02  0.20000004476E+01 0.  0.
         13    1    3    3    0    0  0.34094326738E+02 -0.22118926616E+02  0.75014867282E+02  0.85316537130E+02  0.10566000000E+00 0. -1.
         13    1    4    4    0    0 -0.65658822438E+01  0.39213748712E+01  0.95751779236E+01  0.12254925003E+02  0.10566000000E+00 0. -1.
        -13    1    4    4    0    0 -0.28876680134E+01  0.14950532449E+01  0.34326578223E+01  0.47294941084E+01  0.10566000000E+00 0.  1.
         14    1    4    4    0    0 -0.24640776481E+02  0.16702498500E+02  0.34777231820E+02  0.45777692982E+02  0.00000000000E+00 0. -1.
<mgrwt>
<rscale>  0 0.82749395E+02</rscale>
<asrwt>0</asrwt>
<pdfrwt beam="1">  1        1 0.20836814E-01 0.82749395E+02</pdfrwt>
<pdfrwt beam="2">  1       -2 0.19445165E-02 0.82749395E+02</pdfrwt>
<totfact> 0.14153059E+05</totfact>
</mgrwt>
</event>
<event>
 8    1  0.1372337E-020  0.8100949E+02  0.7818608E-02  0.1326211E+00
         -2   -1    0    0    0  501 -0.00000000000E+00  0.00000000000E+00  0.11194245574E+02  0.11194245864E+02  0.25500000000E-02 0.  1.
          1   -1    0    0  501    0  0.00000000000E+00 -0.00000000000E+00 -0.14656052011E+03  0.14656052019E+03  0.50400000000E-02 0. -1.
        -24    2    1    2    0    0  0.71054273576E-14 -0.35527136788E-14 -0.13536627453E+03  0.15775476606E+03  0.81009492858E+02 0.  0.
         66    2    3    3    0    0 -0.31465775953E+02  0.15417130032E+02 -0.28252524165E+02  0.45055388789E+02  0.19999956294E+01 0.  0.
         13    1    3    3    0    0  0.31465775953E+02 -0.15417130032E+02 -0.10711375037E+03  0.11269937727E+03  0.10566000000E+00 0. -1.
         13    1    4    4    0    0 -0.71891825083E+00  0.54500996717E+00 -0.88989613730E+00  0.12715968254E+01  0.10566000000E+00 0.  1.
        -13    1    4    4    0    0 -0.15864000579E+02  0.84009329205E+01 -0.14452070561E+02  0.23045947492E+02  0.10566000000E+00 0.  1.
         14    1    4    4    0    0 -0.14882857124E+02  0.64711871439E+01 -0.12910557467E+02  0.20737844471E+02  0.00000000000E+00 0. -1.
<mgrwt>
<rscale>  0 0.81009493E+02</rscale>
<asrwt>0</asrwt>
<pdfrwt beam="1">  1        1 0.22547771E-01 0.81009493E+02</pdfrwt>
<pdfrwt beam="2">  1       -2 0.17221918E-02 0.81009493E+02</pdfrwt>
<totfact> 0.15202461E+05</totfact>
</mgrwt>
</event>
<event>
 8    1  0.1372337E-020  0.7986262E+02  0.7818608E-02  0.1329442E+00
         -2   -1    0    0    0  501 -0.00000000000E+00  0.00000000000E+00  0.16142158116E+02  0.16142158318E+02  0.25500000000E-02 0.  1.
          1   -1    0    0  501    0  0.00000000000E+00 -0.00000000000E+00 -0.98779213346E+02  0.98779213474E+02  0.50400000000E-02 0. -1.
        -24    2    1    2    0    0  0.00000000000E+00 -0.35527136788E-14 -0.82637055229E+02  0.11492137179E+03  0.79862624534E+02 0.  0.
         66    2    3    3    0    0  0.22170883429E+02 -0.15646498966E+02  0.76033060307E+00  0.27220196602E+02  0.19999996190E+01 0.  0.
         13    1    3    3    0    0 -0.22170883429E+02  0.15646498966E+02 -0.83397385833E+02  0.87701175190E+02  0.10566000000E+00 0. -1.
         13    1    4    4    0    0  0.60354129741E+01 -0.36370698351E+01 -0.44481071043E+00  0.70614097287E+01  0.10566000000E+00 0. -1.
        -13    1    4    4    0    0  0.92485806787E+01 -0.65559884175E+01  0.78311843445E+00  0.11364051532E+02  0.10566000000E+00 0.  1.
         14    1    4    4    0    0  0.68868897767E+01 -0.54534407135E+01  0.42202287905E+00  0.87947353413E+01  0.00000000000E+00 0. -1.
<mgrwt>
<rscale>  0 0.79862625E+02</rscale>
<asrwt>0</asrwt>
<pdfrwt beam="1">  1        1 0.15196802E-01 0.79862625E+02</pdfrwt>
<pdfrwt beam="2">  1       -2 0.24834090E-02 0.79862625E+02</pdfrwt>
<totfact> 0.14737137E+05</totfact>
</mgrwt>
</event>
<event>
 8    1  0.1372337E-020  0.7757106E+02  0.7818608E-02  0.1336089E+00
          1   -1    0    0  501    0  0.00000000000E+00  0.00000000000E+00  0.11228826304E+02  0.11228827435E+02  0.50400000000E-02 0. -1.
         -2   -1    0    0    0  501 -0.00000000000E+00 -0.00000000000E+00 -0.13396923242E+03  0.13396923244E+03  0.25500000000E-02 0.  1.
        -24    2    1    2    0    0  0.00000000000E+00  0.35527136788E-14 -0.12274040612E+03  0.14519805988E+03  0.77571059677E+02 0.  0.
         66    2    3    3    0    0  0.25220517887E+01 -0.30263795312E+02 -0.10649208164E+03  0.11075568388E+03  0.20000021005E+01 0.  0.
         13    1    3    3    0    0 -0.25220517887E+01  0.30263795312E+02 -0.16248324473E+02  0.34442375995E+02  0.10566000000E+00 0. -1.
         13    1    4    4    0    0  0.11608489490E+01 -0.82766741732E+01 -0.27882200706E+02  0.29108060497E+02  0.10566000000E+00 0. -1.
        -13    1    4    4    0    0  0.41859463490E+00 -0.51578100463E+01 -0.20407828210E+02  0.21053950751E+02  0.10566000000E+00 0. -1.
        -14    1    4    4    0    0  0.94260820482E+00 -0.16829311093E+02 -0.58202052725E+02  0.60593672636E+02  0.00000000000E+00 0.  1.
<mgrwt>
<rscale>  0 0.77571060E+02</rscale>
<asrwt>0</asrwt>
<pdfrwt beam="1">  1        1 0.17275119E-02 0.77571060E+02</pdfrwt>
<pdfrwt beam="2">  1       -2 0.20610650E-01 0.77571060E+02</pdfrwt>
<totfact> 0.10601611E+05</totfact>
</mgrwt>
</event>
<event>
 8    1  0.1372337E-020  0.8125943E+02  0.7818608E-02  0.1325515E+00
          1   -1    0    0  501    0  0.00000000000E+00  0.00000000000E+00  0.98369591736E+02  0.98369591865E+02  0.50400000000E-02 0. -1.
         -2   -1    0    0    0  501 -0.00000000000E+00 -0.00000000000E+00 -0.16781340747E+02  0.16781340941E+02  0.25500000000E-02 0.  1.
        -24    2    1    2    0    0  0.00000000000E+00  0.00000000000E+00  0.81588250989E+02  0.11515093281E+03  0.81259427925E+02 0.  0.
         66    2    3    3    0    0 -0.37770314528E+02  0.14228276043E+02  0.47112920087E+02  0.62069861759E+02  0.20000002171E+01 0.  0.
         13    1    3    3    0    0  0.37770314528E+02 -0.14228276043E+02  0.34475330902E+02  0.53081071047E+02  0.10566000000E+00 0. -1.
         13    1    4    4    0    0 -0.14887836389E+02  0.52852122843E+01  0.19000456733E+02  0.24710517221E+02  0.10566000000E+00 0. -1.
        -13    1    4    4    0    0 -0.13286694739E+02  0.56990178780E+01  0.17231028387E+02  0.22492989245E+02  0.10566000000E+00 0.  1.
        -14    1    4    4    0    0 -0.95957833999E+01  0.32440458804E+01  0.10881434967E+02  0.14866355292E+02  0.00000000000E+00 0.  1.
<mgrwt>
<rscale>  0 0.81259428E+02</rscale>
<asrwt>0</asrwt>
<pdfrwt beam="1">  1        1 0.15133783E-01 0.81259428E+02</pdfrwt>
<pdfrwt beam="2">  1       -2 0.25817448E-02 0.81259428E+02</pdfrwt>
<totfact> 0.14051738E+05</totfact>
</mgrwt>
</event>
<event>
 8    1  0.1372337E-020  0.8021953E+02  0.7818608E-02  0.1328430E+00
         -2   -1    0    0    0  501 -0.00000000000E+00  0.00000000000E+00  0.12778656572E+02  0.12778656826E+02  0.25500000000E-02 0.  1.
          1   -1    0    0  501    0  0.00000000000E+00 -0.00000000000E+00 -0.12589688713E+03  0.12589688723E+03  0.50400000000E-02 0. -1.
        -24    2    1    2    0    0 -0.35527136788E-14  0.00000000000E+00 -0.11311823056E+03  0.13867554406E+03  0.80219526518E+02 0.  0.
         66    2    3    3    0    0  0.23491856244E+02  0.57405384770E+00 -0.45553480882E+00  0.23588224924E+02  0.19999988703E+01 0.  0.
         13    1    3    3    0    0 -0.23491856244E+02 -0.57405384770E+00 -0.11266269575E+03  0.11508731913E+03  0.10566000000E+00 0. -1.
         13    1    4    4    0    0  0.44198376890E+00 -0.12333273358E+00  0.50226557200E-01  0.47354762991E+00  0.10566000000E+00 0.  1.
        -13    1    4    4    0    0  0.63540728880E+01 -0.46358725086E+00 -0.24427047695E+00  0.63765184471E+01  0.10566000000E+00 0.  1.
        -14    1    4    4    0    0  0.16695799587E+02  0.11609738321E+01 -0.26149088906E+00  0.16738158847E+02  0.00000000000E+00 0.  1.
<mgrwt>
<rscale>  0 0.80219527E+02</rscale>
<asrwt>0</asrwt>
<pdfrwt beam="1">  1        1 0.19368751E-01 0.80219527E+02</pdfrwt>
<pdfrwt beam="2">  1       -2 0.19659473E-02 0.80219527E+02</pdfrwt>
<totfact> 0.15183273E+05</totfact>
</mgrwt>
</event>
<event>
 8    1  0.1372337E-020  0.8088966E+02  0.7818608E-02  0.1326545E+00
         -2   -1    0    0    0  501 -0.00000000000E+00  0.00000000000E+00  0.15787867539E+03  0.15787867541E+03  0.25500000000E-02 0.  1.
          1   -1    0    0  501    0  0.00000000000E+00 -0.00000000000E+00 -0.10361021291E+02  0.10361022517E+02  0.50400000000E-02 0. -1.
        -24    2    1    2    0    0 -0.71054273576E-14  0.00000000000E+00  0.14751765410E+03  0.16823969793E+03  0.80889663665E+02 0.  0.
         66    2    3    3    0    0  0.29994099316E+02  0.22360036900E+02  0.10563065604E+03  0.11207788693E+03  0.19999998774E+01 0.  0.
         13    1    3    3    0    0 -0.29994099316E+02 -0.22360036900E+02  0.41886998061E+02  0.56161810998E+02  0.10566000000E+00 0. -1.
         13    1    4    4    0    0  0.61849569953E+01  0.40720475387E+01  0.20854984231E+02  0.22130901371E+02  0.10566000000E+00 0. -1.
        -13    1    4    4    0    0  0.11721263504E+02  0.94911511359E+01  0.44466239247E+02  0.46954526563E+02  0.10566000000E+00 0.  1.
         14    1    4    4    0    0  0.12087878817E+02  0.87968382257E+01  0.40309432561E+02  0.42992458996E+02  0.00000000000E+00 0. -1.
<mgrwt>
<rscale>  0 0.80889664E+02</rscale>
<asrwt>0</asrwt>
<pdfrwt beam="1">  1        1 0.15940034E-02 0.80889664E+02</pdfrwt>
<pdfrwt beam="2">  1       -2 0.24289027E-01 0.80889664E+02</pdfrwt>
<totfact> 0.90295777E+04</totfact>
</mgrwt>
</event>
<event>
 8    1  0.1372337E-020  0.7969543E+02  0.7818608E-02  0.1329918E+00
          1   -1    0    0  501    0  0.00000000000E+00  0.00000000000E+00  0.28618355402E+01  0.28618399782E+01  0.50400000000E-02 0. -1.
         -2   -1    0    0    0  501 -0.00000000000E+00 -0.00000000000E+00 -0.55483244407E+03  0.55483244407E+03  0.25500000000E-02 0.  1.
        -24    2    1    2    0    0  0.35527136788E-14  0.00000000000E+00 -0.55197060853E+03  0.55769428405E+03  0.79695431399E+02 0.  0.
         66    2    3    3    0    0  0.25031634358E+02  0.45524618958E+01 -0.49053966077E+03  0.49120308062E+03  0.19999974874E+01 0.  0.
         13    1    3    3    0    0 -0.25031634358E+02 -0.45524618958E+01 -0.61430947755E+02  0.66491203434E+02  0.10566000000E+00 0. -1.
         13    1    4    4    0    0  0.60912472829E+01  0.76237879936E+00 -0.11724675607E+03  0.11740739963E+03  0.10566000000E+00 0. -1.
        -13    1    4    4    0    0  0.57285688239E+01  0.97527784843E+00 -0.12631028648E+03  0.12644392948E+03  0.10566000000E+00 0.  1.
        -14    1    4    4    0    0  0.13211818251E+02  0.28148052480E+01 -0.24698261822E+03  0.24735175150E+03  0.00000000000E+00 0.  1.
<mgrwt>
<rscale>  0 0.79695431E+02</rscale>
<asrwt>0</asrwt>
<pdfrwt beam="1">  1        1 0.44028317E-03 0.79695431E+02</pdfrwt>
<pdfrwt beam="2">  1       -2 0.85358752E-01 0.79695431E+02</pdfrwt>
<totfact> 0.46862873E+04</totfact>
</mgrwt>
</event>
<event>
 8    1  0.1372337E-020  0.8008646E+02  0.7818608E-02  0.1328806E+00
         -2   -1    0    0    0  501 -0.00000000000E+00  0.00000000000E+00  0.11827863297E+03  0.11827863300E+03  0.25500000000E-02 0.  1.
          1   -1    0    0  501    0  0.00000000000E+00 -0.00000000000E+00 -0.13556634829E+02  0.13556635766E+02  0.50400000000E-02 0. -1.
        -24    2    1    2    0    0  0.00000000000E+00 -0.55511151231E-16  0.10472199814E+03  0.13183526877E+03  0.80086460750E+02 0.  0.
         66    2    3    3    0    0 -0.28952109548E+02  0.18689068598E+00  0.97870424182E+02  0.10208270913E+03  0.19999993919E+01 0.  0.
         13    1    3    3    0    0  0.28952109548E+02 -0.18689068598E+00  0.68515739628E+01  0.29752559641E+02  0.10566000000E+00 0. -1.
         13    1    4    4    0    0 -0.90905419262E+01 -0.34569076129E+00  0.31484873216E+02  0.32772944025E+02  0.10566000000E+00 0. -1.
        -13    1    4    4    0    0 -0.14806843899E+02  0.28619218107E+00  0.51520303620E+02  0.53606691573E+02  0.10566000000E+00 0.  1.
        -14    1    4    4    0    0 -0.50547237226E+01  0.24638926620E+00  0.14865247345E+02  0.15703073528E+02  0.00000000000E+00 0.  1.
<mgrwt>
<rscale>  0 0.80086461E+02</rscale>
<asrwt>0</asrwt>
<pdfrwt beam="1">  1        1 0.20856362E-02 0.80086461E+02</pdfrwt>
<pdfrwt beam="2">  1       -2 0.18196713E-01 0.80086461E+02</pdfrwt>
<totfact> 0.10127247E+05</totfact>
</mgrwt>
</event>
<event>
 8    1  0.1372337E-020  0.7964704E+02  0.7818608E-02  0.1330056E+00
         -2   -1    0    0    0  501 -0.00000000000E+00  0.00000000000E+00  0.70747784602E+01  0.70747789198E+01  0.25500000000E-02 0.  1.
          1   -1    0    0  501    0  0.00000000000E+00 -0.00000000000E+00 -0.22416430016E+03  0.22416430022E+03  0.50400000000E-02 0. -1.
        -24    2    1    2    0    0  0.35527136788E-14  0.00000000000E+00 -0.21708952170E+03  0.23123907914E+03  0.79647041930E+02 0.  0.
         66    2    3    3    0    0 -0.26769238429E+02  0.24226797701E+02 -0.15722725929E+03  0.16133177281E+03  0.20000004085E+01 0.  0.
         13    1    3    3    0    0  0.26769238429E+02 -0.24226797701E+02 -0.59862262418E+02  0.69907306333E+02  0.10566000000E+00 0. -1.
         13    1    4    4    0    0 -0.40922038479E+01  0.36282386068E+01 -0.21106538554E+02  0.21803838687E+02  0.10566000000E+00 0. -1.
        -13    1    4    4    0    0 -0.11830136406E+02  0.10230739183E+02 -0.69936627911E+02  0.71664239612E+02  0.10566000000E+00 0.  1.
        -14    1    4    4    0    0 -0.10846898175E+02  0.10367819912E+02 -0.66184092821E+02  0.67863694508E+02  0.00000000000E+00 0.  1.
<mgrwt>
<rscale>  0 0.79647042E+02</rscale>
<asrwt>0</asrwt>
<pdfrwt beam="1">  1        1 0.34486810E-01 0.79647042E+02</pdfrwt>
<pdfrwt beam="2">  1       -2 0.10884277E-02 0.79647042E+02</pdfrwt>
<totfact> 0.17249373E+05</totfact>
</mgrwt>
</event>
<event>
 8    1  0.1372337E-020  0.7960535E+02  0.7818608E-02  0.1330175E+00
         -2   -1    0    0    0  501 -0.00000000000E+00  0.00000000000E+00  0.85425103672E+01  0.85425107478E+01  0.25500000000E-02 0.  1.
          1   -1    0    0  501    0  0.00000000000E+00 -0.00000000000E+00 -0.18545520127E+03  0.18545520134E+03  0.50400000000E-02 0. -1.
        -24    2    1    2    0    0  0.00000000000E+00  0.00000000000E+00 -0.17691269091E+03  0.19399771209E+03  0.79605352159E+02 0.  0.
         66    2    3    3    0    0  0.38636232918E+02 -0.71615439838E+01 -0.73449540161E+02  0.83323953084E+02  0.20000003362E+01 0.  0.
         13    1    3    3    0    0 -0.38636232918E+02  0.71615439838E+01 -0.10346315075E+03  0.11067375901E+03  0.10566000000E+00 0. -1.
         13    1    4    4    0    0  0.15666073947E+02 -0.32143098918E+01 -0.31382005748E+02  0.35222139484E+02  0.10566000000E+00 0. -1.
        -13    1    4    4    0    0  0.21421712103E+02 -0.37666886979E+01 -0.39681871592E+02  0.45251958965E+02  0.10566000000E+00 0.  1.
         14    1    4    4    0    0  0.15484468681E+01 -0.18054539407E+00 -0.23856628209E+01  0.28498546345E+01  0.00000000000E+00 0. -1.
<mgrwt>
<rscale>  0 0.79605352E+02</rscale>
<asrwt>0</asrwt>
<pdfrwt beam="1">  1        1 0.28531567E-01 0.79605352E+02</pdfrwt>
<pdfrwt beam="2">  1       -2 0.13142325E-02 0.79605352E+02</pdfrwt>
<totfact> 0.16649791E+05</totfact>
</mgrwt>
</event>
<event>
 8    1  0.1372337E-020  0.8165361E+02  0.7818608E-02  0.1324423E+00
         -2   -1    0    0    0  501 -0.00000000000E+00  0.00000000000E+00  0.24897172954E+03  0.24897172956E+03  0.25500000000E-02 0.  1.
          1   -1    0    0  501    0  0.00000000000E+00 -0.00000000000E+00 -0.66948469451E+01  0.66948488422E+01  0.50400000000E-02 0. -1.
        -24    2    1    2    0    0 -0.35527136788E-14  0.00000000000E+00  0.24227688260E+03  0.25566657840E+03  0.81653606586E+02 0.  0.
         66    2    3    3    0    0 -0.22537529027E+02  0.25204962490E+02  0.19272050156E+03  0.19567427544E+03  0.19999995735E+01 0.  0.
         13    1    3    3    0    0  0.22537529027E+02 -0.25204962490E+02  0.49556381039E+02  0.59992302960E+02  0.10566000000E+00 0. -1.
         13    1    4    4    0    0 -0.33106445811E+01  0.41477733307E+01  0.34024712043E+02  0.34436268450E+02  0.10566000000E+00 0.  1.
        -13    1    4    4    0    0 -0.29500882201E+01  0.30082326041E+01  0.23270337981E+02  0.23648938194E+02  0.10566000000E+00 0. -1.
         14    1    4    4    0    0 -0.16276796226E+02  0.18048956555E+02  0.13542545154E+03  0.13758906879E+03  0.00000000000E+00 0. -1.
<mgrwt>
<rscale>  0 0.81653607E+02</rscale>
<asrwt>0</asrwt>
<pdfrwt beam="1">  1        1 0.10299767E-02 0.81653607E+02</pdfrwt>
<pdfrwt beam="2">  1       -2 0.38303340E-01 0.81653607E+02</pdfrwt>
<totfact> 0.73287523E+04</totfact>
</mgrwt>
</event>
<event>
 8    1  0.1372337E-020  0.7037631E+02  0.7818608E-02  0.1358818E+00
         -2   -1    0    0    0  501 -0.00000000000E+00  0.00000000000E+00  0.11174289124E+03  0.11174289127E+03  0.25500000000E-02 0.  1.
          1   -1    0    0  501    0  0.00000000000E+00 -0.00000000000E+00 -0.11080848999E+02  0.11080850145E+02  0.50400000000E-02 0. -1.
        -24    2    1    2    0    0  0.00000000000E+00  0.00000000000E+00  0.10066204224E+03  0.12282374142E+03  0.70376307853E+02 0.  0.
         66    2    3    3    0    0 -0.19268444461E+02 -0.10370788095E+02  0.98401423067E+02  0.10082492870E+03  0.19999972252E+01 0.  0.
         13    1    3    3    0    0  0.19268444461E+02  0.10370788095E+02  0.22606191754E+01  0.21998812712E+02  0.10566000000E+00 0. -1.
         13    1    4    4    0    0 -0.67805782472E+01 -0.37691318170E+01  0.35029406636E+02  0.35878309455E+02  0.10566000000E+00 0.  1.
        -13    1    4    4    0    0 -0.88018907509E+01 -0.51705850339E+01  0.43094771606E+02  0.44287455721E+02  0.10566000000E+00 0. -1.
         14    1    4    4    0    0 -0.36859754628E+01 -0.14310712436E+01  0.20277244824E+02  0.20659163528E+02  0.00000000000E+00 0. -1.
<mgrwt>
<rscale>  0 0.70376308E+02</rscale>
<asrwt>0</asrwt>
<pdfrwt beam="1">  1        1 0.17047462E-02 0.70376308E+02</pdfrwt>
<pdfrwt beam="2">  1       -2 0.17191213E-01 0.70376308E+02</pdfrwt>
<totfact> 0.14306320E+05</totfact>
</mgrwt>
</event>
<event>
 8    1  0.1372337E-020  0.8024500E+02  0.7818608E-02  0.1328358E+00
          1   -1    0    0  501    0  0.00000000000E+00  0.00000000000E+00  0.13020529217E+03  0.13020529227E+03  0.50400000000E-02 0. -1.
         -2   -1    0    0    0  501 -0.00000000000E+00 -0.00000000000E+00 -0.12363666479E+02  0.12363666742E+02  0.25500000000E-02 0.  1.
        -24    2    1    2    0    0  0.00000000000E+00  0.00000000000E+00  0.11784162569E+03  0.14256895901E+03  0.80244995656E+02 0.  0.
         66    2    3    3    0    0  0.24734046513E+02  0.19430405507E+02  0.14772244264E+02  0.34807081397E+02  0.19999999119E+01 0.  0.
         13    1    3    3    0    0 -0.24734046513E+02 -0.19430405507E+02  0.10306938143E+03  0.10776187761E+03  0.10566000000E+00 0. -1.
         13    1    4    4    0    0  0.61308547232E+01  0.45667566114E+01  0.43175154358E+01  0.87803615620E+01  0.10566000000E+00 0. -1.
        -13    1    4    4    0    0  0.39498466486E+01  0.36925042751E+01  0.24514687800E+01  0.59377385918E+01  0.10566000000E+00 0.  1.
         14    1    4    4    0    0  0.14653345142E+02  0.11171144621E+02  0.80032600487E+01  0.20088981243E+02  0.00000000000E+00 0. -1.
<mgrwt>
<rscale>  0 0.80244996E+02</rscale>
<asrwt>0</asrwt>
<pdfrwt beam="1">  1        1 0.20031584E-01 0.80244996E+02</pdfrwt>
<pdfrwt beam="2">  1       -2 0.19021025E-02 0.80244996E+02</pdfrwt>
<totfact> 0.15261742E+05</totfact>
</mgrwt>
</event>
<event>
 8    1  0.1372337E-020  0.7940720E+02  0.7818608E-02  0.1330742E+00
         -2   -1    0    0    0  501 -0.00000000000E+00  0.00000000000E+00  0.17509486521E+02  0.17509486707E+02  0.25500000000E-02 0.  1.
          1   -1    0    0  501    0  0.00000000000E+00 -0.00000000000E+00 -0.90029821004E+02  0.90029821145E+02  0.50400000000E-02 0. -1.
        -24    2    1    2    0    0  0.17763568394E-14  0.00000000000E+00 -0.72520334482E+02  0.10753930785E+03  0.79407202569E+02 0.  0.
         66    2    3    3    0    0  0.11344527535E+02  0.38020531124E+02 -0.35830053850E+02  0.53498148086E+02  0.19999994350E+01 0.  0.
         13    1    3    3    0    0 -0.11344527535E+02 -0.38020531124E+02 -0.36690280632E+02  0.54041159766E+02  0.10566000000E+00 0. -1.
         13    1    4    4    0    0  0.30923379509E+01  0.12930735675E+02 -0.11621757550E+02  0.17659073919E+02  0.10566000000E+00 0.  1.
        -13    1    4    4    0    0  0.29626239509E+01  0.92762374883E+01 -0.83657839636E+01  0.12838349893E+02  0.10566000000E+00 0.  1.
         14    1    4    4    0    0  0.52895656328E+01  0.15813557961E+02 -0.15842512337E+02  0.23000724274E+02  0.00000000000E+00 0. -1.
<mgrwt>
<rscale>  0 0.79407203E+02</rscale>
<asrwt>0</asrwt>
<pdfrwt beam="1">  1        1 0.13850742E-01 0.79407203E+02</pdfrwt>
<pdfrwt beam="2">  1       -2 0.26937672E-02 0.79407203E+02</pdfrwt>
<totfact> 0.14738678E+05</totfact>
</mgrwt>
</event>
<event>
 8    1  0.1372337E-020  0.7954292E+02  0.7818608E-02  0.1330354E+00
         -2   -1    0    0    0  501 -0.00000000000E+00  0.00000000000E+00  0.37042063472E+01  0.37042072250E+01  0.25500000000E-02 0.  1.
          1   -1    0    0  501    0  0.00000000000E+00 -0.00000000000E+00 -0.42701958766E+03  0.42701958769E+03  0.50400000000E-02 0. -1.
        -24    2    1    2    0    0 -0.17763568394E-14  0.00000000000E+00 -0.42331538131E+03  0.43072379491E+03  0.79542915774E+02 0.  0.
         66    2    3    3    0    0  0.13003139298E+02  0.37432050187E+02 -0.22850221419E+03  0.23192132697E+03  0.20000001541E+01 0.  0.
         13    1    3    3    0    0 -0.13003139298E+02 -0.37432050187E+02 -0.19481316713E+03  0.19880246795E+03  0.10566000000E+00 0. -1.
         13    1    4    4    0    0  0.51972406588E+01  0.13456789295E+02 -0.85889012919E+02  0.87092078818E+02  0.10566000000E+00 0. -1.
        -13    1    4    4    0    0  0.60905905860E+01  0.18333753283E+02 -0.10658793424E+03  0.10832460798E+03  0.10566000000E+00 0.  1.
         14    1    4    4    0    0  0.17153080531E+01  0.56415076090E+01 -0.36025267022E+02  0.36504640168E+02  0.00000000000E+00 0. -1.
<mgrwt>
<rscale>  0 0.79542916E+02</rscale>
<asrwt>0</asrwt>
<pdfrwt beam="1">  1        1 0.65695283E-01 0.79542916E+02</pdfrwt>
<pdfrwt beam="2">  1       -2 0.56987830E-03 0.79542916E+02</pdfrwt>
<totfact> 0.19481673E+05</totfact>
</mgrwt>
</event>
<event>
 8    1  0.1372337E-020  0.7952589E+02  0.7818608E-02  0.1330402E+00
         -2   -1    0    0    0  501 -0.00000000000E+00  0.00000000000E+00  0.65480509476E+02  0.65480509526E+02  0.25500000000E-02 0.  1.
          1   -1    0    0  501    0  0.00000000000E+00 -0.00000000000E+00 -0.24145990577E+02  0.24145991103E+02  0.50400000000E-02 0. -1.
        -24    2    1    2    0    0  0.00000000000E+00  0.00000000000E+00  0.41334518899E+02  0.89626500629E+02  0.79525889887E+02 0.  0.
         66    2    3    3    0    0  0.74072313852E+00  0.34008505927E+02 -0.24703660488E+01  0.34164745739E+02  0.19999992137E+01 0.  0.
         13    1    3    3    0    0 -0.74072313852E+00 -0.34008505927E+02  0.43804884948E+02  0.55461754890E+02  0.10566000000E+00 0. -1.
         13    1    4    4    0    0  0.17869420703E+00  0.44557443328E+01 -0.27670972956E+00  0.44691522114E+01  0.10566000000E+00 0.  1.
        -13    1    4    4    0    0 -0.13631834656E+00  0.21017269377E+02 -0.21882114762E+01  0.21131578934E+02  0.10566000000E+00 0.  1.
        -14    1    4    4    0    0  0.69834727805E+00  0.85354922173E+01 -0.54448430136E-02  0.85640145936E+01  0.00000000000E+00 0.  1.
<mgrwt>
<rscale>  0 0.79525890E+02</rscale>
<asrwt>0</asrwt>
<pdfrwt beam="1">  1        1 0.37147679E-02 0.79525890E+02</pdfrwt>
<pdfrwt beam="2">  1       -2 0.10073924E-01 0.79525890E+02</pdfrwt>
<totfact> 0.11820432E+05</totfact>
</mgrwt>
</event>
<event>
 8    1  0.1372337E-020  0.7993829E+02  0.7818608E-02  0.1329227E+00
         -2   -1    0    0    0  501 -0.00000000000E+00  0.00000000000E+00  0.80059556065E+02  0.80059556105E+02  0.25500000000E-02 0.  1.
          1   -1    0    0  501    0  0.00000000000E+00 -0.00000000000E+00 -0.19954300261E+02  0.19954300897E+02  0.50400000000E-02 0. -1.
        -24    2    1    2    0    0  0.00000000000E+00  0.88817841970E-15  0.60105255804E+02  0.10001385700E+03  0.79938287555E+02 0.  0.
         66    2    3    3    0    0 -0.69969590347E+01 -0.77017275229E+01  0.78321444035E+02  0.79034945680E+02  0.20000000709E+01 0.  0.
         13    1    3    3    0    0  0.69969590347E+01  0.77017275229E+01 -0.18216188231E+02  0.20978911322E+02  0.10566000000E+00 0. -1.
         13    1    4    4    0    0 -0.56507390449E+00 -0.94905819220E+00  0.59603774986E+01  0.60627785652E+01  0.10566000000E+00 0. -1.
        -13    1    4    4    0    0 -0.49229596378E+01 -0.52404117575E+01  0.50981539820E+02  0.51486173032E+02  0.10566000000E+00 0.  1.
         14    1    4    4    0    0 -0.15089254924E+01 -0.15122575732E+01  0.21379526716E+02  0.21485994083E+02  0.00000000000E+00 0. -1.
<mgrwt>
<rscale>  0 0.79938288E+02</rscale>
<asrwt>0</asrwt>
<pdfrwt beam="1">  1        1 0.30698924E-02 0.79938288E+02</pdfrwt>
<pdfrwt beam="2">  1       -2 0.12316855E-01 0.79938288E+02</pdfrwt>
<totfact> 0.11196214E+05</totfact>
</mgrwt>
</event>
<event>
 8    1  0.1372337E-020  0.8014468E+02  0.7818608E-02  0.1328641E+00
          1   -1    0    0  501    0  0.00000000000E+00  0.00000000000E+00  0.47472962403E+02  0.47472962671E+02  0.50400000000E-02 0. -1.
         -2   -1    0    0    0  501 -0.00000000000E+00 -0.00000000000E+00 -0.33825413297E+02  0.33825413393E+02  0.25500000000E-02 0.  1.
        -24    2    1    2    0    0  0.00000000000E+00 -0.17763568394E-14  0.13647549106E+02  0.81298376064E+02  0.80144683879E+02 0.  0.
         66    2    3    3    0    0  0.24653094341E+02 -0.10083234865E+02 -0.23508015120E+02  0.35581926038E+02  0.19999999445E+01 0.  0.
         13    1    3    3    0    0 -0.24653094341E+02  0.10083234865E+02  0.37155564227E+02  0.45716450026E+02  0.10566000000E+00 0. -1.
         13    1    4    4    0    0  0.16270074087E+01 -0.10523943709E+01 -0.15124727376E+01  0.24603708739E+01  0.10566000000E+00 0. -1.
        -13    1    4    4    0    0  0.89847672062E+01 -0.30331912847E+01 -0.89184199330E+01  0.13018282116E+02  0.10566000000E+00 0.  1.
        -14    1    4    4    0    0  0.14041319726E+02 -0.59976492095E+01 -0.13077122450E+02  0.20103273048E+02  0.00000000000E+00 0.  1.
<mgrwt>
<rscale>  0 0.80144684E+02</rscale>
<asrwt>0</asrwt>
<pdfrwt beam="1">  1        1 0.73035327E-02 0.80144684E+02</pdfrwt>
<pdfrwt beam="2">  1       -2 0.52039097E-02 0.80144684E+02</pdfrwt>
<totfact> 0.12984401E+05</totfact>
</mgrwt>
</event>
<event>
 8    1  0.1372337E-020  0.8081180E+02  0.7818608E-02  0.1326763E+00
         -2   -1    0    0    0  501 -0.00000000000E+00  0.00000000000E+00  0.14057116259E+02  0.14057116491E+02  0.25500000000E-02 0.  1.
          1   -1    0    0  501    0  0.00000000000E+00 -0.00000000000E+00 -0.11614308155E+03  0.11614308166E+03  0.50400000000E-02 0. -1.
        -24    2    1    2    0    0  0.00000000000E+00  0.35527136788E-14 -0.10208596529E+03  0.13020019815E+03  0.80811801671E+02 0.  0.
         66    2    3    3    0    0 -0.24488750060E+02  0.25303983242E+02 -0.19230278544E+02  0.40172055675E+02  0.19999992089E+01 0.  0.
         13    1    3    3    0    0  0.24488750060E+02 -0.25303983242E+02 -0.82855686751E+02  0.90028142480E+02  0.10566000000E+00 0. -1.
         13    1    4    4    0    0 -0.10458384025E+02  0.10571647056E+02 -0.78226403147E+01  0.16803046849E+02  0.10566000000E+00 0. -1.
        -13    1    4    4    0    0 -0.12276825563E+02  0.12443555228E+02 -0.10233410361E+02  0.20255773603E+02  0.10566000000E+00 0.  1.
        -14    1    4    4    0    0 -0.17535404714E+01  0.22887809586E+01 -0.11742278685E+01  0.31132352221E+01  0.00000000000E+00 0.  1.
<mgrwt>
<rscale>  0 0.80811802E+02</rscale>
<asrwt>0</asrwt>
<pdfrwt beam="1">  1        1 0.17868166E-01 0.80811802E+02</pdfrwt>
<pdfrwt beam="2">  1       -2 0.21626334E-02 0.80811802E+02</pdfrwt>
<totfact> 0.14675777E+05</totfact>
</mgrwt>
</event>
<event>
 8    1  0.1372337E-020  0.8017043E+02  0.7818608E-02  0.1328568E+00
         -2   -1    0    0    0  501 -0.00000000000E+00  0.00000000000E+00  0.22597630248E+03  0.22597630249E+03  0.25500000000E-02 0.  1.
          1   -1    0    0  501    0  0.00000000000E+00 -0.00000000000E+00 -0.71105868521E+01  0.71105886383E+01  0.50400000000E-02 0. -1.
        -24    2    1    2    0    0  0.44408920985E-15  0.35527136788E-14  0.21886571563E+03  0.23308689113E+03  0.80170426846E+02 0.  0.
         66    2    3    3    0    0  0.26728739337E+01  0.25093776670E+02  0.19995654428E+03  0.20155262711E+03  0.20000025126E+01 0.  0.
         13    1    3    3    0    0 -0.26728739337E+01 -0.25093776670E+02  0.18909171346E+02  0.31534264026E+02  0.10566000000E+00 0. -1.
         13    1    4    4    0    0  0.10331658993E+01  0.35293615327E+01  0.29215481482E+02  0.29446211078E+02  0.10566000000E+00 0. -1.
        -13    1    4    4    0    0  0.30405322367E+00  0.72731918209E+01  0.56361338930E+02  0.56829600189E+02  0.10566000000E+00 0.  1.
         14    1    4    4    0    0  0.13356548108E+01  0.14291223316E+02  0.11437972387E+03  0.11527681584E+03  0.00000000000E+00 0. -1.
<mgrwt>
<rscale>  0 0.80170427E+02</rscale>
<asrwt>0</asrwt>
<pdfrwt beam="1">  1        1 0.10939366E-02 0.80170427E+02</pdfrwt>
<pdfrwt beam="2">  1       -2 0.34765583E-01 0.80170427E+02</pdfrwt>
<totfact> 0.80339239E+04</totfact>
</mgrwt>
</event>
<event>
 8    1  0.1372337E-020  0.7931081E+02  0.7818608E-02  0.1331019E+00
          1   -1    0    0  501    0  0.00000000000E+00  0.00000000000E+00  0.21785762361E+01  0.21785820659E+01  0.50400000000E-02 0. -1.
         -2   -1    0    0    0  501 -0.00000000000E+00 -0.00000000000E+00 -0.72182415699E+03  0.72182415699E+03  0.25500000000E-02 0.  1.
        -24    2    1    2    0    0  0.17763568394E-14  0.00000000000E+00 -0.71964558075E+03  0.72400273906E+03  0.79310808017E+02 0.  0.
         66    2    3    3    0    0  0.11331414567E+02  0.10556615990E+02 -0.69305416578E+03  0.69323006268E+03  0.20000001121E+01 0.  0.
         13    1    3    3    0    0 -0.11331414567E+02 -0.10556615990E+02 -0.26591414969E+02  0.30772676376E+02  0.10566000000E+00 0. -1.
         13    1    4    4    0    0  0.16268470550E+01  0.19453100619E+01 -0.12062975084E+03  0.12065644954E+03  0.10566000000E+00 0. -1.
        -13    1    4    4    0    0  0.65960654273E+01  0.64759662702E+01 -0.38180496876E+03  0.38191686472E+03  0.10566000000E+00 0.  1.
        -14    1    4    4    0    0  0.31085020849E+01  0.21353396576E+01 -0.19061944618E+03  0.19065674843E+03  0.00000000000E+00 0.  1.
<mgrwt>
<rscale>  0 0.79310808E+02</rscale>
<asrwt>0</asrwt>
<pdfrwt beam="1">  1        1 0.33516660E-03 0.79310808E+02</pdfrwt>
<pdfrwt beam="2">  1       -2 0.11104968E+00 0.79310808E+02</pdfrwt>
<totfact> 0.37588769E+04</totfact>
</mgrwt>
</event>
<event>
 8    1  0.1372337E-020  0.8296760E+02  0.7818608E-02  0.1320835E+00
          1   -1    0    0  501    0  0.00000000000E+00  0.00000000000E+00  0.10286272378E+02  0.10286273612E+02  0.50400000000E-02 0. -1.
         -2   -1    0    0    0  501 -0.00000000000E+00 -0.00000000000E+00 -0.16730118749E+03  0.16730118751E+03  0.25500000000E-02 0.  1.
        -24    2    1    2    0    0  0.00000000000E+00 -0.35527136788E-14 -0.15701491511E+03  0.17758746112E+03  0.82967600785E+02 0.  0.
         66    2    3    3    0    0  0.26828966294E+02 -0.31443290591E+02 -0.71641360469E+02  0.82734264275E+02  0.19999999267E+01 0.  0.
         13    1    3    3    0    0 -0.26828966294E+02  0.31443290591E+02 -0.85373554646E+02  0.94853196849E+02  0.10566000000E+00 0. -1.
         13    1    4    4    0    0  0.14947564441E+02 -0.17773857742E+02 -0.38994119753E+02  0.45386035750E+02  0.10566000000E+00 0. -1.
        -13    1    4    4    0    0  0.20347216327E+01 -0.29374391649E+01 -0.64505838984E+01  0.73749466191E+01  0.10566000000E+00 0.  1.
        -14    1    4    4    0    0  0.98466802205E+01 -0.10731993684E+02 -0.26196656817E+02  0.29973281905E+02  0.00000000000E+00 0.  1.
<mgrwt>
<rscale>  0 0.82967601E+02</rscale>
<asrwt>0</asrwt>
<pdfrwt beam="1">  1        1 0.15825037E-02 0.82967601E+02</pdfrwt>
<pdfrwt beam="2">  1       -2 0.25738642E-01 0.82967601E+02</pdfrwt>
<totfact> 0.82886318E+04</totfact>
</mgrwt>
</event>
<event>
 8    1  0.1372337E-020  0.8610667E+02  0.7818608E-02  0.1312564E+00
          1   -1    0    0  501    0  0.00000000000E+00  0.00000000000E+00  0.94836186679E+02  0.94836186813E+02  0.50400000000E-02 0. -1.
         -2   -1    0    0    0  501 -0.00000000000E+00 -0.00000000000E+00 -0.19545171653E+02  0.19545171819E+02  0.25500000000E-02 0.  1.
        -24    2    1    2    0    0  0.00000000000E+00  0.17763568394E-14  0.75291015026E+02  0.11438135863E+03  0.86106667912E+02 0.  0.
         66    2    3    3    0    0 -0.40110813979E+02 -0.10145644658E+02  0.53370477104E+02  0.67559006594E+02  0.20000105189E+01 0.  0.
         13    1    3    3    0    0  0.40110813979E+02  0.10145644658E+02  0.21920537921E+02  0.46822352038E+02  0.10566000000E+00 0. -1.
         13    1    4    4    0    0 -0.14208592983E+02 -0.29395157353E+01  0.19182959833E+02  0.24052483849E+02  0.10566000000E+00 0. -1.
        -13    1    4    4    0    0 -0.15208510497E+02 -0.43833486929E+01  0.20943476026E+02  0.26251721646E+02  0.10566000000E+00 0.  1.
        -14    1    4    4    0    0 -0.10693710499E+02 -0.28227802298E+01  0.13244041245E+02  0.17254801099E+02  0.00000000000E+00 0.  1.
<mgrwt>
<rscale>  0 0.86106668E+02</rscale>
<asrwt>0</asrwt>
<pdfrwt beam="1">  1        1 0.14590183E-01 0.86106668E+02</pdfrwt>
<pdfrwt beam="2">  1       -2 0.30069495E-02 0.86106668E+02</pdfrwt>
<totfact> 0.11926575E+05</totfact>
</mgrwt>
</event>
<event>
 8    1  0.1372337E-020  0.7996531E+02  0.7818608E-02  0.1329150E+00
          1   -1    0    0  501    0  0.00000000000E+00  0.00000000000E+00  0.15085502061E+02  0.15085502903E+02  0.50400000000E-02 0. -1.
         -2   -1    0    0    0  501 -0.00000000000E+00 -0.00000000000E+00 -0.10597012018E+03  0.10597012021E+03  0.25500000000E-02 0.  1.
        -24    2    1    2    0    0  0.00000000000E+00  0.00000000000E+00 -0.90884618117E+02  0.12105562311E+03  0.79965305455E+02 0.  0.
         66    2    3    3    0    0 -0.17307601607E+02  0.31747539922E+02 -0.19728577364E+02  0.41239254714E+02  0.20000000103E+01 0.  0.
         13    1    3    3    0    0  0.17307601607E+02 -0.31747539922E+02 -0.71156040753E+02  0.79816368397E+02  0.10566000000E+00 0. -1.
         13    1    4    4    0    0 -0.88978263524E+00  0.10917162204E+01 -0.67790285249E+00  0.15666121910E+01  0.10566000000E+00 0. -1.
        -13    1    4    4    0    0 -0.15324296753E+02  0.28359209735E+02 -0.18004482340E+02  0.36922234441E+02  0.10566000000E+00 0.  1.
        -14    1    4    4    0    0 -0.10935222185E+01  0.22966139672E+01 -0.10461921720E+01  0.27504080820E+01  0.00000000000E+00 0.  1.
<mgrwt>
<rscale>  0 0.79965305E+02</rscale>
<asrwt>0</asrwt>
<pdfrwt beam="1">  1        1 0.23208466E-02 0.79965305E+02</pdfrwt>
<pdfrwt beam="2">  1       -2 0.16303095E-01 0.79965305E+02</pdfrwt>
<totfact> 0.10469843E+05</totfact>
</mgrwt>
</event>
<event>
 8    1  0.1372337E-020  0.8054515E+02  0.7818608E-02  0.1327511E+00
         -2   -1    0    0    0  501 -0.00000000000E+00  0.00000000000E+00  0.91371728823E+02  0.91371728859E+02  0.25500000000E-02 0.  1.
          1   -1    0    0  501    0  0.00000000000E+00 -0.00000000000E+00 -0.17750350277E+02  0.17750350992E+02  0.50400000000E-02 0. -1.
        -24    2    1    2    0    0 -0.35527136788E-14 -0.22204460493E-15  0.73621378546E+02  0.10912207985E+03  0.80545148407E+02 0.  0.
         66    2    3    3    0    0 -0.23985369090E+02 -0.18402119200E+01  0.80549123534E+02  0.84088320146E+02  0.19999931448E+01 0.  0.
         13    1    3    3    0    0  0.23985369090E+02  0.18402119200E+01 -0.69277449878E+01  0.25033759705E+02  0.10566000000E+00 0. -1.
         13    1    4    4    0    0 -0.38959605515E+01 -0.73357817319E-01  0.14818474862E+02  0.15322605890E+02  0.10566000000E+00 0.  1.
        -13    1    4    4    0    0 -0.23599604829E+01 -0.26915346418E+00  0.65455549417E+01  0.69640010481E+01  0.10566000000E+00 0. -1.
        -14    1    4    4    0    0 -0.17729448056E+02 -0.14977006385E+01  0.59185093731E+02  0.61801713208E+02  0.00000000000E+00 0.  1.
<mgrwt>
<rscale>  0 0.80545148E+02</rscale>
<asrwt>0</asrwt>
<pdfrwt beam="1">  1        1 0.27308232E-02 0.80545148E+02</pdfrwt>
<pdfrwt beam="2">  1       -2 0.14057189E-01 0.80545148E+02</pdfrwt>
<totfact> 0.10659845E+05</totfact>
</mgrwt>
</event>
<event>
 8    1  0.1372337E-020  0.8343588E+02  0.7818608E-02  0.1319574E+00
          1   -1    0    0  501    0  0.00000000000E+00  0.00000000000E+00  0.18844691268E+02  0.18844691942E+02  0.50400000000E-02 0. -1.
         -2   -1    0    0    0  501 -0.00000000000E+00 -0.00000000000E+00 -0.92354201817E+02  0.92354201852E+02  0.25500000000E-02 0.  1.
        -24    2    1    2    0    0  0.44408920985E-15  0.00000000000E+00 -0.73509510549E+02  0.11119889379E+03  0.83435878613E+02 0.  0.
         66    2    3    3    0    0  0.39715527147E+01 -0.16140799194E+02 -0.87736306811E+02  0.89319416526E+02  0.20000015267E+01 0.  0.
         13    1    3    3    0    0 -0.39715527147E+01  0.16140799194E+02  0.14226796262E+02  0.21879477268E+02  0.10566000000E+00 0. -1.
         13    1    4    4    0    0  0.19099265355E-01 -0.36859025614E+00 -0.14417856457E+01  0.14920232715E+01  0.10566000000E+00 0.  1.
        -13    1    4    4    0    0  0.84889137643E-01 -0.18251394135E+01 -0.80388614468E+01  0.82445616889E+01  0.10566000000E+00 0.  1.
        -14    1    4    4    0    0  0.38675643117E+01 -0.13947069525E+02 -0.78255659719E+02  0.79582831566E+02  0.00000000000E+00 0.  1.
<mgrwt>
<rscale>  0 0.83435879E+02</rscale>
<asrwt>0</asrwt>
<pdfrwt beam="1">  1        1 0.28991834E-02 0.83435879E+02</pdfrwt>
<pdfrwt beam="2">  1       -2 0.14208338E-01 0.83435879E+02</pdfrwt>
<totfact> 0.97159753E+04</totfact>
</mgrwt>
</event>
<event>
 8    1  0.1372337E-020  0.8032158E+02  0.7818608E-02  0.1328141E+00
          1   -1    0    0  501    0  0.00000000000E+00  0.00000000000E+00  0.74262318213E+01  0.74262335316E+01  0.50400000000E-02 0. -1.
         -2   -1    0    0    0  501 -0.00000000000E+00 -0.00000000000E+00 -0.21718806264E+03  0.21718806265E+03  0.25500000000E-02 0.  1.
        -24    2    1    2    0    0  0.00000000000E+00  0.00000000000E+00 -0.20976183081E+03  0.22461429618E+03  0.80321581053E+02 0.  0.
         66    2    3    3    0    0  0.11918415739E+01 -0.36479195985E+02 -0.15163303133E+03  0.15597669192E+03  0.20000010531E+01 0.  0.
         13    1    3    3    0    0 -0.11918415739E+01  0.36479195985E+02 -0.58128799480E+02  0.68637604263E+02  0.10566000000E+00 0. -1.
         13    1    4    4    0    0 -0.30480235386E+00 -0.13475652659E+01 -0.57302473648E+01  0.58953995215E+01  0.10566000000E+00 0. -1.
        -13    1    4    4    0    0  0.38159746227E+00 -0.13190370577E+02 -0.55504946318E+02  0.57052096565E+02  0.10566000000E+00 0.  1.
        -14    1    4    4    0    0  0.11150464655E+01 -0.21941260141E+02 -0.90397837651E+02  0.93029195832E+02  0.00000000000E+00 0.  1.
<mgrwt>
<rscale>  0 0.80321581E+02</rscale>
<asrwt>0</asrwt>
<pdfrwt beam="1">  1        1 0.11424975E-02 0.80321581E+02</pdfrwt>
<pdfrwt beam="2">  1       -2 0.33413543E-01 0.80321581E+02</pdfrwt>
<totfact> 0.81347242E+04</totfact>
</mgrwt>
</event>
<event>
 8    1  0.1372337E-020  0.8113080E+02  0.7818608E-02  0.1325873E+00
          1   -1    0    0  501    0  0.00000000000E+00  0.00000000000E+00  0.19579277880E+02  0.19579278529E+02  0.50400000000E-02 0. -1.
         -2   -1    0    0    0  501 -0.00000000000E+00 -0.00000000000E+00 -0.84045571764E+02  0.84045571803E+02  0.25500000000E-02 0.  1.
        -24    2    1    2    0    0 -0.35527136788E-14  0.44408920985E-15 -0.64466293884E+02  0.10362485033E+03  0.81130799079E+02 0.  0.
         66    2    3    3    0    0 -0.20657637845E+02  0.36340724925E+01 -0.76564506176E+02  0.79410755492E+02  0.19999994255E+01 0.  0.
         13    1    3    3    0    0  0.20657637845E+02 -0.36340724925E+01  0.12098212292E+02  0.24214094840E+02  0.10566000000E+00 0. -1.
         13    1    4    4    0    0 -0.21633728122E+01  0.65550378148E+00 -0.66055101556E+01  0.69823918239E+01  0.10566000000E+00 0. -1.
        -13    1    4    4    0    0 -0.15345912296E+02  0.27402285502E+01 -0.57549901422E+02  0.59623889461E+02  0.10566000000E+00 0.  1.
         14    1    4    4    0    0 -0.31483527368E+01  0.23834016084E+00 -0.12409094598E+02  0.12804474208E+02  0.00000000000E+00 0. -1.
<mgrwt>
<rscale>  0 0.81130799E+02</rscale>
<asrwt>0</asrwt>
<pdfrwt beam="1">  1        1 0.30121967E-02 0.81130799E+02</pdfrwt>
<pdfrwt beam="2">  1       -2 0.12930088E-01 0.81130799E+02</pdfrwt>
<totfact> 0.10666875E+05</totfact>
</mgrwt>
</event>
<event>
 8    1  0.1372337E-020  0.7877136E+02  0.7818608E-02  0.1332575E+00
          1   -1    0    0  501    0  0.00000000000E+00  0.00000000000E+00  0.30320090596E+01  0.30320132485E+01  0.50400000000E-02 0. -1.
         -2   -1    0    0    0  501 -0.00000000000E+00 -0.00000000000E+00 -0.51161809676E+03  0.51161809677E+03  0.25500000000E-02 0.  1.
        -24    2    1    2    0    0 -0.71054273576E-14  0.00000000000E+00 -0.50858608770E+03  0.51465011002E+03  0.78771359871E+02 0.  0.
         66    2    3    3    0    0 -0.28379710691E+02 -0.17299451664E+01 -0.43228522690E+03  0.43322386601E+03  0.19999998374E+01 0.  0.
         13    1    3    3    0    0  0.28379710691E+02  0.17299451664E+01 -0.76300860806E+02  0.81426244006E+02  0.10566000000E+00 0. -1.
         13    1    4    4    0    0 -0.83107563514E+01 -0.67390891869E+00 -0.13471324048E+03  0.13497107523E+03  0.10566000000E+00 0. -1.
        -13    1    4    4    0    0 -0.16321333795E+02 -0.12176627099E+01 -0.24735878681E+03  0.24789967571E+03  0.10566000000E+00 0.  1.
        -14    1    4    4    0    0 -0.37476205443E+01  0.16162646219E+00 -0.50213199607E+02  0.50353115074E+02  0.00000000000E+00 0.  1.
<mgrwt>
<rscale>  0 0.78771360E+02</rscale>
<asrwt>0</asrwt>
<pdfrwt beam="1">  1        1 0.46646366E-03 0.78771360E+02</pdfrwt>
<pdfrwt beam="2">  1       -2 0.78710408E-01 0.78771360E+02</pdfrwt>
<totfact> 0.51519545E+04</totfact>
</mgrwt>
</event>
<event>
 8    1  0.1372337E-020  0.8121408E+02  0.7818608E-02  0.1325641E+00
         -2   -1    0    0    0  501 -0.00000000000E+00  0.00000000000E+00  0.24435112063E+02  0.24435112196E+02  0.25500000000E-02 0.  1.
          1   -1    0    0  501    0  0.00000000000E+00 -0.00000000000E+00 -0.67482061329E+02  0.67482061518E+02  0.50400000000E-02 0. -1.
        -24    2    1    2    0    0  0.00000000000E+00 -0.44408920985E-15 -0.43046949267E+02  0.91917173713E+02  0.81214081182E+02 0.  0.
         66    2    3    3    0    0  0.14434879786E+02  0.22642952561E+01  0.21313839141E+02  0.25918574971E+02  0.20000005395E+01 0.  0.
         13    1    3    3    0    0 -0.14434879786E+02 -0.22642952561E+01 -0.64360788408E+02  0.65998598742E+02  0.10566000000E+00 0. -1.
         13    1    4    4    0    0  0.13555221572E+00 -0.23014247488E-01  0.39701960645E+00  0.43323511201E+00  0.10566000000E+00 0.  1.
        -13    1    4    4    0    0  0.10125146621E+02  0.91988481492E+00  0.14602985138E+02  0.17793906854E+02  0.10566000000E+00 0.  1.
         14    1    4    4    0    0  0.41741809490E+01  0.13674246886E+01  0.63138343969E+01  0.76914330047E+01  0.00000000000E+00 0. -1.
<mgrwt>
<rscale>  0 0.81214081E+02</rscale>
<asrwt>0</asrwt>
<pdfrwt beam="1">  1        1 0.10381856E-01 0.81214081E+02</pdfrwt>
<pdfrwt beam="2">  1       -2 0.37592480E-02 0.81214081E+02</pdfrwt>
<totfact> 0.13231975E+05</totfact>
</mgrwt>
</event>
<event>
 8    1  0.1372337E-020  0.7977174E+02  0.7818608E-02  0.1329700E+00
         -2   -1    0    0    0  501 -0.00000000000E+00  0.00000000000E+00  0.14196350727E+04  0.14196350727E+04  0.25500000000E-02 0.  1.
          1   -1    0    0  501    0  0.00000000000E+00 -0.00000000000E+00 -0.11206222148E+01  0.11206335484E+01  0.50400000000E-02 0. -1.
        -24    2    1    2    0    0  0.00000000000E+00  0.00000000000E+00  0.14185144505E+04  0.14207557062E+04  0.79771740664E+02 0.  0.
         66    2    3    3    0    0 -0.22348761965E+01  0.15967571462E+02  0.13589633922E+04  0.13590605061E+04  0.19999983414E+01 0.  0.
         13    1    3    3    0    0  0.22348761965E+01 -0.15967571462E+02  0.59551058270E+02  0.61695200098E+02  0.10566000000E+00 0. -1.
         13    1    4    4    0    0 -0.26341718415E+00  0.46110532152E+00  0.39157445695E+02  0.39161189003E+02  0.10566000000E+00 0.  1.
        -13    1    4    4    0    0 -0.13494818396E+01  0.94368807368E+01  0.74523259271E+03  0.74529356916E+03  0.10566000000E+00 0.  1.
        -14    1    4    4    0    0 -0.62197717274E+00  0.60695854035E+01  0.57457335379E+03  0.57460574797E+03  0.00000000000E+00 0.  1.
<mgrwt>
<rscale>  0 0.79771741E+02</rscale>
<asrwt>0</asrwt>
<pdfrwt beam="1">  1        1 0.17240444E-03 0.79771741E+02</pdfrwt>
<pdfrwt beam="2">  1       -2 0.21840520E+00 0.79771741E+02</pdfrwt>
<totfact> 0.16375392E+04</totfact>
</mgrwt>
</event>
<event>
 8    1  0.1372337E-020  0.8403913E+02  0.7818608E-02  0.1317965E+00
         -2   -1    0    0    0  501 -0.00000000000E+00  0.00000000000E+00  0.10106197375E+02  0.10106197696E+02  0.25500000000E-02 0.  1.
          1   -1    0    0  501    0  0.00000000000E+00 -0.00000000000E+00 -0.17470901855E+03  0.17470901862E+03  0.50400000000E-02 0. -1.
        -24    2    1    2    0    0  0.35527136788E-14  0.35527136788E-14 -0.16460282117E+03  0.18481521632E+03  0.84039130434E+02 0.  0.
         66    2    3    3    0    0 -0.24826408902E+02 -0.23844956499E+02 -0.29444286183E+02  0.45342017193E+02  0.20000012174E+01 0.  0.
         13    1    3    3    0    0  0.24826408902E+02  0.23844956499E+02 -0.13515853499E+03  0.13947319912E+03  0.10566000000E+00 0. -1.
         13    1    4    4    0    0 -0.20644199090E+01 -0.15070365028E+01 -0.22411468057E+01  0.34010133227E+01  0.10566000000E+00 0. -1.
        -13    1    4    4    0    0 -0.16595564660E+00 -0.29769212229E+00 -0.32871614626E+00  0.48515999085E+00  0.10566000000E+00 0.  1.
        -14    1    4    4    0    0 -0.22596033346E+02 -0.22040227874E+02 -0.26874423231E+02  0.41455843879E+02  0.00000000000E+00 0.  1.
<mgrwt>
<rscale>  0 0.84039130E+02</rscale>
<asrwt>0</asrwt>
<pdfrwt beam="1">  1        1 0.26878308E-01 0.84039130E+02</pdfrwt>
<pdfrwt beam="2">  1       -2 0.15547998E-02 0.84039130E+02</pdfrwt>
<totfact> 0.14243459E+05</totfact>
</mgrwt>
</event>
<event>
 8    1  0.1372337E-020  0.7974047E+02  0.7818608E-02  0.1329790E+00
          1   -1    0    0  501    0  0.00000000000E+00  0.00000000000E+00  0.98189236434E+02  0.98189236563E+02  0.50400000000E-02 0. -1.
         -2   -1    0    0    0  501 -0.00000000000E+00 -0.00000000000E+00 -0.16189508931E+02  0.16189509132E+02  0.25500000000E-02 0.  1.
        -24    2    1    2    0    0  0.00000000000E+00  0.35527136788E-14  0.81999727503E+02  0.11437874569E+03  0.79740467494E+02 0.  0.
         66    2    3    3    0    0  0.25942485320E+01  0.28400082372E+02  0.11110358218E+01  0.28609949446E+02  0.20000006252E+01 0.  0.
         13    1    3    3    0    0 -0.25942485320E+01 -0.28400082372E+02  0.80888691681E+02  0.85768796249E+02  0.10566000000E+00 0. -1.
         13    1    4    4    0    0 -0.36509783647E-01  0.34009605137E+00 -0.13330273559E+00  0.38201039695E+00  0.10566000000E+00 0. -1.
        -13    1    4    4    0    0  0.19233032453E+01  0.21141785039E+02  0.13578772546E+01  0.21272732892E+02  0.10566000000E+00 0.  1.
        -14    1    4    4    0    0  0.70745507034E+00  0.69182012813E+01 -0.11353869717E+00  0.69552061566E+01  0.00000000000E+00 0.  1.
<mgrwt>
<rscale>  0 0.79740467E+02</rscale>
<asrwt>0</asrwt>
<pdfrwt beam="1">  1        1 0.15106036E-01 0.79740467E+02</pdfrwt>
<pdfrwt beam="2">  1       -2 0.24906937E-02 0.79740467E+02</pdfrwt>
<totfact> 0.14783406E+05</totfact>
</mgrwt>
</event>
<event>
 8    1  0.1372337E-020  0.7521721E+02  0.7818608E-02  0.1343200E+00
          1   -1    0    0  501    0  0.00000000000E+00  0.00000000000E+00  0.18107828916E+03  0.18107828923E+03  0.50400000000E-02 0. -1.
         -2   -1    0    0    0  501 -0.00000000000E+00 -0.00000000000E+00 -0.78110254935E+01  0.78110259097E+01  0.25500000000E-02 0.  1.
        -24    2    1    2    0    0 -0.35527136788E-14  0.00000000000E+00  0.17326726366E+03  0.18888931514E+03  0.75217210234E+02 0.  0.
         66    2    3    3    0    0 -0.27378535129E+02  0.86244314881E+01  0.25777464924E+02  0.38632145922E+02  0.19999990750E+01 0.  0.
         13    1    3    3    0    0  0.27378535129E+02 -0.86244314881E+01  0.14748979874E+03  0.15025716921E+03  0.10566000000E+00 0. -1.
         13    1    4    4    0    0 -0.43384189873E+01  0.19139317115E+01  0.37936499152E+01  0.60735457206E+01  0.10566000000E+00 0. -1.
        -13    1    4    4    0    0 -0.12995536464E+02  0.33137180214E+01  0.12132380134E+02  0.18085090734E+02  0.10566000000E+00 0.  1.
        -14    1    4    4    0    0 -0.10044579678E+02  0.33967817552E+01  0.98514348750E+01  0.14473509467E+02  0.00000000000E+00 0.  1.
<mgrwt>
<rscale>  0 0.75217210E+02</rscale>
<asrwt>0</asrwt>
<pdfrwt beam="1">  1        1 0.27858195E-01 0.75217210E+02</pdfrwt>
<pdfrwt beam="2">  1       -2 0.12016964E-02 0.75217210E+02</pdfrwt>
<totfact> 0.19261063E+05</totfact>
</mgrwt>
</event>
<event>
 8    1  0.1372337E-020  0.8131345E+02  0.7818608E-02  0.1325365E+00
         -2   -1    0    0    0  501 -0.00000000000E+00  0.00000000000E+00  0.74995780623E+02  0.74995780666E+02  0.25500000000E-02 0.  1.
          1   -1    0    0  501    0  0.00000000000E+00 -0.00000000000E+00 -0.22040828568E+02  0.22040829144E+02  0.50400000000E-02 0. -1.
        -24    2    1    2    0    0  0.35527136788E-14  0.35527136788E-14  0.52954952055E+02  0.97036609810E+02  0.81313447205E+02 0.  0.
         66    2    3    3    0    0 -0.27877158768E+02 -0.20348859252E+02  0.52081377181E+02  0.62511454475E+02  0.20000094416E+01 0.  0.
         13    1    3    3    0    0  0.27877158768E+02  0.20348859252E+02  0.87357487421E+00  0.34525155335E+02  0.10566000000E+00 0. -1.
         13    1    4    4    0    0 -0.15795050143E+01 -0.16222266771E+01  0.29195199308E+01  0.36961082430E+01  0.10566000000E+00 0. -1.
        -13    1    4    4    0    0 -0.21612569216E+02 -0.15495496031E+02  0.40357251219E+02  0.48331484928E+02  0.10566000000E+00 0.  1.
         14    1    4    4    0    0 -0.46850845370E+01 -0.32311365446E+01  0.88046060310E+01  0.10483861304E+02  0.00000000000E+00 0. -1.
<mgrwt>
<rscale>  0 0.81313447E+02</rscale>
<asrwt>0</asrwt>
<pdfrwt beam="1">  1        1 0.33908967E-02 0.81313447E+02</pdfrwt>
<pdfrwt beam="2">  1       -2 0.11537813E-01 0.81313447E+02</pdfrwt>
<totfact> 0.10870227E+05</totfact>
</mgrwt>
</event>
<event>
 8    1  0.1372337E-020  0.8020107E+02  0.7818608E-02  0.1328482E+00
          1   -1    0    0  501    0  0.00000000000E+00  0.00000000000E+00  0.24773991396E+03  0.24773991401E+03  0.50400000000E-02 0. -1.
         -2   -1    0    0    0  501 -0.00000000000E+00 -0.00000000000E+00 -0.64908905938E+01  0.64908910947E+01  0.25500000000E-02 0.  1.
        -24    2    1    2    0    0 -0.17763568394E-14  0.00000000000E+00  0.24124902337E+03  0.25423080511E+03  0.80201066013E+02 0.  0.
         66    2    3    3    0    0 -0.12478795823E+02 -0.37680128030E+02  0.10318271871E+03  0.11057208438E+03  0.20000028454E+01 0.  0.
         13    1    3    3    0    0  0.12478795823E+02  0.37680128030E+02  0.13806630466E+03  0.14365872072E+03  0.10566000000E+00 0. -1.
         13    1    4    4    0    0 -0.28347423146E+01 -0.76258885536E+01  0.22187954891E+02  0.23632740986E+02  0.10566000000E+00 0. -1.
        -13    1    4    4    0    0 -0.54292896689E+01 -0.14741409845E+02  0.39604546884E+02  0.42606544667E+02  0.10566000000E+00 0.  1.
         14    1    4    4    0    0 -0.42147638392E+01 -0.15312829632E+02  0.41390216930E+02  0.44332798728E+02  0.00000000000E+00 0. -1.
<mgrwt>
<rscale>  0 0.80201066E+02</rscale>
<asrwt>0</asrwt>
<pdfrwt beam="1">  1        1 0.38113836E-01 0.80201066E+02</pdfrwt>
<pdfrwt beam="2">  1       -2 0.99859852E-03 0.80201066E+02</pdfrwt>
<totfact> 0.17269464E+05</totfact>
</mgrwt>
</event>
<event>
 8    1  0.1372337E-020  0.7932039E+02  0.7818608E-02  0.1330991E+00
          1   -1    0    0  501    0  0.00000000000E+00  0.00000000000E+00  0.35088483951E+02  0.35088484313E+02  0.50400000000E-02 0. -1.
         -2   -1    0    0    0  501 -0.00000000000E+00 -0.00000000000E+00 -0.44827557962E+02  0.44827558034E+02  0.25500000000E-02 0.  1.
        -24    2    1    2    0    0  0.00000000000E+00  0.00000000000E+00 -0.97390740104E+01  0.79916042348E+02  0.79320389951E+02 0.  0.
         66    2    3    3    0    0  0.28396819433E+02 -0.43186589007E+01 -0.32388811141E+02  0.43336650271E+02  0.20000002453E+01 0.  0.
         13    1    3    3    0    0 -0.28396819433E+02  0.43186589007E+01  0.22649737131E+02  0.36579392077E+02  0.10566000000E+00 0. -1.
         13    1    4    4    0    0  0.84303222191E+01 -0.20688012073E+01 -0.93568871571E+01  0.12763728783E+02  0.10566000000E+00 0. -1.
        -13    1    4    4    0    0  0.46896846164E+01 -0.24766561986E+00 -0.54900565901E+01  0.72253972526E+01  0.10566000000E+00 0. -1.
        -14    1    4    4    0    0  0.15276812597E+02 -0.20021920736E+01 -0.17541867394E+02  0.23347524235E+02  0.00000000000E+00 0.  1.
<mgrwt>
<rscale>  0 0.79320390E+02</rscale>
<asrwt>0</asrwt>
<pdfrwt beam="1">  1        1 0.53982284E-02 0.79320390E+02</pdfrwt>
<pdfrwt beam="2">  1       -2 0.68965474E-02 0.79320390E+02</pdfrwt>
<totfact> 0.12730463E+05</totfact>
</mgrwt>
</event>
<event>
 8    1  0.1372337E-020  0.7959730E+02  0.7818608E-02  0.1330198E+00
         -2   -1    0    0    0  501 -0.00000000000E+00  0.00000000000E+00  0.27273045340E+02  0.27273045459E+02  0.25500000000E-02 0.  1.
          1   -1    0    0  501    0  0.00000000000E+00 -0.00000000000E+00 -0.58076851038E+02  0.58076851256E+02  0.50400000000E-02 0. -1.
        -24    2    1    2    0    0 -0.17763568394E-14 -0.35527136788E-14 -0.30803805698E+02  0.85349896716E+02  0.79597301612E+02 0.  0.
         66    2    3    3    0    0  0.11966904321E+02  0.21106621773E+02  0.18381643303E+02  0.30505427175E+02  0.19999987325E+01 0.  0.
         13    1    3    3    0    0 -0.11966904321E+02 -0.21106621773E+02 -0.49185449001E+02  0.54844469540E+02  0.10566000000E+00 0. -1.
         13    1    4    4    0    0  0.80841554590E+01  0.15942225988E+02  0.13641985225E+02  0.22486063770E+02  0.10566000000E+00 0.  1.
        -13    1    4    4    0    0  0.27010611182E+01  0.33820996080E+01  0.32310166846E+01  0.54023107810E+01  0.10566000000E+00 0. -1.
        -14    1    4    4    0    0  0.11816877432E+01  0.17822961774E+01  0.15086413936E+01  0.26170526248E+01  0.00000000000E+00 0.  1.
<mgrwt>
<rscale>  0 0.79597302E+02</rscale>
<asrwt>0</asrwt>
<pdfrwt beam="1">  1        1 0.89349001E-02 0.79597302E+02</pdfrwt>
<pdfrwt beam="2">  1       -2 0.41958532E-02 0.79597302E+02</pdfrwt>
<totfact> 0.13658510E+05</totfact>
</mgrwt>
</event>
<event>
 8    1  0.1372337E-020  0.8002075E+02  0.7818608E-02  0.1328993E+00
          1   -1    0    0  501    0  0.00000000000E+00  0.00000000000E+00  0.41969279330E+03  0.41969279333E+03  0.50400000000E-02 0. -1.
         -2   -1    0    0    0  501 -0.00000000000E+00 -0.00000000000E+00 -0.38142897610E+01  0.38142906134E+01  0.25500000000E-02 0.  1.
        -24    2    1    2    0    0  0.00000000000E+00  0.00000000000E+00  0.41587850354E+03  0.42350708394E+03  0.80020750088E+02 0.  0.
         66    2    3    3    0    0 -0.36092595795E+02 -0.12455131408E+02  0.27091765290E+03  0.27360223028E+03  0.19999981058E+01 0.  0.
         13    1    3    3    0    0  0.36092595795E+02  0.12455131408E+02  0.14496085064E+03  0.14990485366E+03  0.10566000000E+00 0. -1.
         13    1    4    4    0    0 -0.13087730177E+02 -0.39590455426E+01  0.10247482357E+03  0.10338309026E+03  0.10566000000E+00 0. -1.
        -13    1    4    4    0    0 -0.15935422210E+02 -0.57667356491E+01  0.11733981594E+03  0.11855731310E+03  0.10566000000E+00 0.  1.
         14    1    4    4    0    0 -0.70694434075E+01 -0.27293502160E+01  0.51103013389E+02  0.51661826914E+02  0.00000000000E+00 0. -1.
<mgrwt>
<rscale>  0 0.80020750E+02</rscale>
<asrwt>0</asrwt>
<pdfrwt beam="1">  1        1 0.64568067E-01 0.80020750E+02</pdfrwt>
<pdfrwt beam="2">  1       -2 0.58681437E-03 0.80020750E+02</pdfrwt>
<totfact> 0.19126810E+05</totfact>
</mgrwt>
</event>
<event>
 8    1  0.1372337E-020  0.8027077E+02  0.7818608E-02  0.1328285E+00
         -2   -1    0    0    0  501 -0.00000000000E+00  0.00000000000E+00  0.25352418508E+02  0.25352418637E+02  0.25500000000E-02 0.  1.
          1   -1    0    0  501    0  0.00000000000E+00 -0.00000000000E+00 -0.63538288648E+02  0.63538288848E+02  0.50400000000E-02 0. -1.
        -24    2    1    2    0    0  0.00000000000E+00  0.00000000000E+00 -0.38185870139E+02  0.88890707484E+02  0.80270774250E+02 0.  0.
         66    2    3    3    0    0  0.29406613395E+02 -0.19135899526E+02  0.24227997398E+01  0.35225012712E+02  0.19999999877E+01 0.  0.
         13    1    3    3    0    0 -0.29406613395E+02  0.19135899526E+02 -0.40608669879E+02  0.53665694772E+02  0.10566000000E+00 0. -1.
         13    1    4    4    0    0  0.18745024440E+02 -0.11215208655E+02  0.13103818998E+01  0.21883443769E+02  0.10566000000E+00 0. -1.
        -13    1    4    4    0    0  0.24640795320E+01 -0.21270194434E+01  0.25736967974E+00  0.32670021182E+01  0.10566000000E+00 0.  1.
         14    1    4    4    0    0  0.81975094227E+01 -0.57936714280E+01  0.85504816026E+00  0.10074566825E+02  0.00000000000E+00 0. -1.
<mgrwt>
<rscale>  0 0.80270774E+02</rscale>
<asrwt>0</asrwt>
<pdfrwt beam="1">  1        1 0.97751213E-02 0.80270774E+02</pdfrwt>
<pdfrwt beam="2">  1       -2 0.39003721E-02 0.80270774E+02</pdfrwt>
<totfact> 0.13534236E+05</totfact>
</mgrwt>
</event>
<event>
 8    1  0.1372337E-020  0.7996870E+02  0.7818608E-02  0.1329140E+00
         -2   -1    0    0    0  501 -0.00000000000E+00  0.00000000000E+00  0.34038966199E+03  0.34038966200E+03  0.25500000000E-02 0.  1.
          1   -1    0    0  501    0  0.00000000000E+00 -0.00000000000E+00 -0.46968167432E+01  0.46968194473E+01  0.50400000000E-02 0. -1.
        -24    2    1    2    0    0  0.00000000000E+00  0.00000000000E+00  0.33569284524E+03  0.34508648144E+03  0.79968702174E+02 0.  0.
         66    2    3    3    0    0 -0.17670170262E+02  0.44875322684E+01  0.32139340785E+03  0.32191628644E+03  0.19999997822E+01 0.  0.
         13    1    3    3    0    0  0.17670170262E+02 -0.44875322684E+01  0.14299437392E+02  0.23170195008E+02  0.10566000000E+00 0. -1.
         13    1    4    4    0    0 -0.15541040807E+01 -0.10433948814E-01  0.30711317048E+02  0.30750796855E+02  0.10566000000E+00 0. -1.
        -13    1    4    4    0    0 -0.11078171958E+02  0.29427421343E+01  0.20768679391E+03  0.20800288737E+03  0.10566000000E+00 0.  1.
         14    1    4    4    0    0 -0.50378942235E+01  0.15552240829E+01  0.82995296896E+02  0.83162602214E+02  0.00000000000E+00 0. -1.
<mgrwt>
<rscale>  0 0.79968702E+02</rscale>
<asrwt>0</asrwt>
<pdfrwt beam="1">  1        1 0.72258730E-03 0.79968702E+02</pdfrwt>
<pdfrwt beam="2">  1       -2 0.52367647E-01 0.79968702E+02</pdfrwt>
<totfact> 0.65464339E+04</totfact>
</mgrwt>
</event>
<event>
 8    1  0.1372337E-020  0.8062398E+02  0.7818608E-02  0.1327290E+00
         -2   -1    0    0    0  501 -0.00000000000E+00  0.00000000000E+00  0.31551629999E+03  0.31551630000E+03  0.25500000000E-02 0.  1.
          1   -1    0    0  501    0  0.00000000000E+00 -0.00000000000E+00 -0.51504664385E+01  0.51504689044E+01  0.50400000000E-02 0. -1.
        -24    2    1    2    0    0  0.88817841970E-15  0.71054273576E-14  0.31036583356E+03  0.32066676891E+03  0.80623979335E+02 0.  0.
         66    2    3    3    0    0 -0.46473083549E+01 -0.32846202723E+02  0.24619963492E+03  0.24843254766E+03  0.19999982322E+01 0.  0.
         13    1    3    3    0    0  0.46473083549E+01  0.32846202723E+02  0.64166198632E+02  0.72234221247E+02  0.10566000000E+00 0. -1.
         13    1    4    4    0    0 -0.53748479899E-01 -0.24712156905E+00  0.13016348820E+01  0.13301786988E+01  0.10566000000E+00 0. -1.
        -13    1    4    4    0    0 -0.32150045727E+01 -0.19827183732E+02  0.14941477401E+03  0.15075887809E+03  0.10566000000E+00 0.  1.
         14    1    4    4    0    0 -0.13785553023E+01 -0.12771897422E+02  0.95483226036E+02  0.96343490868E+02  0.00000000000E+00 0. -1.
<mgrwt>
<rscale>  0 0.80623979E+02</rscale>
<asrwt>0</asrwt>
<pdfrwt beam="1">  1        1 0.79237966E-03 0.80623979E+02</pdfrwt>
<pdfrwt beam="2">  1       -2 0.48540969E-01 0.80623979E+02</pdfrwt>
<totfact> 0.66976307E+04</totfact>
</mgrwt>
</event>
<event>
 8    1  0.1372337E-020  0.8014171E+02  0.7818608E-02  0.1328650E+00
         -2   -1    0    0    0  501 -0.00000000000E+00  0.00000000000E+00  0.19174934227E+02  0.19174934397E+02  0.25500000000E-02 0.  1.
          1   -1    0    0  501    0  0.00000000000E+00 -0.00000000000E+00 -0.83738138555E+02  0.83738138706E+02  0.50400000000E-02 0. -1.
        -24    2    1    2    0    0  0.00000000000E+00  0.00000000000E+00 -0.64563204328E+02  0.10291307310E+03  0.80141707384E+02 0.  0.
         66    2    3    3    0    0  0.17943975984E+02 -0.19933822401E+02  0.58855531207E+01  0.27531496178E+02  0.19999991570E+01 0.  0.
         13    1    3    3    0    0 -0.17943975984E+02  0.19933822401E+02 -0.70448757448E+02  0.75381576925E+02  0.10566000000E+00 0. -1.
         13    1    4    4    0    0  0.87652905137E+01 -0.99804091743E+01  0.28639320254E+01  0.13588677484E+02  0.10566000000E+00 0.  1.
        -13    1    4    4    0    0  0.43617488837E+01 -0.37208455985E+01  0.12308880251E+01  0.58647928061E+01  0.10566000000E+00 0. -1.
         14    1    4    4    0    0  0.48169365867E+01 -0.62325676283E+01  0.17907330701E+01  0.80780258882E+01  0.00000000000E+00 0. -1.
<mgrwt>
<rscale>  0 0.80141707E+02</rscale>
<asrwt>0</asrwt>
<pdfrwt beam="1">  1        1 0.12882790E-01 0.80141707E+02</pdfrwt>
<pdfrwt beam="2">  1       -2 0.29499899E-02 0.80141707E+02</pdfrwt>
<totfact> 0.14205898E+05</totfact>
</mgrwt>
</event>
<event>
 8    1  0.1372337E-020  0.7735537E+02  0.7818608E-02  0.1336729E+00
          1   -1    0    0  501    0  0.00000000000E+00  0.00000000000E+00  0.87940659818E+02  0.87940659963E+02  0.50400000000E-02 0. -1.
         -2   -1    0    0    0  501 -0.00000000000E+00 -0.00000000000E+00 -0.17011055457E+02  0.17011055648E+02  0.25500000000E-02 0.  1.
        -24    2    1    2    0    0  0.00000000000E+00  0.00000000000E+00  0.70929604362E+02  0.10495171561E+03  0.77355373664E+02 0.  0.
         66    2    3    3    0    0  0.16100016359E+02 -0.33899661874E+02  0.22938642192E+02  0.44029295961E+02  0.19999988104E+01 0.  0.
         13    1    3    3    0    0 -0.16100016359E+02  0.33899661874E+02  0.47990962169E+02  0.60922419649E+02  0.10566000000E+00 0. -1.
         13    1    4    4    0    0  0.44311420576E+00 -0.84370815270E+00  0.87667312653E+00  0.12991972339E+01  0.10566000000E+00 0. -1.
        -13    1    4    4    0    0  0.72759291037E+01 -0.14554256421E+02  0.10328668691E+02  0.19273247917E+02  0.10566000000E+00 0.  1.
         14    1    4    4    0    0  0.83809730496E+01 -0.18501697301E+02  0.11733300375E+02  0.23456850810E+02  0.00000000000E+00 0. -1.
<mgrwt>
<rscale>  0 0.77355374E+02</rscale>
<asrwt>0</asrwt>
<pdfrwt beam="1">  1        1 0.13529332E-01 0.77355374E+02</pdfrwt>
<pdfrwt beam="2">  1       -2 0.26170855E-02 0.77355374E+02</pdfrwt>
<totfact> 0.15760242E+05</totfact>
</mgrwt>
</event>
<event>
 8    1  0.1372337E-020  0.8088208E+02  0.7818608E-02  0.1326567E+00
         -2   -1    0    0    0  501 -0.00000000000E+00  0.00000000000E+00  0.72655986719E+01  0.72655991194E+01  0.25500000000E-02 0.  1.
          1   -1    0    0  501    0  0.00000000000E+00 -0.00000000000E+00 -0.22509881936E+03  0.22509881941E+03  0.50400000000E-02 0. -1.
        -24    2    1    2    0    0  0.00000000000E+00  0.00000000000E+00 -0.21783322068E+03  0.23236441853E+03  0.80882080624E+02 0.  0.
         66    2    3    3    0    0 -0.71550685147E+01 -0.36090761246E+02 -0.60933341325E+02  0.71208216790E+02  0.20000001816E+01 0.  0.
         13    1    3    3    0    0  0.71550685147E+01  0.36090761246E+02 -0.15689987936E+03  0.16115620174E+03  0.10566000000E+00 0. -1.
         13    1    4    4    0    0 -0.13205510458E+01 -0.77299090535E+01 -0.13549827569E+02  0.15655808514E+02  0.10566000000E+00 0.  1.
        -13    1    4    4    0    0 -0.26593632261E+01 -0.95619752915E+01 -0.16814128004E+02  0.19525103042E+02  0.10566000000E+00 0.  1.
        -14    1    4    4    0    0 -0.31751542428E+01 -0.18798876901E+02 -0.30569385752E+02  0.36027305234E+02  0.00000000000E+00 0.  1.
<mgrwt>
<rscale>  0 0.80882081E+02</rscale>
<asrwt>0</asrwt>
<pdfrwt beam="1">  1        1 0.34630582E-01 0.80882081E+02</pdfrwt>
<pdfrwt beam="2">  1       -2 0.11177846E-02 0.80882081E+02</pdfrwt>
<totfact> 0.16573588E+05</totfact>
</mgrwt>
</event>
<event>
 8    1  0.1372337E-020  0.8168317E+02  0.7818608E-02  0.1324342E+00
         -2   -1    0    0    0  501 -0.00000000000E+00  0.00000000000E+00  0.11709902629E+03  0.11709902632E+03  0.25500000000E-02 0.  1.
          1   -1    0    0  501    0  0.00000000000E+00 -0.00000000000E+00 -0.14244652774E+02  0.14244653666E+02  0.50400000000E-02 0. -1.
        -24    2    1    2    0    0  0.00000000000E+00  0.00000000000E+00  0.10285437352E+03  0.13134367998E+03  0.81683169137E+02 0.  0.
         66    2    3    3    0    0 -0.13559293488E+02 -0.36866145018E+02  0.33620173571E+02  0.51742469600E+02  0.20000002479E+01 0.  0.
         13    1    3    3    0    0  0.13559293488E+02  0.36866145018E+02  0.69234199945E+02  0.79601210384E+02  0.10566000000E+00 0. -1.
         13    1    4    4    0    0 -0.26107625880E+01 -0.55514976410E+01  0.49166346429E+01  0.78625484162E+01  0.10566000000E+00 0. -1.
        -13    1    4    4    0    0 -0.60560561128E+01 -0.16891542663E+02  0.14874373787E+02  0.23307899707E+02  0.10566000000E+00 0.  1.
         14    1    4    4    0    0 -0.48924747873E+01 -0.14423104714E+02  0.13829165141E+02  0.20572021477E+02  0.00000000000E+00 0. -1.
<mgrwt>
<rscale>  0 0.81683169E+02</rscale>
<asrwt>0</asrwt>
<pdfrwt beam="1">  1        1 0.21914850E-02 0.81683169E+02</pdfrwt>
<pdfrwt beam="2">  1       -2 0.18015236E-01 0.81683169E+02</pdfrwt>
<totfact> 0.96535001E+04</totfact>
</mgrwt>
</event>
<event>
 8    1  0.1372337E-020  0.7743554E+02  0.7818608E-02  0.1336491E+00
         -2   -1    0    0    0  501 -0.00000000000E+00  0.00000000000E+00  0.13036034448E+02  0.13036034697E+02  0.25500000000E-02 0.  1.
          1   -1    0    0  501    0  0.00000000000E+00 -0.00000000000E+00 -0.11499398880E+03  0.11499398891E+03  0.50400000000E-02 0. -1.
        -24    2    1    2    0    0  0.00000000000E+00  0.00000000000E+00 -0.10195795436E+03  0.12803002361E+03  0.77435537638E+02 0.  0.
         66    2    3    3    0    0  0.16035137932E+02 -0.17897865699E+02 -0.87438971496E+00  0.24129314038E+02  0.19999983763E+01 0.  0.
         13    1    3    3    0    0 -0.16035137932E+02  0.17897865699E+02 -0.10108356464E+03  0.10390070957E+03  0.10566000000E+00 0. -1.
         13    1    4    4    0    0  0.31655920719E+01 -0.37124647066E+01  0.36819312947E+00  0.48938836909E+01  0.10566000000E+00 0. -1.
        -13    1    4    4    0    0  0.15893058112E+01 -0.17622970270E+01  0.25179361782E+00  0.23887544526E+01  0.10566000000E+00 0.  1.
        -14    1    4    4    0    0  0.11280240049E+02 -0.12423103966E+02 -0.14943764623E+01  0.16846675895E+02  0.00000000000E+00 0.  1.
<mgrwt>
<rscale>  0 0.77435538E+02</rscale>
<asrwt>0</asrwt>
<pdfrwt beam="1">  1        1 0.17691382E-01 0.77435538E+02</pdfrwt>
<pdfrwt beam="2">  1       -2 0.20055439E-02 0.77435538E+02</pdfrwt>
<totfact> 0.16430726E+05</totfact>
</mgrwt>
</event>
<event>
 8    1  0.1372337E-020  0.7799586E+02  0.7818608E-02  0.1334837E+00
          1   -1    0    0  501    0  0.00000000000E+00  0.00000000000E+00  0.88752545429E+01  0.88752559739E+01  0.50400000000E-02 0. -1.
         -2   -1    0    0    0  501 -0.00000000000E+00 -0.00000000000E+00 -0.17135713888E+03  0.17135713890E+03  0.25500000000E-02 0.  1.
        -24    2    1    2    0    0 -0.71054273576E-14  0.00000000000E+00 -0.16248188434E+03  0.18023239488E+03  0.77995855172E+02 0.  0.
         66    2    3    3    0    0  0.37889038243E+02 -0.87827869498E+01 -0.87009338739E+02  0.95327548907E+02  0.19999967828E+01 0.  0.
         13    1    3    3    0    0 -0.37889038243E+02  0.87827869498E+01 -0.75472545603E+02  0.84904845971E+02  0.10566000000E+00 0. -1.
         13    1    4    4    0    0  0.36648027707E+01 -0.34227974647E+00 -0.85081388968E+01  0.92707888713E+01  0.10566000000E+00 0. -1.
        -13    1    4    4    0    0  0.11336007636E+02 -0.31975037638E+01 -0.26528346337E+02  0.29025737249E+02  0.10566000000E+00 0.  1.
         14    1    4    4    0    0  0.22888227836E+02 -0.52430034395E+01 -0.51972853506E+02  0.57031022786E+02  0.00000000000E+00 0. -1.
<mgrwt>
<rscale>  0 0.77995855E+02</rscale>
<asrwt>0</asrwt>
<pdfrwt beam="1">  1        1 0.13654240E-02 0.77995855E+02</pdfrwt>
<pdfrwt beam="2">  1       -2 0.26362634E-01 0.77995855E+02</pdfrwt>
<totfact> 0.96365262E+04</totfact>
</mgrwt>
</event>
<event>
 8    1  0.1372337E-020  0.8189801E+02  0.7818608E-02  0.1323750E+00
         -2   -1    0    0    0  501 -0.00000000000E+00  0.00000000000E+00  0.37811233609E+02  0.37811233695E+02  0.25500000000E-02 0.  1.
          1   -1    0    0  501    0  0.00000000000E+00 -0.00000000000E+00 -0.44347168096E+02  0.44347168383E+02  0.50400000000E-02 0. -1.
        -24    2    1    2    0    0  0.35527136788E-14  0.71054273576E-14 -0.65359344870E+01  0.82158402078E+02  0.81898013360E+02 0.  0.
         66    2    3    3    0    0 -0.16327318863E+02 -0.36956649632E+02  0.32654676591E+01  0.40583722989E+02  0.19999998352E+01 0.  0.
         13    1    3    3    0    0  0.16327318863E+02  0.36956649632E+02 -0.98014021461E+01  0.41574679089E+02  0.10566000000E+00 0. -1.
         13    1    4    4    0    0 -0.20877541710E+01 -0.63964081934E+01  0.47662006150E+00  0.67461904786E+01  0.10566000000E+00 0. -1.
        -13    1    4    4    0    0 -0.42929803999E+01 -0.92462143421E+01  0.11593153605E+01  0.10260474478E+02  0.10566000000E+00 0.  1.
         14    1    4    4    0    0 -0.99465842917E+01 -0.21314027097E+02  0.16295322371E+01  0.23577058032E+02  0.00000000000E+00 0. -1.
<mgrwt>
<rscale>  0 0.81898013E+02</rscale>
<asrwt>0</asrwt>
<pdfrwt beam="1">  1        1 0.68226413E-02 0.81898013E+02</pdfrwt>
<pdfrwt beam="2">  1       -2 0.58171129E-02 0.81898013E+02</pdfrwt>
<totfact> 0.12087780E+05</totfact>
</mgrwt>
</event>
<event>
 8    1  0.1372337E-020  0.7942308E+02  0.7818608E-02  0.1330697E+00
         -2   -1    0    0    0  501 -0.00000000000E+00  0.00000000000E+00  0.12940769511E+03  0.12940769514E+03  0.25500000000E-02 0.  1.
          1   -1    0    0  501    0  0.00000000000E+00 -0.00000000000E+00 -0.12186342508E+02  0.12186343550E+02  0.50400000000E-02 0. -1.
        -24    2    1    2    0    0  0.71054273576E-14  0.17763568394E-14  0.11722135261E+03  0.14159403869E+03  0.79423084086E+02 0.  0.
         66    2    3    3    0    0 -0.37113474697E+02 -0.12560409985E+02  0.69898734596E+02  0.80156141245E+02  0.19999945278E+01 0.  0.
         13    1    3    3    0    0  0.37113474697E+02  0.12560409985E+02  0.47322618011E+02  0.61437897446E+02  0.10566000000E+00 0. -1.
         13    1    4    4    0    0 -0.69407142024E+01 -0.16915999957E+01  0.12245413914E+02  0.14177318158E+02  0.10566000000E+00 0. -1.
        -13    1    4    4    0    0 -0.25498161854E+02 -0.95104141515E+01  0.48774816179E+02  0.55853362411E+02  0.10566000000E+00 0.  1.
        -14    1    4    4    0    0 -0.46745986403E+01 -0.13583958379E+01  0.88785045026E+01  0.10125460676E+02  0.00000000000E+00 0.  1.
<mgrwt>
<rscale>  0 0.79423084E+02</rscale>
<asrwt>0</asrwt>
<pdfrwt beam="1">  1        1 0.18748219E-02 0.79423084E+02</pdfrwt>
<pdfrwt beam="2">  1       -2 0.19908877E-01 0.79423084E+02</pdfrwt>
<totfact> 0.10082465E+05</totfact>
</mgrwt>
</event>
<event>
 8    1  0.1372337E-020  0.7913935E+02  0.7818608E-02  0.1331512E+00
         -2   -1    0    0    0  501 -0.00000000000E+00  0.00000000000E+00  0.25886599140E+03  0.25886599141E+03  0.25500000000E-02 0.  1.
          1   -1    0    0  501    0  0.00000000000E+00 -0.00000000000E+00 -0.60485310443E+01  0.60485331441E+01  0.50400000000E-02 0. -1.
        -24    2    1    2    0    0  0.00000000000E+00  0.00000000000E+00  0.25281746035E+03  0.26491452455E+03  0.79139352160E+02 0.  0.
         66    2    3    3    0    0  0.70886433068E+01  0.38680080629E+02  0.11254328185E+03  0.11923249471E+03  0.20000008102E+01 0.  0.
         13    1    3    3    0    0 -0.70886433068E+01 -0.38680080629E+02  0.14027417850E+03  0.14568202985E+03  0.10566000000E+00 0. -1.
         13    1    4    4    0    0  0.11353879552E+01  0.54598705484E+01  0.17405446779E+02  0.18277309261E+02  0.10566000000E+00 0. -1.
        -13    1    4    4    0    0  0.30619965787E+01  0.16770160603E+02  0.49994344486E+02  0.52821016218E+02  0.10566000000E+00 0.  1.
         14    1    4    4    0    0  0.28912587729E+01  0.16450049478E+02  0.45143490586E+02  0.48134169229E+02  0.00000000000E+00 0. -1.
<mgrwt>
<rscale>  0 0.79139352E+02</rscale>
<asrwt>0</asrwt>
<pdfrwt beam="1">  1        1 0.93054355E-03 0.79139352E+02</pdfrwt>
<pdfrwt beam="2">  1       -2 0.39825531E-01 0.79139352E+02</pdfrwt>
<totfact> 0.77975457E+04</totfact>
</mgrwt>
</event>
<event>
 8    1  0.1372337E-020  0.7819981E+02  0.7818608E-02  0.1334239E+00
          1   -1    0    0  501    0  0.00000000000E+00  0.00000000000E+00  0.27981890028E+01  0.27981935417E+01  0.50400000000E-02 0. -1.
         -2   -1    0    0    0  501 -0.00000000000E+00 -0.00000000000E+00 -0.54635391259E+03  0.54635391260E+03  0.25500000000E-02 0.  1.
        -24    2    1    2    0    0  0.35527136788E-14  0.00000000000E+00 -0.54355572359E+03  0.54915210614E+03  0.78199814776E+02 0.  0.
         66    2    3    3    0    0  0.13485009123E+02 -0.17965612282E+02 -0.49647385707E+03  0.49698581420E+03  0.20000167651E+01 0.  0.
         13    1    3    3    0    0 -0.13485009123E+02  0.17965612282E+02 -0.47081866521E+02  0.52166291941E+02  0.10566000000E+00 0. -1.
         13    1    4    4    0    0  0.22769870252E+01 -0.28770927558E+01 -0.93987090926E+02  0.94058740994E+02  0.10566000000E+00 0. -1.
        -13    1    4    4    0    0  0.17539905972E+00 -0.12304016892E+00 -0.52757251351E+01  0.52811308874E+01  0.10566000000E+00 0. -1.
        -14    1    4    4    0    0  0.11032623038E+02 -0.14965479357E+02 -0.39721104101E+03  0.39764594232E+03  0.00000000000E+00 0.  1.
<mgrwt>
<rscale>  0 0.78199815E+02</rscale>
<asrwt>0</asrwt>
<pdfrwt beam="1">  1        1 0.43049140E-03 0.78199815E+02</pdfrwt>
<pdfrwt beam="2">  1       -2 0.84054363E-01 0.78199815E+02</pdfrwt>
<totfact> 0.49829046E+04</totfact>
</mgrwt>
</event>
<event>
 8    1  0.1372337E-020  0.7843106E+02  0.7818608E-02  0.1333564E+00
         -2   -1    0    0    0  501 -0.00000000000E+00  0.00000000000E+00  0.32985545958E+02  0.32985546056E+02  0.25500000000E-02 0.  1.
          1   -1    0    0  501    0  0.00000000000E+00 -0.00000000000E+00 -0.46622168220E+02  0.46622168492E+02  0.50400000000E-02 0. -1.
        -24    2    1    2    0    0  0.22204460493E-15 -0.17763568394E-14 -0.13636622263E+02  0.79607714549E+02  0.78431057298E+02 0.  0.
         66    2    3    3    0    0 -0.13922030304E+01  0.12952567713E+02  0.30693184670E+02  0.33403275516E+02  0.19999975881E+01 0.  0.
         13    1    3    3    0    0  0.13922030304E+01 -0.12952567713E+02 -0.44329806933E+02  0.46204439033E+02  0.10566000000E+00 0. -1.
         13    1    4    4    0    0  0.21139255417E-01  0.38001113894E-01  0.25548392280E+00  0.27986965392E+00  0.10566000000E+00 0. -1.
        -13    1    4    4    0    0 -0.13567580567E+01  0.81673416277E+01  0.20536068370E+02  0.22142437306E+02  0.10566000000E+00 0.  1.
        -14    1    4    4    0    0 -0.56584229177E-01  0.47472249711E+01  0.99016323768E+01  0.10980968556E+02  0.00000000000E+00 0.  1.
<mgrwt>
<rscale>  0 0.78431057E+02</rscale>
<asrwt>0</asrwt>
<pdfrwt beam="1">  1        1 0.71726414E-02 0.78431057E+02</pdfrwt>
<pdfrwt beam="2">  1       -2 0.50746994E-02 0.78431057E+02</pdfrwt>
<totfact> 0.13751332E+05</totfact>
</mgrwt>
</event>
<event>
 8    1  0.1372337E-020  0.8034247E+02  0.7818608E-02  0.1328082E+00
          1   -1    0    0  501    0  0.00000000000E+00  0.00000000000E+00  0.19591133158E+01  0.19591197988E+01  0.50400000000E-02 0. -1.
         -2   -1    0    0    0  501 -0.00000000000E+00 -0.00000000000E+00 -0.82370187143E+03  0.82370187144E+03  0.25500000000E-02 0.  1.
        -24    2    1    2    0    0  0.17763568394E-14  0.35527136788E-14 -0.82174275812E+03  0.82566099124E+03  0.80342466544E+02 0.  0.
         66    2    3    3    0    0  0.93934719722E+01  0.27332674755E+02 -0.69747867030E+03  0.69808008706E+03  0.20000006907E+01 0.  0.
         13    1    3    3    0    0 -0.93934719722E+01 -0.27332674755E+02 -0.12426408781E+03  0.12758090417E+03  0.10566000000E+00 0. -1.
         13    1    4    4    0    0  0.42473715240E+01  0.10268680157E+02 -0.25431231371E+03  0.25455500393E+03  0.10566000000E+00 0. -1.
        -13    1    4    4    0    0  0.44855580116E+01  0.14119334603E+02 -0.36573760193E+03  0.36603753970E+03  0.10566000000E+00 0.  1.
        -14    1    4    4    0    0  0.66054243655E+00  0.29446599944E+01 -0.77428754659E+02  0.77487543430E+02  0.00000000000E+00 0.  1.
<mgrwt>
<rscale>  0 0.80342467E+02</rscale>
<asrwt>0</asrwt>
<pdfrwt beam="1">  1        1 0.30140321E-03 0.80342467E+02</pdfrwt>
<pdfrwt beam="2">  1       -2 0.12672309E+00 0.80342467E+02</pdfrwt>
<totfact> 0.31893866E+04</totfact>
</mgrwt>
</event>
<event>
 8    1  0.1372337E-020  0.8033321E+02  0.7818608E-02  0.1328108E+00
         -2   -1    0    0    0  501 -0.00000000000E+00  0.00000000000E+00  0.19685117512E+02  0.19685117677E+02  0.25500000000E-02 0.  1.
          1   -1    0    0  501    0  0.00000000000E+00 -0.00000000000E+00 -0.81958165874E+02  0.81958166029E+02  0.50400000000E-02 0. -1.
        -24    2    1    2    0    0 -0.17763568394E-14  0.00000000000E+00 -0.62273048362E+02  0.10164328371E+03  0.80333209634E+02 0.  0.
         66    2    3    3    0    0  0.10716153141E+02 -0.38684264549E+02 -0.31417887193E+02  0.51013644198E+02  0.19999992032E+01 0.  0.
         13    1    3    3    0    0 -0.10716153141E+02  0.38684264549E+02 -0.30855161169E+02  0.50629639507E+02  0.10566000000E+00 0. -1.
         13    1    4    4    0    0  0.51462021298E+00 -0.25641623138E+01 -0.20777564861E+01  0.33418555304E+01  0.10566000000E+00 0.  1.
        -13    1    4    4    0    0  0.43174447061E+01 -0.17020839492E+02 -0.14642858104E+02  0.22864246396E+02  0.10566000000E+00 0.  1.
        -14    1    4    4    0    0  0.58840882217E+01 -0.19099262744E+02 -0.14697272604E+02  0.24807542272E+02  0.00000000000E+00 0.  1.
<mgrwt>
<rscale>  0 0.80333210E+02</rscale>
<asrwt>0</asrwt>
<pdfrwt beam="1">  1        1 0.12608948E-01 0.80333210E+02</pdfrwt>
<pdfrwt beam="2">  1       -2 0.30284797E-02 0.80333210E+02</pdfrwt>
<totfact> 0.14064779E+05</totfact>
</mgrwt>
</event>
<event>
 8    1  0.1372337E-020  0.7773620E+02  0.7818608E-02  0.1335601E+00
          1   -1    0    0  501    0  0.00000000000E+00  0.00000000000E+00  0.38856483206E+02  0.38856483533E+02  0.50400000000E-02 0. -1.
         -2   -1    0    0    0  501 -0.00000000000E+00 -0.00000000000E+00 -0.38879724285E+02  0.38879724369E+02  0.25500000000E-02 0.  1.
        -24    2    1    2    0    0  0.00000000000E+00 -0.22204460493E-15 -0.23241078905E-01  0.77736207902E+02  0.77736204428E+02 0.  0.
         66    2    3    3    0    0 -0.18869169458E+02 -0.97201737618E+00 -0.33948837393E+02  0.38903906616E+02  0.20000039583E+01 0.  0.
         13    1    3    3    0    0  0.18869169458E+02  0.97201737618E+00  0.33925596315E+02  0.38832301286E+02  0.10566000000E+00 0. -1.
         13    1    4    4    0    0 -0.10968495145E+02 -0.13561240364E+01 -0.19777984877E+02  0.22656716619E+02  0.10566000000E+00 0. -1.
        -13    1    4    4    0    0 -0.25780802026E+01 -0.11355011157E+00 -0.41061418750E+01  0.48508717044E+01  0.10566000000E+00 0.  1.
         14    1    4    4    0    0 -0.53225941100E+01  0.49765677182E+00 -0.10064710642E+02  0.11396318292E+02  0.00000000000E+00 0. -1.
<mgrwt>
<rscale>  0 0.77736204E+02</rscale>
<asrwt>0</asrwt>
<pdfrwt beam="1">  1        1 0.59779205E-02 0.77736204E+02</pdfrwt>
<pdfrwt beam="2">  1       -2 0.59814961E-02 0.77736204E+02</pdfrwt>
<totfact> 0.13701191E+05</totfact>
</mgrwt>
</event>
<event>
 8    1  0.1372337E-020  0.7958687E+02  0.7818608E-02  0.1330228E+00
         -2   -1    0    0    0  501 -0.00000000000E+00  0.00000000000E+00  0.31211759029E+02  0.31211759133E+02  0.25500000000E-02 0.  1.
          1   -1    0    0  501    0  0.00000000000E+00 -0.00000000000E+00 -0.50734645375E+02  0.50734645625E+02  0.50400000000E-02 0. -1.
        -24    2    1    2    0    0  0.00000000000E+00  0.00000000000E+00 -0.19522886346E+02  0.81946404758E+02  0.79586871791E+02 0.  0.
         66    2    3    3    0    0  0.32611536885E+02 -0.18996825477E+02  0.31388180736E+01  0.37924186193E+02  0.20000008162E+01 0.  0.
         13    1    3    3    0    0 -0.32611536885E+02  0.18996825477E+02 -0.22661704419E+02  0.44022218566E+02  0.10566000000E+00 0. -1.
         13    1    4    4    0    0  0.16214329540E+02 -0.94902229621E+01  0.58311826332E+00  0.18796808379E+02  0.10566000000E+00 0. -1.
        -13    1    4    4    0    0  0.62065663580E+01 -0.34798608776E+01  0.92005261601E+00  0.71755528383E+01  0.10566000000E+00 0.  1.
         14    1    4    4    0    0  0.10190640987E+02 -0.60267416376E+01  0.16356471943E+01  0.11951824975E+02  0.00000000000E+00 0. -1.
<mgrwt>
<rscale>  0 0.79586872E+02</rscale>
<asrwt>0</asrwt>
<pdfrwt beam="1">  1        1 0.78053301E-02 0.79586872E+02</pdfrwt>
<pdfrwt beam="2">  1       -2 0.48018091E-02 0.79586872E+02</pdfrwt>
<totfact> 0.13378376E+05</totfact>
</mgrwt>
</event>
<event>
 8    1  0.1372337E-020  0.7892036E+02  0.7818608E-02  0.1332144E+00
         -2   -1    0    0    0  501 -0.00000000000E+00  0.00000000000E+00  0.14035404894E+03  0.14035404897E+03  0.25500000000E-02 0.  1.
          1   -1    0    0  501    0  0.00000000000E+00 -0.00000000000E+00 -0.11094126773E+02  0.11094127918E+02  0.50400000000E-02 0. -1.
        -24    2    1    2    0    0  0.00000000000E+00 -0.17763568394E-14  0.12925992217E+03  0.15144817688E+03  0.78920357336E+02 0.  0.
         66    2    3    3    0    0 -0.34322788142E+02  0.10469526087E+02  0.96053663772E+02  0.10255716009E+03  0.19999998138E+01 0.  0.
         13    1    3    3    0    0  0.34322788142E+02 -0.10469526087E+02  0.33206258397E+02  0.48891016794E+02  0.10566000000E+00 0. -1.
         13    1    4    4    0    0 -0.11730182515E+02  0.38209100038E+01  0.35340131675E+02  0.37431705892E+02  0.10566000000E+00 0.  1.
        -13    1    4    4    0    0 -0.55771351370E+01  0.19009561325E+01  0.14675882267E+02  0.15814890290E+02  0.10566000000E+00 0. -1.
        -14    1    4    4    0    0 -0.17015470490E+02  0.47476599510E+01  0.46037649830E+02  0.49310563908E+02  0.00000000000E+00 0.  1.
<mgrwt>
<rscale>  0 0.78920357E+02</rscale>
<asrwt>0</asrwt>
<pdfrwt beam="1">  1        1 0.17067889E-02 0.78920357E+02</pdfrwt>
<pdfrwt beam="2">  1       -2 0.21592930E-01 0.78920357E+02</pdfrwt>
<totfact> 0.99980449E+04</totfact>
</mgrwt>
</event>
<event>
 8    1  0.1372337E-020  0.8066705E+02  0.7818608E-02  0.1327169E+00
          1   -1    0    0  501    0  0.00000000000E+00  0.00000000000E+00  0.76685685787E+01  0.76685702350E+01  0.50400000000E-02 0. -1.
         -2   -1    0    0    0  501 -0.00000000000E+00 -0.00000000000E+00 -0.21213779035E+03  0.21213779036E+03  0.25500000000E-02 0.  1.
        -24    2    1    2    0    0  0.35527136788E-14 -0.17763568394E-14 -0.20446922177E+03  0.21980636060E+03  0.80667053426E+02 0.  0.
         66    2    3    3    0    0 -0.31594450404E+02  0.13602218768E+02 -0.15955556129E+03  0.16323359583E+03  0.20000042621E+01 0.  0.
         13    1    3    3    0    0  0.31594450404E+02 -0.13602218768E+02 -0.44913660473E+02  0.56572764762E+02  0.10566000000E+00 0. -1.
         13    1    4    4    0    0 -0.89592396082E+01  0.40759825196E+01 -0.47486004915E+02  0.48495499118E+02  0.10566000000E+00 0.  1.
        -13    1    4    4    0    0 -0.83597981007E+01  0.37976843102E+01 -0.44989009076E+02  0.45916562721E+02  0.10566000000E+00 0. -1.
         14    1    4    4    0    0 -0.14275412695E+02  0.57285519385E+01 -0.67080547304E+02  0.68821533995E+02  0.00000000000E+00 0. -1.
<mgrwt>
<rscale>  0 0.80667053E+02</rscale>
<asrwt>0</asrwt>
<pdfrwt beam="1">  1        1 0.11797801E-02 0.80667053E+02</pdfrwt>
<pdfrwt beam="2">  1       -2 0.32636579E-01 0.80667053E+02</pdfrwt>
<totfact> 0.81263349E+04</totfact>
</mgrwt>
</event>
<event>
 8    1  0.1372337E-020  0.8402163E+02  0.7818608E-02  0.1318011E+00
          1   -1    0    0  501    0  0.00000000000E+00  0.00000000000E+00  0.46941751458E+03  0.46941751460E+03  0.50400000000E-02 0. -1.
         -2   -1    0    0    0  501 -0.00000000000E+00 -0.00000000000E+00 -0.37597834923E+01  0.37597843570E+01  0.25500000000E-02 0.  1.
        -24    2    1    2    0    0  0.00000000000E+00  0.00000000000E+00  0.46565773109E+03  0.47317729896E+03  0.84021626580E+02 0.  0.
         66    2    3    3    0    0 -0.22748321288E+02  0.35241580549E+02  0.22250274934E+03  0.22643084725E+03  0.20000002992E+01 0.  0.
         13    1    3    3    0    0  0.22748321288E+02 -0.35241580549E+02  0.24315498175E+03  0.24674645171E+03  0.10566000000E+00 0. -1.
         13    1    4    4    0    0 -0.27545558428E+01  0.35880040952E+01  0.26465647546E+02  0.26849637155E+02  0.10566000000E+00 0. -1.
        -13    1    4    4    0    0 -0.17244691784E+02  0.27496977489E+02  0.17093178957E+03  0.17398606558E+03  0.10566000000E+00 0.  1.
        -14    1    4    4    0    0 -0.27490736619E+01  0.41565989644E+01  0.25105312223E+02  0.25595144515E+02  0.00000000000E+00 0.  1.
<mgrwt>
<rscale>  0 0.84021627E+02</rscale>
<asrwt>0</asrwt>
<pdfrwt beam="1">  1        1 0.72218095E-01 0.84021627E+02</pdfrwt>
<pdfrwt beam="2">  1       -2 0.57842817E-03 0.84021627E+02</pdfrwt>
<totfact> 0.17100387E+05</totfact>
</mgrwt>
</event>
<event>
 8    1  0.1372337E-020  0.7836339E+02  0.7818608E-02  0.1333761E+00
         -2   -1    0    0    0  501 -0.00000000000E+00  0.00000000000E+00  0.13114009669E+03  0.13114009671E+03  0.25500000000E-02 0.  1.
          1   -1    0    0  501    0  0.00000000000E+00 -0.00000000000E+00 -0.11706604073E+02  0.11706605158E+02  0.50400000000E-02 0. -1.
        -24    2    1    2    0    0 -0.88817841970E-15  0.35527136788E-14  0.11943349262E+03  0.14284670187E+03  0.78363391182E+02 0.  0.
         66    2    3    3    0    0 -0.57664283210E+01  0.23537519185E+02  0.11581996119E+03  0.11834496156E+03  0.20000028472E+01 0.  0.
         13    1    3    3    0    0  0.57664283210E+01 -0.23537519185E+02  0.36135314250E+01  0.24501740313E+02  0.10566000000E+00 0. -1.
         13    1    4    4    0    0 -0.68341569436E+00  0.15583492720E+01  0.74820090647E+01  0.76737952243E+01  0.10566000000E+00 0. -1.
        -13    1    4    4    0    0 -0.51333610862E+01  0.21935469147E+02  0.10778319180E+03  0.11011241438E+03  0.10566000000E+00 0.  1.
         14    1    4    4    0    0  0.50348459508E-01  0.43700765795E-01  0.55476032963E+00  0.55875195537E+00  0.00000000000E+00 0. -1.
<mgrwt>
<rscale>  0 0.78363391E+02</rscale>
<asrwt>0</asrwt>
<pdfrwt beam="1">  1        1 0.18010161E-02 0.78363391E+02</pdfrwt>
<pdfrwt beam="2">  1       -2 0.20175400E-01 0.78363391E+02</pdfrwt>
<totfact> 0.10395105E+05</totfact>
</mgrwt>
</event>
<event>
 8    1  0.1691066E-020  0.8007912E+02  0.7818608E-02  0.1328827E+00
         -2   -1    0    0    0  501 -0.00000000000E+00  0.00000000000E+00  0.60148164913E+01  0.60148170318E+01  0.25500000000E-02 0.  1.
          1   -1    0    0  501    0  0.00000000000E+00 -0.00000000000E+00 -0.26653619276E+03  0.26653619281E+03  0.50400000000E-02 0. -1.
        -24    2    1    2    0    0  0.00000000000E+00 -0.71054273576E-14 -0.26052137627E+03  0.27255100984E+03  0.80079120072E+02 0.  0.
         66    2    3    3    0    0  0.74349230314E+01  0.35520494934E+02 -0.72966600755E+02  0.81517534703E+02  0.19999993538E+01 0.  0.
         13    1    3    3    0    0 -0.74349230314E+01 -0.35520494934E+02 -0.18755477551E+03  0.19103347514E+03  0.10566000000E+00 0. -1.
         13    1    4    4    0    0  0.27284469981E+01  0.12251872761E+02 -0.26715711057E+02  0.29517675899E+02  0.10566000000E+00 0. -1.
        -13    1    4    4    0    0  0.31440103660E+01  0.16068650333E+02 -0.32985696202E+02  0.36825991401E+02  0.10566000000E+00 0.  1.
         14    1    4    4    0    0  0.15624656673E+01  0.71999718398E+01 -0.13265193496E+02  0.15173867403E+02  0.00000000000E+00 0. -1.
<mgrwt>
<rscale>  0 0.80079120E+02</rscale>
<asrwt>0</asrwt>
<pdfrwt beam="1">  1        1 0.41005559E-01 0.80079120E+02</pdfrwt>
<pdfrwt beam="2">  1       -2 0.92535663E-03 0.80079120E+02</pdfrwt>
<totfact> 0.17588359E+05</totfact>
</mgrwt>
</event>
<event>
 8    1  0.1372337E-020  0.7880854E+02  0.7818608E-02  0.1332467E+00
         -2   -1    0    0    0  501 -0.00000000000E+00  0.00000000000E+00  0.33154290914E+02  0.33154291012E+02  0.25500000000E-02 0.  1.
          1   -1    0    0  501    0  0.00000000000E+00 -0.00000000000E+00 -0.46832449009E+02  0.46832449281E+02  0.50400000000E-02 0. -1.
        -24    2    1    2    0    0  0.00000000000E+00  0.35527136788E-14 -0.13678158096E+02  0.79986740292E+02  0.78808544040E+02 0.  0.
         66    2    3    3    0    0  0.21931763120E+02 -0.31952719065E+02  0.24035863829E+00  0.38807682978E+02  0.19999991521E+01 0.  0.
         13    1    3    3    0    0 -0.21931763120E+02  0.31952719065E+02 -0.13918516734E+02  0.41179057315E+02  0.10566000000E+00 0. -1.
         13    1    4    4    0    0  0.68915249444E+00 -0.14733815995E+01 -0.18585742958E+00  0.16405765810E+01  0.10566000000E+00 0. -1.
        -13    1    4    4    0    0  0.14874072396E+02 -0.20545195670E+02  0.28460571539E+00  0.25366025688E+02  0.10566000000E+00 0.  1.
         14    1    4    4    0    0  0.63685382294E+01 -0.99341417961E+01  0.14161035248E+00  0.11801080709E+02  0.00000000000E+00 0. -1.
<mgrwt>
<rscale>  0 0.78808544E+02</rscale>
<asrwt>0</asrwt>
<pdfrwt beam="1">  1        1 0.72049922E-02 0.78808544E+02</pdfrwt>
<pdfrwt beam="2">  1       -2 0.51006602E-02 0.78808544E+02</pdfrwt>
<totfact> 0.13578294E+05</totfact>
</mgrwt>
</event>
<event>
 8    1  0.1372337E-020  0.7965117E+02  0.7818608E-02  0.1330044E+00
          1   -1    0    0  501    0  0.00000000000E+00  0.00000000000E+00  0.14556387386E+03  0.14556387395E+03  0.50400000000E-02 0. -1.
         -2   -1    0    0    0  501 -0.00000000000E+00 -0.00000000000E+00 -0.10896091255E+02  0.10896091553E+02  0.25500000000E-02 0.  1.
        -24    2    1    2    0    0  0.00000000000E+00  0.35527136788E-14  0.13466778261E+03  0.15645996550E+03  0.79651171571E+02 0.  0.
         66    2    3    3    0    0  0.24476285271E+02  0.24121842096E+02  0.27936987866E+02  0.44333137683E+02  0.19999997480E+01 0.  0.
         13    1    3    3    0    0 -0.24476285271E+02 -0.24121842096E+02  0.10673079474E+03  0.11212682782E+03  0.10566000000E+00 0. -1.
         13    1    4    4    0    0  0.12750319886E+02  0.12074680169E+02  0.14168428690E+02  0.22563778362E+02  0.10566000000E+00 0. -1.
        -13    1    4    4    0    0  0.33411994292E+01  0.38252252321E+01  0.34923149978E+01  0.61646889444E+01  0.10566000000E+00 0.  1.
        -14    1    4    4    0    0  0.83847659556E+01  0.82219366952E+01  0.10276244178E+02  0.15604670377E+02  0.00000000000E+00 0.  1.
<mgrwt>
<rscale>  0 0.79651172E+02</rscale>
<asrwt>0</asrwt>
<pdfrwt beam="1">  1        1 0.22394441E-01 0.79651172E+02</pdfrwt>
<pdfrwt beam="2">  1       -2 0.16763218E-02 0.79651172E+02</pdfrwt>
<totfact> 0.15885997E+05</totfact>
</mgrwt>
</event>
<event>
 8    1  0.1372337E-020  0.8171936E+02  0.7818608E-02  0.1324242E+00
          1   -1    0    0  501    0  0.00000000000E+00  0.00000000000E+00  0.40836186062E+02  0.40836186373E+02  0.50400000000E-02 0. -1.
         -2   -1    0    0    0  501 -0.00000000000E+00 -0.00000000000E+00 -0.40883185674E+02  0.40883185754E+02  0.25500000000E-02 0.  1.
        -24    2    1    2    0    0  0.00000000000E+00  0.00000000000E+00 -0.46999612290E-01  0.81719372127E+02  0.81719358611E+02 0.  0.
         66    2    3    3    0    0  0.63994072352E+01  0.40174017861E+02 -0.35737655970E+01  0.40886133627E+02  0.19999995998E+01 0.  0.
         13    1    3    3    0    0 -0.63994072352E+01 -0.40174017861E+02  0.35267659847E+01  0.40833238500E+02  0.10566000000E+00 0. -1.
         13    1    4    4    0    0  0.26891178479E+01  0.16423180910E+02 -0.19698589154E+01  0.16758392948E+02  0.10566000000E+00 0. -1.
        -13    1    4    4    0    0  0.19847717383E+01  0.15280438407E+02 -0.15087753904E+01  0.15482851287E+02  0.10566000000E+00 0.  1.
         14    1    4    4    0    0  0.17255176490E+01  0.84703985435E+01 -0.95131291251E-01  0.86448893923E+01  0.00000000000E+00 0. -1.
<mgrwt>
<rscale>  0 0.81719359E+02</rscale>
<asrwt>0</asrwt>
<pdfrwt beam="1">  1        1 0.62824902E-02 0.81719359E+02</pdfrwt>
<pdfrwt beam="2">  1       -2 0.62897209E-02 0.81719359E+02</pdfrwt>
<totfact> 0.11998774E+05</totfact>
</mgrwt>
</event>
<event>
 8    1  0.1372337E-020  0.8001644E+02  0.7818608E-02  0.1329005E+00
         -2   -1    0    0    0  501 -0.00000000000E+00  0.00000000000E+00  0.17128483059E+03  0.17128483061E+03  0.25500000000E-02 0.  1.
          1   -1    0    0  501    0  0.00000000000E+00 -0.00000000000E+00 -0.93450056361E+01  0.93450069952E+01  0.50400000000E-02 0. -1.
        -24    2    1    2    0    0  0.00000000000E+00  0.00000000000E+00  0.16193982496E+03  0.18062983761E+03  0.80016444104E+02 0.  0.
         66    2    3    3    0    0  0.35323247993E+02  0.18725142827E+02  0.79804603728E+02  0.89281227585E+02  0.20000000380E+01 0.  0.
         13    1    3    3    0    0 -0.35323247993E+02 -0.18725142827E+02  0.82135221231E+02  0.91348610024E+02  0.10566000000E+00 0. -1.
         13    1    4    4    0    0  0.11644325475E+02  0.65128625636E+01  0.26382887564E+02  0.29564769825E+02  0.10566000000E+00 0. -1.
        -13    1    4    4    0    0  0.15259023071E+01  0.12166027404E+01  0.40020758784E+01  0.44537933777E+01  0.10566000000E+00 0.  1.
        -14    1    4    4    0    0  0.22153020211E+02  0.10995677523E+02  0.49419640285E+02  0.55262664382E+02  0.00000000000E+00 0.  1.
<mgrwt>
<rscale>  0 0.80016444E+02</rscale>
<asrwt>0</asrwt>
<pdfrwt beam="1">  1        1 0.14376933E-02 0.80016444E+02</pdfrwt>
<pdfrwt beam="2">  1       -2 0.26351512E-01 0.80016444E+02</pdfrwt>
<totfact> 0.90237262E+04</totfact>
</mgrwt>
</event>
<event>
 8    1  0.2351761E-020  0.8173765E+02  0.7818608E-02  0.1324191E+00
          1   -1    0    0  501    0  0.00000000000E+00  0.00000000000E+00  0.11150655283E+03  0.11150655295E+03  0.50400000000E-02 0. -1.
         -2   -1    0    0    0  501 -0.00000000000E+00 -0.00000000000E+00 -0.14979038380E+02  0.14979038597E+02  0.25500000000E-02 0.  1.
        -24    2    1    2    0    0  0.00000000000E+00 -0.88817841970E-15  0.96527514452E+02  0.12648559154E+03  0.81737652412E+02 0.  0.
         66    2    3    3    0    0  0.21147273506E+02  0.43900883152E+01 -0.53525998164E+01  0.22341225879E+02  0.19999992073E+01 0.  0.
         13    1    3    3    0    0 -0.21147273506E+02 -0.43900883152E+01  0.10188011427E+03  0.10414436566E+03  0.10566000000E+00 0. -1.
         13    1    4    4    0    0  0.47471238920E+01  0.50268422155E+00 -0.14804532059E+01  0.49990781554E+01  0.10566000000E+00 0. -1.
        -13    1    4    4    0    0  0.97556437311E+01  0.19262527614E+01 -0.28047937905E+01  0.10332524694E+02  0.10566000000E+00 0.  1.
         14    1    4    4    0    0  0.66445058832E+01  0.19611513323E+01 -0.10673528199E+01  0.70096230300E+01  0.00000000000E+00 0. -1.
<mgrwt>
<rscale>  0 0.81737652E+02</rscale>
<asrwt>0</asrwt>
<pdfrwt beam="1">  1        1 0.17154854E-01 0.81737652E+02</pdfrwt>
<pdfrwt beam="2">  1       -2 0.23044676E-02 0.81737652E+02</pdfrwt>
<totfact> 0.14130929E+05</totfact>
</mgrwt>
</event>
<event>
 8    1  0.1372337E-020  0.8005849E+02  0.7818608E-02  0.1328886E+00
         -2   -1    0    0    0  501 -0.00000000000E+00  0.00000000000E+00  0.10949811067E+02  0.10949811364E+02  0.25500000000E-02 0.  1.
          1   -1    0    0  501    0  0.00000000000E+00 -0.00000000000E+00 -0.14633498729E+03  0.14633498738E+03  0.50400000000E-02 0. -1.
        -24    2    1    2    0    0  0.00000000000E+00 -0.88817841970E-15 -0.13538517623E+03  0.15728479874E+03  0.80058490954E+02 0.  0.
         66    2    3    3    0    0  0.33566559254E+02 -0.48231273617E+01 -0.26042132477E+02  0.42803844702E+02  0.19999999124E+01 0.  0.
         13    1    3    3    0    0 -0.33566559254E+02  0.48231273617E+01 -0.10934304375E+03  0.11448095404E+03  0.10566000000E+00 0. -1.
         13    1    4    4    0    0  0.47431569070E+01 -0.12382669094E+01 -0.38439744954E+01  0.62304210404E+01  0.10566000000E+00 0. -1.
        -13    1    4    4    0    0  0.19192209210E+02 -0.24819739043E+01 -0.15423821212E+02  0.24746848559E+02  0.10566000000E+00 0.  1.
        -14    1    4    4    0    0  0.96311931376E+01 -0.11028865479E+01 -0.67743367697E+01  0.11826575103E+02  0.00000000000E+00 0.  1.
<mgrwt>
<rscale>  0 0.80058491E+02</rscale>
<asrwt>0</asrwt>
<pdfrwt beam="1">  1        1 0.22513074E-01 0.80058491E+02</pdfrwt>
<pdfrwt beam="2">  1       -2 0.16845864E-02 0.80058491E+02</pdfrwt>
<totfact> 0.15686041E+05</totfact>
</mgrwt>
</event>
<event>
 8    1  0.1372337E-020  0.7599129E+02  0.7818608E-02  0.1340829E+00
         -2   -1    0    0    0  501 -0.00000000000E+00  0.00000000000E+00  0.61419080211E+02  0.61419080264E+02  0.25500000000E-02 0.  1.
          1   -1    0    0  501    0  0.00000000000E+00 -0.00000000000E+00 -0.23505218673E+02  0.23505219213E+02  0.50400000000E-02 0. -1.
        -24    2    1    2    0    0 -0.35527136788E-14  0.17763568394E-14  0.37913861538E+02  0.84924299477E+02  0.75991287296E+02 0.  0.
         66    2    3    3    0    0 -0.25041952820E+02  0.10881461831E+02  0.48456456577E+02  0.55655492074E+02  0.20000003456E+01 0.  0.
         13    1    3    3    0    0  0.25041952820E+02 -0.10881461831E+02 -0.10542595039E+02  0.29268807403E+02  0.10566000000E+00 0. -1.
         13    1    4    4    0    0 -0.20532995690E+01  0.13996579752E+01  0.42749390126E+01  0.49458416033E+01  0.10566000000E+00 0. -1.
        -13    1    4    4    0    0 -0.94745581543E+01  0.41309790088E+01  0.17426562263E+02  0.20261502317E+02  0.10566000000E+00 0.  1.
        -14    1    4    4    0    0 -0.13514095096E+02  0.53508248470E+01  0.26754955301E+02  0.30448148154E+02  0.00000000000E+00 0.  1.
<mgrwt>
<rscale>  0 0.75991287E+02</rscale>
<asrwt>0</asrwt>
<pdfrwt beam="1">  1        1 0.36161876E-02 0.75991287E+02</pdfrwt>
<pdfrwt beam="2">  1       -2 0.94490892E-02 0.75991287E+02</pdfrwt>
<totfact> 0.13424250E+05</totfact>
</mgrwt>
</event>
<event>
 8    1  0.1372337E-020  0.8106439E+02  0.7818608E-02  0.1326058E+00
         -2   -1    0    0    0  501 -0.00000000000E+00  0.00000000000E+00  0.77613012032E+01  0.77613016221E+01  0.25500000000E-02 0.  1.
          1   -1    0    0  501    0  0.00000000000E+00 -0.00000000000E+00 -0.21167312603E+03  0.21167312609E+03  0.50400000000E-02 0. -1.
        -24    2    1    2    0    0  0.00000000000E+00  0.00000000000E+00 -0.20391182483E+03  0.21943442771E+03  0.81064392683E+02 0.  0.
         66    2    3    3    0    0  0.11882689963E+02  0.34737111527E+02 -0.55683767904E+02  0.66727409992E+02  0.19999995435E+01 0.  0.
         13    1    3    3    0    0 -0.11882689963E+02 -0.34737111527E+02 -0.14822805692E+03  0.15270701772E+03  0.10566000000E+00 0. -1.
         13    1    4    4    0    0  0.61829368167E+01  0.15790649202E+02 -0.25988895395E+02  0.31032356626E+02  0.10566000000E+00 0. -1.
        -13    1    4    4    0    0  0.12656425949E+01  0.31314597903E+01 -0.53338477341E+01  0.63141893607E+01  0.10566000000E+00 0.  1.
        -14    1    4    4    0    0  0.44341105509E+01  0.15815002535E+02 -0.24361024775E+02  0.29380864005E+02  0.00000000000E+00 0.  1.
<mgrwt>
<rscale>  0 0.81064393E+02</rscale>
<asrwt>0</asrwt>
<pdfrwt beam="1">  1        1 0.32565092E-01 0.81064393E+02</pdfrwt>
<pdfrwt beam="2">  1       -2 0.11940465E-02 0.81064393E+02</pdfrwt>
<totfact> 0.16277764E+05</totfact>
</mgrwt>
</event>
<event>
 8    1  0.1372337E-020  0.7030246E+02  0.7818608E-02  0.1359068E+00
         -2   -1    0    0    0  501 -0.00000000000E+00  0.00000000000E+00  0.12254863604E+03  0.12254863607E+03  0.25500000000E-02 0.  1.
          1   -1    0    0  501    0  0.00000000000E+00 -0.00000000000E+00 -0.10082599692E+02  0.10082600952E+02  0.50400000000E-02 0. -1.
        -24    2    1    2    0    0 -0.35527136788E-14  0.17763568394E-14  0.11246603635E+03  0.13263123702E+03  0.70302458713E+02 0.  0.
         66    2    3    3    0    0 -0.19747436745E+02  0.10089468759E+02  0.10766289060E+03  0.10994115084E+03  0.19999993022E+01 0.  0.
         13    1    3    3    0    0  0.19747436745E+02 -0.10089468759E+02  0.48031457496E+01  0.22690086182E+02  0.10566000000E+00 0. -1.
         13    1    4    4    0    0 -0.15901533877E+02  0.77280620642E+01  0.83039007728E+02  0.84900351538E+02  0.10566000000E+00 0. -1.
        -13    1    4    4    0    0 -0.20102939794E+01  0.90494054377E+00  0.11992564893E+02  0.12193972938E+02  0.10566000000E+00 0.  1.
         14    1    4    4    0    0 -0.18356088885E+01  0.14564661508E+01  0.12631317978E+02  0.12846826359E+02  0.00000000000E+00 0. -1.
<mgrwt>
<rscale>  0 0.70302459E+02</rscale>
<asrwt>0</asrwt>
<pdfrwt beam="1">  1        1 0.15511693E-02 0.70302459E+02</pdfrwt>
<pdfrwt beam="2">  1       -2 0.18853637E-01 0.70302459E+02</pdfrwt>
<totfact> 0.13989488E+05</totfact>
</mgrwt>
</event>
<event>
 8    1  0.1372337E-020  0.8126807E+02  0.7818608E-02  0.1325491E+00
          1   -1    0    0  501    0  0.00000000000E+00  0.00000000000E+00  0.17359763681E+03  0.17359763688E+03  0.50400000000E-02 0. -1.
         -2   -1    0    0    0  501 -0.00000000000E+00 -0.00000000000E+00 -0.95112157890E+01  0.95112161308E+01  0.25500000000E-02 0.  1.
        -24    2    1    2    0    0  0.35527136788E-14  0.00000000000E+00  0.16408642102E+03  0.18310885301E+03  0.81268065613E+02 0.  0.
         66    2    3    3    0    0 -0.30236390743E+02 -0.59364886107E+01  0.22495507797E+02  0.38203783766E+02  0.20000002010E+01 0.  0.
         13    1    3    3    0    0  0.30236390743E+02  0.59364886107E+01  0.14159091322E+03  0.14490506924E+03  0.10566000000E+00 0. -1.
         13    1    4    4    0    0 -0.25156501461E+01 -0.74616634579E+00  0.14442521825E+01  0.29970465922E+01  0.10566000000E+00 0. -1.
        -13    1    4    4    0    0 -0.88123902343E+01 -0.12583950530E+01  0.69381219444E+01  0.11286739117E+02  0.10566000000E+00 0.  1.
        -14    1    4    4    0    0 -0.18908350362E+02 -0.39319272119E+01  0.14113133670E+02  0.23919998056E+02  0.00000000000E+00 0.  1.
<mgrwt>
<rscale>  0 0.81268066E+02</rscale>
<asrwt>0</asrwt>
<pdfrwt beam="1">  1        1 0.26707328E-01 0.81268066E+02</pdfrwt>
<pdfrwt beam="2">  1       -2 0.14632641E-02 0.81268066E+02</pdfrwt>
<totfact> 0.15559877E+05</totfact>
</mgrwt>
</event>
<event>
 8    1  0.1372337E-020  0.7982575E+02  0.7818608E-02  0.1329547E+00
          1   -1    0    0  501    0  0.00000000000E+00  0.00000000000E+00  0.91529657738E+02  0.91529657876E+02  0.50400000000E-02 0. -1.
         -2   -1    0    0    0  501 -0.00000000000E+00 -0.00000000000E+00 -0.17404605659E+02  0.17404605846E+02  0.25500000000E-02 0.  1.
        -24    2    1    2    0    0 -0.35527136788E-14  0.00000000000E+00  0.74125052079E+02  0.10893426372E+03  0.79825750651E+02 0.  0.
         66    2    3    3    0    0 -0.18815364793E+02 -0.23239758756E+01 -0.10805810286E+02  0.21913109040E+02  0.19999989218E+01 0.  0.
         13    1    3    3    0    0  0.18815364793E+02  0.23239758756E+01  0.84930862365E+02  0.87021154682E+02  0.10566000000E+00 0. -1.
         13    1    4    4    0    0 -0.14063449691E+01  0.17461704458E+00 -0.43061867474E+00  0.14848884682E+01  0.10566000000E+00 0. -1.
        -13    1    4    4    0    0 -0.11389869400E+02 -0.17052903602E+01 -0.71005645582E+01  0.13530200340E+02  0.10566000000E+00 0.  1.
         14    1    4    4    0    0 -0.60191504242E+01 -0.79330256002E+00 -0.32746270532E+01  0.68980202318E+01  0.00000000000E+00 0. -1.
<mgrwt>
<rscale>  0 0.79825751E+02</rscale>
<asrwt>0</asrwt>
<pdfrwt beam="1">  1        1 0.14081486E-01 0.79825751E+02</pdfrwt>
<pdfrwt beam="2">  1       -2 0.26776317E-02 0.79825751E+02</pdfrwt>
<totfact> 0.14569760E+05</totfact>
</mgrwt>
</event>
<event>
 8    1  0.1372337E-020  0.7717638E+02  0.7818608E-02  0.1337261E+00
          1   -1    0    0  501    0  0.00000000000E+00  0.00000000000E+00  0.99906145673E+02  0.99906145800E+02  0.50400000000E-02 0. -1.
         -2   -1    0    0    0  501 -0.00000000000E+00 -0.00000000000E+00 -0.14904473401E+02  0.14904473619E+02  0.25500000000E-02 0.  1.
        -24    2    1    2    0    0  0.35527136788E-14 -0.35527136788E-14  0.85001672272E+02  0.11481061942E+03  0.77176382673E+02 0.  0.
         66    2    3    3    0    0 -0.18758007111E+02  0.17559084849E+02 -0.24800960486E+00  0.25772966061E+02  0.19999948259E+01 0.  0.
         13    1    3    3    0    0  0.18758007111E+02 -0.17559084849E+02  0.85249681877E+02  0.89037653359E+02  0.10566000000E+00 0. -1.
         13    1    4    4    0    0 -0.33420515218E+01  0.27275116072E+01 -0.52406981278E+00  0.43467736479E+01  0.10566000000E+00 0. -1.
        -13    1    4    4    0    0 -0.14143519863E+01  0.17701430760E+01 -0.15279760081E+00  0.22733915618E+01  0.10566000000E+00 0.  1.
        -14    1    4    4    0    0 -0.14001603603E+02  0.13061430165E+02  0.42885780873E+00  0.19152800851E+02  0.00000000000E+00 0.  1.
<mgrwt>
<rscale>  0 0.77176383E+02</rscale>
<asrwt>0</asrwt>
<pdfrwt beam="1">  1        1 0.15370176E-01 0.77176383E+02</pdfrwt>
<pdfrwt beam="2">  1       -2 0.22929959E-02 0.77176383E+02</pdfrwt>
<totfact> 0.16191999E+05</totfact>
</mgrwt>
</event>
<event>
 8    1  0.1372337E-020  0.8150580E+02  0.7818608E-02  0.1324832E+00
         -2   -1    0    0    0  501 -0.00000000000E+00  0.00000000000E+00  0.71332597348E+02  0.71332597393E+02  0.25500000000E-02 0.  1.
          1   -1    0    0  501    0  0.00000000000E+00 -0.00000000000E+00 -0.23282467859E+02  0.23282468405E+02  0.50400000000E-02 0. -1.
        -24    2    1    2    0    0  0.35527136788E-14  0.00000000000E+00  0.48050129488E+02  0.94615065798E+02  0.81505801831E+02 0.  0.
         66    2    3    3    0    0 -0.26422616417E+02 -0.25107479435E+02  0.45135273971E+02  0.58049402552E+02  0.19999995929E+01 0.  0.
         13    1    3    3    0    0  0.26422616417E+02  0.25107479435E+02  0.29148555179E+01  0.36565663246E+02  0.10566000000E+00 0. -1.
         13    1    4    4    0    0 -0.12246963552E+02 -0.12031471928E+02  0.20225647016E+02  0.26529839694E+02  0.10566000000E+00 0. -1.
        -13    1    4    4    0    0 -0.68500993571E+01 -0.68959337953E+01  0.12081121480E+02  0.15506205995E+02  0.10566000000E+00 0.  1.
        -14    1    4    4    0    0 -0.73255535081E+01 -0.61800737118E+01  0.12828505475E+02  0.16013356862E+02  0.00000000000E+00 0.  1.
<mgrwt>
<rscale>  0 0.81505802E+02</rscale>
<asrwt>0</asrwt>
<pdfrwt beam="1">  1        1 0.35819183E-02 0.81505802E+02</pdfrwt>
<pdfrwt beam="2">  1       -2 0.10974245E-01 0.81505802E+02</pdfrwt>
<totfact> 0.10917512E+05</totfact>
</mgrwt>
</event>
<event>
 8    1  0.1372337E-020  0.7964638E+02  0.7818608E-02  0.1330058E+00
          1   -1    0    0  501    0  0.00000000000E+00  0.00000000000E+00  0.10090482933E+01  0.10090608802E+01  0.50400000000E-02 0. -1.
         -2   -1    0    0    0  501 -0.00000000000E+00 -0.00000000000E+00 -0.15716559432E+04  0.15716559432E+04  0.25500000000E-02 0.  1.
        -24    2    1    2    0    0  0.00000000000E+00  0.00000000000E+00 -0.15706468949E+04  0.15726650041E+04  0.79646384633E+02 0.  0.
         66    2    3    3    0    0 -0.15338914458E+02 -0.60744818386E+01 -0.15009512597E+04  0.15010432591E+04  0.20000009144E+01 0.  0.
         13    1    3    3    0    0  0.15338914458E+02  0.60744818386E+01 -0.69695635172E+02  0.71621744969E+02  0.10566000000E+00 0. -1.
         13    1    4    4    0    0 -0.87874490134E+00 -0.24144672928E+00 -0.68553701111E+02  0.68559839477E+02  0.10566000000E+00 0.  1.
        -13    1    4    4    0    0 -0.73950411744E+01 -0.38549901837E+01 -0.74094211938E+03  0.74098905729E+03  0.10566000000E+00 0.  1.
        -14    1    4    4    0    0 -0.70651283822E+01 -0.19780449256E+01 -0.69145543923E+03  0.69149436234E+03  0.00000000000E+00 0.  1.
<mgrwt>
<rscale>  0 0.79646385E+02</rscale>
<asrwt>0</asrwt>
<pdfrwt beam="1">  1        1 0.15524043E-03 0.79646385E+02</pdfrwt>
<pdfrwt beam="2">  1       -2 0.24179126E+00 0.79646385E+02</pdfrwt>
<totfact> 0.13847739E+04</totfact>
</mgrwt>
</event>
<event>
 8    1  0.1372337E-020  0.8268741E+02  0.7818608E-02  0.1321593E+00
          1   -1    0    0  501    0  0.00000000000E+00  0.00000000000E+00  0.13141698576E+03  0.13141698586E+03  0.50400000000E-02 0. -1.
         -2   -1    0    0    0  501 -0.00000000000E+00 -0.00000000000E+00 -0.13006705617E+02  0.13006705867E+02  0.25500000000E-02 0.  1.
        -24    2    1    2    0    0  0.00000000000E+00  0.00000000000E+00  0.11841028014E+03  0.14442369173E+03  0.82687413116E+02 0.  0.
         66    2    3    3    0    0 -0.40323237077E+02  0.13892851167E+01  0.74803596978E+02  0.85014538034E+02  0.19999987091E+01 0.  0.
         13    1    3    3    0    0  0.40323237077E+02 -0.13892851167E+01  0.43606683166E+02  0.59409153691E+02  0.10566000000E+00 0. -1.
         13    1    4    4    0    0 -0.21592779044E+02  0.79200906619E+00  0.40618479219E+02  0.46008123231E+02  0.10566000000E+00 0. -1.
        -13    1    4    4    0    0 -0.13059783884E+02  0.98403929740E+00  0.24205056988E+02  0.27521305134E+02  0.10566000000E+00 0.  1.
         14    1    4    4    0    0 -0.56706741489E+01 -0.38676324692E+00  0.99800607707E+01  0.11485109669E+02  0.00000000000E+00 0. -1.
<mgrwt>
<rscale>  0 0.82687413E+02</rscale>
<asrwt>0</asrwt>
<pdfrwt beam="1">  1        1 0.20217997E-01 0.82687413E+02</pdfrwt>
<pdfrwt beam="2">  1       -2 0.20010317E-02 0.82687413E+02</pdfrwt>
<totfact> 0.14103872E+05</totfact>
</mgrwt>
</event>
<event>
 8    1  0.1372337E-020  0.7840837E+02  0.7818608E-02  0.1333630E+00
          1   -1    0    0  501    0  0.00000000000E+00  0.00000000000E+00  0.70265728761E+01  0.70265746836E+01  0.50400000000E-02 0. -1.
         -2   -1    0    0    0  501 -0.00000000000E+00 -0.00000000000E+00 -0.21873649856E+03  0.21873649858E+03  0.25500000000E-02 0.  1.
        -24    2    1    2    0    0  0.00000000000E+00 -0.17763568394E-14 -0.21170992569E+03  0.22576307326E+03  0.78408370816E+02 0.  0.
         66    2    3    3    0    0 -0.46587152043E+01  0.11400277985E+02 -0.21301331994E+03  0.21337840669E+03  0.20000012426E+01 0.  0.
         13    1    3    3    0    0  0.46587152043E+01 -0.11400277985E+02  0.13033942508E+01  0.12384666572E+02  0.10566000000E+00 0. -1.
         13    1    4    4    0    0 -0.21809212357E+00  0.54268922788E+00 -0.57289240159E+01  0.57596710138E+01  0.10566000000E+00 0. -1.
        -13    1    4    4    0    0 -0.87493403804E+00  0.19607379957E+01 -0.31550374555E+02  0.31623524497E+02  0.10566000000E+00 0.  1.
        -14    1    4    4    0    0 -0.35656890427E+01  0.88968507614E+01 -0.17573402137E+03  0.17599521118E+03  0.00000000000E+00 0.  1.
<mgrwt>
<rscale>  0 0.78408371E+02</rscale>
<asrwt>0</asrwt>
<pdfrwt beam="1">  1        1 0.10810115E-02 0.78408371E+02</pdfrwt>
<pdfrwt beam="2">  1       -2 0.33651764E-01 0.78408371E+02</pdfrwt>
<totfact> 0.86301448E+04</totfact>
</mgrwt>
</event>
<event>
 8    1  0.1372337E-020  0.7961857E+02  0.7818608E-02  0.1330137E+00
         -2   -1    0    0    0  501 -0.00000000000E+00  0.00000000000E+00  0.34343229893E+02  0.34343229988E+02  0.25500000000E-02 0.  1.
          1   -1    0    0  501    0  0.00000000000E+00 -0.00000000000E+00 -0.46145318976E+02  0.46145319252E+02  0.50400000000E-02 0. -1.
        -24    2    1    2    0    0  0.35527136788E-14  0.00000000000E+00 -0.11802089083E+02  0.80488549239E+02  0.79618573536E+02 0.  0.
         66    2    3    3    0    0  0.30688084859E+02 -0.20625753856E+02  0.89388039766E+01  0.38093076799E+02  0.20000022496E+01 0.  0.
         13    1    3    3    0    0 -0.30688084859E+02  0.20625753856E+02 -0.20740893060E+02  0.42395472440E+02  0.10566000000E+00 0. -1.
         13    1    4    4    0    0  0.18182441614E+02 -0.12955322306E+02  0.59889448595E+01  0.23115366829E+02  0.10566000000E+00 0. -1.
        -13    1    4    4    0    0  0.41177526002E+01 -0.22033861701E+01  0.10063435329E+01  0.47785655204E+01  0.10566000000E+00 0.  1.
        -14    1    4    4    0    0  0.83878906453E+01 -0.54670453804E+01  0.19435155842E+01  0.10199144449E+02  0.00000000000E+00 0.  1.
<mgrwt>
<rscale>  0 0.79618574E+02</rscale>
<asrwt>0</asrwt>
<pdfrwt beam="1">  1        1 0.70992799E-02 0.79618574E+02</pdfrwt>
<pdfrwt beam="2">  1       -2 0.52835739E-02 0.79618574E+02</pdfrwt>
<totfact> 0.13166136E+05</totfact>
</mgrwt>
</event>
<event>
 8    1  0.1372337E-020  0.8033213E+02  0.7818608E-02  0.1328112E+00
          1   -1    0    0  501    0  0.00000000000E+00  0.00000000000E+00  0.41750753093E+01  0.41750783514E+01  0.50400000000E-02 0. -1.
         -2   -1    0    0    0  501 -0.00000000000E+00 -0.00000000000E+00 -0.38641509762E+03  0.38641509763E+03  0.25500000000E-02 0.  1.
        -24    2    1    2    0    0  0.00000000000E+00  0.00000000000E+00 -0.38224002231E+03  0.39059017598E+03  0.80332128790E+02 0.  0.
         66    2    3    3    0    0 -0.34977673642E+02  0.12255330710E+02 -0.26619745807E+03  0.26877261295E+03  0.20000004600E+01 0.  0.
         13    1    3    3    0    0  0.34977673642E+02 -0.12255330710E+02 -0.11604256424E+03  0.12181756303E+03  0.10566000000E+00 0. -1.
         13    1    4    4    0    0 -0.39388412568E+01  0.20166462295E+01 -0.31690998166E+02  0.31998622802E+02  0.10566000000E+00 0. -1.
        -13    1    4    4    0    0 -0.69163904977E+01  0.25428096917E+01 -0.52942569823E+02  0.53453056060E+02  0.10566000000E+00 0.  1.
         14    1    4    4    0    0 -0.24122441888E+02  0.76958747886E+01 -0.18156389009E+03  0.18332093409E+03  0.00000000000E+00 0. -1.
<mgrwt>
<rscale>  0 0.80332129E+02</rscale>
<asrwt>0</asrwt>
<pdfrwt beam="1">  1        1 0.64231982E-03 0.80332129E+02</pdfrwt>
<pdfrwt beam="2">  1       -2 0.59448449E-01 0.80332129E+02</pdfrwt>
<totfact> 0.59802589E+04</totfact>
</mgrwt>
</event>
<event>
 8    1  0.1372337E-020  0.8032182E+02  0.7818608E-02  0.1328141E+00
         -2   -1    0    0    0  501 -0.00000000000E+00  0.00000000000E+00  0.35509398698E+01  0.35509407854E+01  0.25500000000E-02 0.  1.
          1   -1    0    0  501    0  0.00000000000E+00 -0.00000000000E+00 -0.45421739831E+03  0.45421739834E+03  0.50400000000E-02 0. -1.
        -24    2    1    2    0    0  0.00000000000E+00  0.00000000000E+00 -0.45066645844E+03  0.45776833913E+03  0.80321824810E+02 0.  0.
         66    2    3    3    0    0 -0.36665168838E+02 -0.10964136885E+02 -0.29441775850E+03  0.29690126884E+03  0.20000042439E+01 0.  0.
         13    1    3    3    0    0  0.36665168838E+02  0.10964136885E+02 -0.15624869994E+03  0.16086707029E+03  0.10566000000E+00 0. -1.
         13    1    4    4    0    0 -0.14969366390E+02 -0.42668004314E+01 -0.11528191552E+03  0.11632806508E+03  0.10566000000E+00 0. -1.
        -13    1    4    4    0    0 -0.12918754052E+02 -0.37412235467E+01 -0.10173551111E+03  0.10262074032E+03  0.10566000000E+00 0.  1.
         14    1    4    4    0    0 -0.87770483960E+01 -0.29561129072E+01 -0.77400331871E+02  0.77952463436E+02  0.00000000000E+00 0. -1.
<mgrwt>
<rscale>  0 0.80321825E+02</rscale>
<asrwt>0</asrwt>
<pdfrwt beam="1">  1        1 0.69879554E-01 0.80321825E+02</pdfrwt>
<pdfrwt beam="2">  1       -2 0.54629887E-03 0.80321825E+02</pdfrwt>
<totfact> 0.19162864E+05</totfact>
</mgrwt>
</event>
<event>
 8    1  0.1372337E-020  0.7502381E+02  0.7818608E-02  0.1343797E+00
         -2   -1    0    0    0  501 -0.00000000000E+00  0.00000000000E+00  0.86252942143E+02  0.86252942180E+02  0.25500000000E-02 0.  1.
          1   -1    0    0  501    0  0.00000000000E+00 -0.00000000000E+00 -0.16314143266E+02  0.16314144044E+02  0.50400000000E-02 0. -1.
        -24    2    1    2    0    0  0.00000000000E+00 -0.88817841970E-15  0.69938798877E+02  0.10256708622E+03  0.75023806810E+02 0.  0.
         66    2    3    3    0    0 -0.12969833369E+02 -0.46599326674E+01  0.82651977851E+02  0.83816949325E+02  0.20000003382E+01 0.  0.
         13    1    3    3    0    0  0.12969833369E+02  0.46599326674E+01 -0.12713178975E+02  0.18750136900E+02  0.10566000000E+00 0. -1.
         13    1    4    4    0    0 -0.11002098584E+01 -0.84093251218E+00  0.63461578069E+01  0.64963460628E+01  0.10566000000E+00 0. -1.
        -13    1    4    4    0    0 -0.80750446252E+01 -0.27470688440E+01  0.50537985445E+02  0.51252823042E+02  0.10566000000E+00 0.  1.
        -14    1    4    4    0    0 -0.37945788852E+01 -0.10719313112E+01  0.25767834600E+02  0.26067780220E+02  0.00000000000E+00 0.  1.
<mgrwt>
<rscale>  0 0.75023807E+02</rscale>
<asrwt>0</asrwt>
<pdfrwt beam="1">  1        1 0.25098683E-02 0.75023807E+02</pdfrwt>
<pdfrwt beam="2">  1       -2 0.13269683E-01 0.75023807E+02</pdfrwt>
<totfact> 0.12946444E+05</totfact>
</mgrwt>
</event>
<event>
 8    1  0.1372337E-020  0.8013317E+02  0.7818608E-02  0.1328674E+00
          1   -1    0    0  501    0  0.00000000000E+00  0.00000000000E+00  0.13244465706E+03  0.13244465716E+03  0.50400000000E-02 0. -1.
         -2   -1    0    0    0  501 -0.00000000000E+00 -0.00000000000E+00 -0.12120768744E+02  0.12120769012E+02  0.25500000000E-02 0.  1.
        -24    2    1    2    0    0  0.00000000000E+00  0.00000000000E+00  0.12032388832E+03  0.14456542617E+03  0.80133166315E+02 0.  0.
         66    2    3    3    0    0 -0.30920675412E+02  0.22735780095E+01  0.14485979628E+02  0.34279745300E+02  0.20000017900E+01 0.  0.
         13    1    3    3    0    0  0.30920675412E+02 -0.22735780095E+01  0.10583790869E+03  0.11028568087E+03  0.10566000000E+00 0. -1.
         13    1    4    4    0    0 -0.24768863319E+01  0.65628146176E+00  0.14258683187E+01  0.29342692030E+01  0.10566000000E+00 0. -1.
        -13    1    4    4    0    0 -0.10988113207E+02  0.60172000488E+00  0.47636928078E+01  0.11991856904E+02  0.10566000000E+00 0.  1.
        -14    1    4    4    0    0 -0.17455675873E+02  0.10155765428E+01  0.82964185012E+01  0.19353619192E+02  0.00000000000E+00 0.  1.
<mgrwt>
<rscale>  0 0.80133166E+02</rscale>
<asrwt>0</asrwt>
<pdfrwt beam="1">  1        1 0.20376101E-01 0.80133166E+02</pdfrwt>
<pdfrwt beam="2">  1       -2 0.18647337E-02 0.80133166E+02</pdfrwt>
<totfact> 0.15365889E+05</totfact>
</mgrwt>
</event>
<event>
 8    1  0.1372337E-020  0.7645829E+02  0.7818608E-02  0.1339414E+00
          1   -1    0    0  501    0  0.00000000000E+00  0.00000000000E+00  0.12980588562E+02  0.12980589540E+02  0.50400000000E-02 0. -1.
         -2   -1    0    0    0  501 -0.00000000000E+00 -0.00000000000E+00 -0.11258868065E+03  0.11258868068E+03  0.25500000000E-02 0.  1.
        -24    2    1    2    0    0 -0.35527136788E-14  0.00000000000E+00 -0.99608092090E+02  0.12556927022E+03  0.76458286759E+02 0.  0.
         66    2    3    3    0    0 -0.25981536296E+02  0.21088860893E+02 -0.80106829874E+02  0.86838266180E+02  0.19999996425E+01 0.  0.
         13    1    3    3    0    0  0.25981536296E+02 -0.21088860893E+02 -0.19501262217E+02  0.38731004042E+02  0.10566000000E+00 0. -1.
         13    1    4    4    0    0 -0.84596117034E+01  0.63067151533E+01 -0.23920919398E+02  0.26145004017E+02  0.10566000000E+00 0. -1.
        -13    1    4    4    0    0 -0.62530945313E+01  0.45828739493E+01 -0.18967237142E+02  0.20490758250E+02  0.10566000000E+00 0.  1.
         14    1    4    4    0    0 -0.11268830061E+02  0.10199271790E+02 -0.37218673335E+02  0.40202503912E+02  0.00000000000E+00 0. -1.
<mgrwt>
<rscale>  0 0.76458287E+02</rscale>
<asrwt>0</asrwt>
<pdfrwt beam="1">  1        1 0.19970138E-02 0.76458287E+02</pdfrwt>
<pdfrwt beam="2">  1       -2 0.17321335E-01 0.76458287E+02</pdfrwt>
<totfact> 0.11558913E+05</totfact>
</mgrwt>
</event>
<event>
 8    1  0.1372337E-020  0.7839844E+02  0.7818608E-02  0.1333659E+00
          1   -1    0    0  501    0  0.00000000000E+00  0.00000000000E+00  0.21362268985E+03  0.21362268991E+03  0.50400000000E-02 0. -1.
         -2   -1    0    0    0  501 -0.00000000000E+00 -0.00000000000E+00 -0.71929574879E+01  0.71929579399E+01  0.25500000000E-02 0.  1.
        -24    2    1    2    0    0  0.00000000000E+00  0.00000000000E+00  0.20642973236E+03  0.22081564785E+03  0.78398443429E+02 0.  0.
         66    2    3    3    0    0  0.33904248679E+02  0.63333726822E+01  0.15559483778E+03  0.15938432555E+03  0.19999999205E+01 0.  0.
         13    1    3    3    0    0 -0.33904248679E+02 -0.63333726822E+01  0.50834894579E+02  0.61431322295E+02  0.10566000000E+00 0. -1.
         13    1    4    4    0    0  0.80449947378E+01  0.15284588681E+01  0.40103222036E+02  0.40930889418E+02  0.10566000000E+00 0. -1.
        -13    1    4    4    0    0  0.11126015221E+02  0.25686976101E+01  0.49400767293E+02  0.50703386428E+02  0.10566000000E+00 0.  1.
         14    1    4    4    0    0  0.14733238720E+02  0.22362162040E+01  0.66090848454E+02  0.67750049708E+02  0.00000000000E+00 0. -1.
<mgrwt>
<rscale>  0 0.78398443E+02</rscale>
<asrwt>0</asrwt>
<pdfrwt beam="1">  1        1 0.32865027E-01 0.78398443E+02</pdfrwt>
<pdfrwt beam="2">  1       -2 0.11066089E-02 0.78398443E+02</pdfrwt>
<totfact> 0.17818356E+05</totfact>
</mgrwt>
</event>
<event>
 8    1  0.1372337E-020  0.7797440E+02  0.7818608E-02  0.1334900E+00
         -2   -1    0    0    0  501 -0.00000000000E+00  0.00000000000E+00  0.17499906885E+03  0.17499906887E+03  0.25500000000E-02 0.  1.
          1   -1    0    0  501    0  0.00000000000E+00 -0.00000000000E+00 -0.86857696458E+01  0.86857711081E+01  0.50400000000E-02 0. -1.
        -24    2    1    2    0    0  0.00000000000E+00  0.17763568394E-14  0.16631329921E+03  0.18368483998E+03  0.77974399293E+02 0.  0.
         66    2    3    3    0    0  0.36068579634E+02  0.13976948032E+02  0.72237732588E+02  0.81966990455E+02  0.20000004410E+01 0.  0.
         13    1    3    3    0    0 -0.36068579634E+02 -0.13976948032E+02  0.94075566619E+02  0.10171784952E+03  0.10566000000E+00 0. -1.
         13    1    4    4    0    0  0.23733744400E+01  0.49678442993E+00  0.50389631533E+01  0.55930326923E+01  0.10566000000E+00 0.  1.
        -13    1    4    4    0    0  0.15044677051E+02  0.58754227522E+01  0.29531497553E+02  0.33659818951E+02  0.10566000000E+00 0.  1.
         14    1    4    4    0    0  0.18650528143E+02  0.76047408501E+01  0.37667271882E+02  0.42714138812E+02  0.00000000000E+00 0. -1.
<mgrwt>
<rscale>  0 0.77974399E+02</rscale>
<asrwt>0</asrwt>
<pdfrwt beam="1">  1        1 0.13362725E-02 0.77974399E+02</pdfrwt>
<pdfrwt beam="2">  1       -2 0.26922932E-01 0.77974399E+02</pdfrwt>
<totfact> 0.95698356E+04</totfact>
</mgrwt>
</event>
<event>
 8    1  0.1372337E-020  0.7917149E+02  0.7818608E-02  0.1331419E+00
          1   -1    0    0  501    0  0.00000000000E+00  0.00000000000E+00  0.15988855024E+02  0.15988855818E+02  0.50400000000E-02 0. -1.
         -2   -1    0    0    0  501 -0.00000000000E+00 -0.00000000000E+00 -0.98007705300E+02  0.98007705333E+02  0.25500000000E-02 0.  1.
        -24    2    1    2    0    0 -0.35527136788E-14  0.71054273576E-14 -0.82018850276E+02  0.11399656115E+03  0.79171485737E+02 0.  0.
         66    2    3    3    0    0 -0.22189905781E+02  0.32513269459E+02 -0.46708218959E+02  0.61115974378E+02  0.19999990807E+01 0.  0.
         13    1    3    3    0    0  0.22189905781E+02 -0.32513269459E+02 -0.35310631316E+02  0.52880586773E+02  0.10566000000E+00 0. -1.
         13    1    4    4    0    0 -0.72487324432E+00  0.12686058817E+01 -0.16444645189E+01  0.22023237030E+01  0.10566000000E+00 0.  1.
        -13    1    4    4    0    0 -0.84957221904E+01  0.11203435879E+02 -0.17534040845E+02  0.22475498291E+02  0.10566000000E+00 0.  1.
        -14    1    4    4    0    0 -0.12969310346E+02  0.20041227699E+02 -0.27529713596E+02  0.36438152384E+02  0.00000000000E+00 0.  1.
<mgrwt>
<rscale>  0 0.79171486E+02</rscale>
<asrwt>0</asrwt>
<pdfrwt beam="1">  1        1 0.24598240E-02 0.79171486E+02</pdfrwt>
<pdfrwt beam="2">  1       -2 0.15078108E-01 0.79171486E+02</pdfrwt>
<totfact> 0.10953451E+05</totfact>
</mgrwt>
</event>
<event>
 8    1  0.1372337E-020  0.7994534E+02  0.7818608E-02  0.1329207E+00
         -2   -1    0    0    0  501 -0.00000000000E+00  0.00000000000E+00  0.30049621287E+02  0.30049621395E+02  0.25500000000E-02 0.  1.
          1   -1    0    0  501    0  0.00000000000E+00 -0.00000000000E+00 -0.53172528661E+02  0.53172528900E+02  0.50400000000E-02 0. -1.
        -24    2    1    2    0    0  0.00000000000E+00  0.35527136788E-14 -0.23122907374E+02  0.83222150296E+02  0.79945340417E+02 0.  0.
         66    2    3    3    0    0 -0.31120885353E+02 -0.23186099562E+02 -0.17092044393E+01  0.38897636136E+02  0.19999997723E+01 0.  0.
         13    1    3    3    0    0  0.31120885353E+02  0.23186099562E+02 -0.21413702935E+02  0.44324514160E+02  0.10566000000E+00 0. -1.
         13    1    4    4    0    0 -0.85257713684E+01 -0.60516618535E+01  0.16173984783E+00  0.10456993470E+02  0.10566000000E+00 0. -1.
        -13    1    4    4    0    0 -0.18386642688E+02 -0.14358076746E+02 -0.12728586314E+01  0.23363525640E+02  0.10566000000E+00 0.  1.
         14    1    4    4    0    0 -0.42084712963E+01 -0.27763609628E+01 -0.59808565568E+00  0.50771170263E+01  0.00000000000E+00 0. -1.
<mgrwt>
<rscale>  0 0.79945340E+02</rscale>
<asrwt>0</asrwt>
<pdfrwt beam="1">  1        1 0.81803890E-02 0.79945340E+02</pdfrwt>
<pdfrwt beam="2">  1       -2 0.46230187E-02 0.79945340E+02</pdfrwt>
<totfact> 0.13309984E+05</totfact>
</mgrwt>
</event>
<event>
 8    1  0.1372337E-020  0.7957574E+02  0.7818608E-02  0.1330260E+00
          1   -1    0    0  501    0  0.00000000000E+00  0.00000000000E+00  0.15196786653E+03  0.15196786661E+03  0.50400000000E-02 0. -1.
         -2   -1    0    0    0  501 -0.00000000000E+00 -0.00000000000E+00 -0.10417165488E+02  0.10417165800E+02  0.25500000000E-02 0.  1.
        -24    2    1    2    0    0  0.00000000000E+00  0.00000000000E+00  0.14155070104E+03  0.16238503241E+03  0.79575736168E+02 0.  0.
         66    2    3    3    0    0 -0.11344749394E+01  0.35288347314E+02  0.33497230299E+02  0.48709537284E+02  0.20000237888E+01 0.  0.
         13    1    3    3    0    0  0.11344749394E+01 -0.35288347314E+02  0.10805347074E+03  0.11367549513E+03  0.10566000000E+00 0. -1.
         13    1    4    4    0    0  0.17676204748E-01  0.48701783070E+01  0.46582396914E+01  0.67401268718E+01  0.10566000000E+00 0. -1.
        -13    1    4    4    0    0 -0.32915517972E+00  0.24570484483E+02  0.23736690049E+02  0.34165167486E+02  0.10566000000E+00 0.  1.
        -14    1    4    4    0    0 -0.82299596447E+00  0.58476845242E+01  0.51023005589E+01  0.78042429258E+01  0.00000000000E+00 0.  1.
<mgrwt>
<rscale>  0 0.79575736E+02</rscale>
<asrwt>0</asrwt>
<pdfrwt beam="1">  1        1 0.23379670E-01 0.79575736E+02</pdfrwt>
<pdfrwt beam="2">  1       -2 0.16026410E-02 0.79575736E+02</pdfrwt>
<totfact> 0.16052845E+05</totfact>
</mgrwt>
</event>
<event>
 8    1  0.1372337E-020  0.8033133E+02  0.7818608E-02  0.1328114E+00
         -2   -1    0    0    0  501 -0.00000000000E+00  0.00000000000E+00  0.37920669143E+01  0.37920677717E+01  0.25500000000E-02 0.  1.
          1   -1    0    0  501    0  0.00000000000E+00 -0.00000000000E+00 -0.42543566052E+03  0.42543566055E+03  0.50400000000E-02 0. -1.
        -24    2    1    2    0    0 -0.71054273576E-14  0.00000000000E+00 -0.42164359361E+03  0.42922772832E+03  0.80331330945E+02 0.  0.
         66    2    3    3    0    0  0.34249947995E+02  0.20826165624E+02 -0.19963305773E+03  0.20362746831E+03  0.20000001302E+01 0.  0.
         13    1    3    3    0    0 -0.34249947995E+02 -0.20826165624E+02 -0.22201053588E+03  0.22560026002E+03  0.10566000000E+00 0. -1.
         13    1    4    4    0    0  0.17949064687E+02  0.11451536856E+02 -0.10831393183E+03  0.11038670940E+03  0.10566000000E+00 0. -1.
        -13    1    4    4    0    0  0.52882920301E+00  0.29972867428E+00 -0.38286538624E+01  0.38780474517E+01  0.10566000000E+00 0.  1.
         14    1    4    4    0    0  0.15772054105E+02  0.90749000939E+01 -0.87490472035E+02  0.89362711459E+02  0.00000000000E+00 0. -1.
<mgrwt>
<rscale>  0 0.80331331E+02</rscale>
<asrwt>0</asrwt>
<pdfrwt beam="1">  1        1 0.65451602E-01 0.80331331E+02</pdfrwt>
<pdfrwt beam="2">  1       -2 0.58339531E-03 0.80331331E+02</pdfrwt>
<totfact> 0.18973111E+05</totfact>
</mgrwt>
</event>
<event>
 8    1  0.1372337E-020  0.8032273E+02  0.7818608E-02  0.1328138E+00
          1   -1    0    0  501    0  0.00000000000E+00  0.00000000000E+00  0.19992626228E+03  0.19992626234E+03  0.50400000000E-02 0. -1.
         -2   -1    0    0    0  501 -0.00000000000E+00 -0.00000000000E+00 -0.80676509416E+01  0.80676513446E+01  0.25500000000E-02 0.  1.
        -24    2    1    2    0    0  0.00000000000E+00  0.00000000000E+00  0.19185861133E+03  0.20799391368E+03  0.80322732688E+02 0.  0.
         66    2    3    3    0    0  0.30662552890E+02  0.19298822572E+02  0.51265279471E+02  0.62807368747E+02  0.19999968122E+01 0.  0.
         13    1    3    3    0    0 -0.30662552890E+02 -0.19298822572E+02  0.14059333186E+03  0.14518654494E+03  0.10566000000E+00 0. -1.
         13    1    4    4    0    0  0.68157525086E+00  0.44460025098E+00  0.12794230131E+01  0.15199675943E+01  0.10566000000E+00 0.  1.
        -13    1    4    4    0    0  0.22903956036E+02  0.14019368754E+02  0.36665014788E+02  0.45447424303E+02  0.10566000000E+00 0.  1.
        -14    1    4    4    0    0  0.70770216027E+01  0.48348535672E+01  0.13320841670E+02  0.15839976849E+02  0.00000000000E+00 0.  1.
<mgrwt>
<rscale>  0 0.80322733E+02</rscale>
<asrwt>0</asrwt>
<pdfrwt beam="1">  1        1 0.30757889E-01 0.80322733E+02</pdfrwt>
<pdfrwt beam="2">  1       -2 0.12411770E-02 0.80322733E+02</pdfrwt>
<totfact> 0.16495420E+05</totfact>
</mgrwt>
</event>
<event>
 8    1  0.1372337E-020  0.7817121E+02  0.7818608E-02  0.1334323E+00
         -2   -1    0    0    0  501 -0.00000000000E+00  0.00000000000E+00  0.14395361136E+02  0.14395361362E+02  0.25500000000E-02 0.  1.
          1   -1    0    0  501    0  0.00000000000E+00 -0.00000000000E+00 -0.10612338534E+03  0.10612338546E+03  0.50400000000E-02 0. -1.
        -24    2    1    2    0    0  0.00000000000E+00  0.00000000000E+00 -0.91728024204E+02  0.12051874682E+03  0.78171208964E+02 0.  0.
         66    2    3    3    0    0 -0.69275744440E+01  0.34242460937E+02 -0.18962554400E+02  0.39800953377E+02  0.20000004058E+01 0.  0.
         13    1    3    3    0    0  0.69275744440E+01 -0.34242460937E+02 -0.72765469804E+02  0.80717793444E+02  0.10566000000E+00 0. -1.
         13    1    4    4    0    0 -0.19522441488E+01  0.84341681604E+01 -0.52022009543E+01  0.10100520213E+02  0.10566000000E+00 0. -1.
        -13    1    4    4    0    0 -0.32567535631E+00  0.43891810216E+01 -0.22957617712E+01  0.49651445723E+01  0.10566000000E+00 0.  1.
        -14    1    4    4    0    0 -0.46496549388E+01  0.21419111755E+02 -0.11464591675E+02  0.24735288591E+02  0.00000000000E+00 0.  1.
<mgrwt>
<rscale>  0 0.78171209E+02</rscale>
<asrwt>0</asrwt>
<pdfrwt beam="1">  1        1 0.16326674E-01 0.78171209E+02</pdfrwt>
<pdfrwt beam="2">  1       -2 0.22146710E-02 0.78171209E+02</pdfrwt>
<totfact> 0.15802036E+05</totfact>
</mgrwt>
</event>
<event>
 8    1  0.1372337E-020  0.7915880E+02  0.7818608E-02  0.1331456E+00
         -2   -1    0    0    0  501 -0.00000000000E+00  0.00000000000E+00  0.60374091756E+01  0.60374097141E+01  0.25500000000E-02 0.  1.
          1   -1    0    0  501    0  0.00000000000E+00 -0.00000000000E+00 -0.25947037287E+03  0.25947037291E+03  0.50400000000E-02 0. -1.
        -24    2    1    2    0    0  0.35527136788E-14  0.00000000000E+00 -0.25343296369E+03  0.26550778263E+03  0.79158799585E+02 0.  0.
         66    2    3    3    0    0 -0.31317483778E+02 -0.22714001843E+02 -0.99176400042E+02  0.10647379487E+03  0.19999996880E+01 0.  0.
         13    1    3    3    0    0  0.31317483778E+02  0.22714001843E+02 -0.15425656365E+03  0.15903398776E+03  0.10566000000E+00 0. -1.
         13    1    4    4    0    0 -0.42610503758E+00 -0.10785786375E+00 -0.12350909942E+01  0.13152234112E+01  0.10566000000E+00 0. -1.
        -13    1    4    4    0    0 -0.64632587576E+01 -0.48669323371E+01 -0.20014489775E+02  0.21588230802E+02  0.10566000000E+00 0.  1.
         14    1    4    4    0    0 -0.24428119983E+02 -0.17739211642E+02 -0.77926819272E+02  0.83570340657E+02  0.00000000000E+00 0. -1.
<mgrwt>
<rscale>  0 0.79158800E+02</rscale>
<asrwt>0</asrwt>
<pdfrwt beam="1">  1        1 0.39918510E-01 0.79158800E+02</pdfrwt>
<pdfrwt beam="2">  1       -2 0.92883242E-03 0.79158800E+02</pdfrwt>
<totfact> 0.18038565E+05</totfact>
</mgrwt>
</event>
<event>
 8    1  0.1372337E-020  0.8018849E+02  0.7818608E-02  0.1328517E+00
          1   -1    0    0  501    0  0.00000000000E+00  0.00000000000E+00  0.49567861275E+02  0.49567861532E+02  0.50400000000E-02 0. -1.
         -2   -1    0    0    0  501 -0.00000000000E+00 -0.00000000000E+00 -0.32431261918E+02  0.32431262018E+02  0.25500000000E-02 0.  1.
        -24    2    1    2    0    0  0.35527136788E-14  0.00000000000E+00  0.17136599357E+02  0.81999123550E+02  0.80188485616E+02 0.  0.
         66    2    3    3    0    0 -0.29646735053E+02 -0.10041949832E+01 -0.18971693721E+02  0.35268434491E+02  0.20000004909E+01 0.  0.
         13    1    3    3    0    0  0.29646735053E+02  0.10041949832E+01  0.36108293078E+02  0.46730689059E+02  0.10566000000E+00 0. -1.
         13    1    4    4    0    0 -0.98382393590E+00  0.18568108692E+00 -0.49031787701E+00  0.11198047415E+01  0.10566000000E+00 0. -1.
        -13    1    4    4    0    0 -0.12642719923E+02 -0.18712593550E+00 -0.87648588754E+01  0.15385294872E+02  0.10566000000E+00 0.  1.
         14    1    4    4    0    0 -0.16020191194E+02 -0.10027501346E+01 -0.97165169682E+01  0.18763334878E+02  0.00000000000E+00 0. -1.
<mgrwt>
<rscale>  0 0.80188486E+02</rscale>
<asrwt>0</asrwt>
<pdfrwt beam="1">  1        1 0.76258248E-02 0.80188486E+02</pdfrwt>
<pdfrwt beam="2">  1       -2 0.49894249E-02 0.80188486E+02</pdfrwt>
<totfact> 0.13053375E+05</totfact>
</mgrwt>
</event>
<event>
 8    1  0.1372337E-020  0.8105732E+02  0.7818608E-02  0.1326077E+00
          1   -1    0    0  501    0  0.00000000000E+00  0.00000000000E+00  0.19356289586E+02  0.19356290242E+02  0.50400000000E-02 0. -1.
         -2   -1    0    0    0  501 -0.00000000000E+00 -0.00000000000E+00 -0.84859863695E+02  0.84859863733E+02  0.25500000000E-02 0.  1.
        -24    2    1    2    0    0  0.00000000000E+00 -0.35527136788E-14 -0.65503574109E+02  0.10421615398E+03  0.81057316316E+02 0.  0.
         66    2    3    3    0    0 -0.19099217104E+02 -0.20487770573E+02 -0.70389126908E+02  0.75783626349E+02  0.19999996781E+01 0.  0.
         13    1    3    3    0    0  0.19099217104E+02  0.20487770573E+02  0.48855527986E+01  0.28432527626E+02  0.10566000000E+00 0. -1.
         13    1    4    4    0    0 -0.31771189402E+01 -0.32324694675E+01 -0.10161708603E+02  0.11127193240E+02  0.10566000000E+00 0. -1.
        -13    1    4    4    0    0 -0.99713319733E+01 -0.10222944094E+02 -0.38054437400E+02  0.40645878230E+02  0.10566000000E+00 0.  1.
        -14    1    4    4    0    0 -0.59507661906E+01 -0.70323570110E+01 -0.22172980904E+02  0.24010554879E+02  0.00000000000E+00 0.  1.
<mgrwt>
<rscale>  0 0.81057316E+02</rscale>
<asrwt>0</asrwt>
<pdfrwt beam="1">  1        1 0.29778908E-02 0.81057316E+02</pdfrwt>
<pdfrwt beam="2">  1       -2 0.13055363E-01 0.81057316E+02</pdfrwt>
<totfact> 0.10668475E+05</totfact>
</mgrwt>
</event>
<event>
 8    1  0.1372337E-020  0.7845501E+02  0.7818608E-02  0.1333494E+00
         -2   -1    0    0    0  501 -0.00000000000E+00  0.00000000000E+00  0.67569067584E+01  0.67569072395E+01  0.25500000000E-02 0.  1.
          1   -1    0    0  501    0  0.00000000000E+00 -0.00000000000E+00 -0.22773689030E+03  0.22773689036E+03  0.50400000000E-02 0. -1.
        -24    2    1    2    0    0  0.00000000000E+00  0.00000000000E+00 -0.22097998354E+03  0.23449379760E+03  0.78455006116E+02 0.  0.
         66    2    3    3    0    0  0.38924275975E+02 -0.29032865463E+01 -0.99676216461E+02  0.10706482363E+03  0.19999997094E+01 0.  0.
         13    1    3    3    0    0 -0.38924275975E+02  0.29032865463E+01 -0.12130376708E+03  0.12742897396E+03  0.10566000000E+00 0. -1.
         13    1    4    4    0    0  0.11290873044E+02 -0.33254370691E+00 -0.27303915880E+02  0.29548424423E+02  0.10566000000E+00 0. -1.
        -13    1    4    4    0    0  0.12900983463E+02 -0.11050767349E+01 -0.32547046951E+02  0.35028245719E+02  0.10566000000E+00 0.  1.
         14    1    4    4    0    0  0.14732419467E+02 -0.14656661045E+01 -0.39825253630E+02  0.42488153492E+02  0.00000000000E+00 0. -1.
<mgrwt>
<rscale>  0 0.78455006E+02</rscale>
<asrwt>0</asrwt>
<pdfrwt beam="1">  1        1 0.35036439E-01 0.78455006E+02</pdfrwt>
<pdfrwt beam="2">  1       -2 0.10395243E-02 0.78455006E+02</pdfrwt>
<totfact> 0.18006744E+05</totfact>
</mgrwt>
</event>
<event>
 8    1  0.1372337E-020  0.7961096E+02  0.7818608E-02  0.1330159E+00
          1   -1    0    0  501    0  0.00000000000E+00  0.00000000000E+00  0.55198787287E+03  0.55198787289E+03  0.50400000000E-02 0. -1.
         -2   -1    0    0    0  501 -0.00000000000E+00 -0.00000000000E+00 -0.28704902948E+01  0.28704914275E+01  0.25500000000E-02 0.  1.
        -24    2    1    2    0    0 -0.35527136788E-14  0.00000000000E+00  0.54911738257E+03  0.55485836432E+03  0.79610957852E+02 0.  0.
         66    2    3    3    0    0  0.20457298799E+02 -0.33523635777E+02  0.31888610890E+03  0.32130154945E+03  0.20000000747E+01 0.  0.
         13    1    3    3    0    0 -0.20457298799E+02  0.33523635777E+02  0.23023127367E+03  0.23355681487E+03  0.10566000000E+00 0. -1.
         13    1    4    4    0    0  0.11715575948E+02 -0.20010035200E+02  0.18266693843E+03  0.18413277217E+03  0.10566000000E+00 0. -1.
        -13    1    4    4    0    0  0.79870905518E+01 -0.12176609248E+02  0.12142291795E+03  0.12229308892E+03  0.10566000000E+00 0.  1.
         14    1    4    4    0    0  0.75463229921E+00 -0.13369913288E+01  0.14796252512E+02  0.14875688358E+02  0.00000000000E+00 0. -1.
<mgrwt>
<rscale>  0 0.79610958E+02</rscale>
<asrwt>0</asrwt>
<pdfrwt beam="1">  1        1 0.84921259E-01 0.79610958E+02</pdfrwt>
<pdfrwt beam="2">  1       -2 0.44161373E-03 0.79610958E+02</pdfrwt>
<totfact> 0.20065847E+05</totfact>
</mgrwt>
</event>
<event>
 8    1  0.1372337E-020  0.8661095E+02  0.7818608E-02  0.1311273E+00
         -2   -1    0    0    0  501 -0.00000000000E+00  0.00000000000E+00  0.33267574200E+03  0.33267574201E+03  0.25500000000E-02 0.  1.
          1   -1    0    0  501    0  0.00000000000E+00 -0.00000000000E+00 -0.56372118324E+01  0.56372140855E+01  0.50400000000E-02 0. -1.
        -24    2    1    2    0    0  0.35527136788E-14  0.00000000000E+00  0.32703853017E+03  0.33831295610E+03  0.86610946467E+02 0.  0.
         66    2    3    3    0    0 -0.22831951073E+02  0.34638329473E+02  0.21180325466E+03  0.21583727793E+03  0.19999995543E+01 0.  0.
         13    1    3    3    0    0  0.22831951073E+02 -0.34638329473E+02  0.11523527551E+03  0.12247567817E+03  0.10566000000E+00 0. -1.
         13    1    4    4    0    0 -0.28446317719E-01  0.19444748684E+00  0.10603970631E+01  0.10836166228E+01  0.10566000000E+00 0. -1.
        -13    1    4    4    0    0 -0.14712144938E+02  0.22557845571E+02  0.13784467932E+03  0.14045095367E+03  0.10566000000E+00 0.  1.
         14    1    4    4    0    0 -0.80913598167E+01  0.11886036415E+02  0.72898178279E+02  0.74302707634E+02  0.00000000000E+00 0. -1.
<mgrwt>
<rscale>  0 0.86610946E+02</rscale>
<asrwt>0</asrwt>
<pdfrwt beam="1">  1        1 0.86726321E-03 0.86610946E+02</pdfrwt>
<pdfrwt beam="2">  1       -2 0.51180903E-01 0.86610946E+02</pdfrwt>
<totfact> 0.53960429E+04</totfact>
</mgrwt>
</event>
<event>
 8    1  0.1372337E-020  0.8312368E+02  0.7818608E-02  0.1320414E+00
         -2   -1    0    0    0  501 -0.00000000000E+00  0.00000000000E+00  0.40808371833E+03  0.40808371834E+03  0.25500000000E-02 0.  1.
          1   -1    0    0  501    0  0.00000000000E+00 -0.00000000000E+00 -0.42329202630E+01  0.42329232635E+01  0.50400000000E-02 0. -1.
        -24    2    1    2    0    0  0.71054273576E-14  0.88817841970E-15  0.40385079807E+03  0.41231664160E+03  0.83123677987E+02 0.  0.
         66    2    3    3    0    0  0.32745004620E+02  0.40219380513E+01  0.32723081916E+03  0.32889575905E+03  0.20000005827E+01 0.  0.
         13    1    3    3    0    0 -0.32745004620E+02 -0.40219380513E+01  0.76619978908E+02  0.83420882548E+02  0.10566000000E+00 0. -1.
         13    1    4    4    0    0  0.12312213374E+02  0.16113149083E+01  0.11567544158E+03  0.11634004419E+03  0.10566000000E+00 0. -1.
        -13    1    4    4    0    0  0.17364950814E+02  0.23135571625E+01  0.18222941779E+03  0.18306956583E+03  0.10566000000E+00 0.  1.
        -14    1    4    4    0    0  0.30678404325E+01  0.97065980491E-01  0.29325959791E+02  0.29486149026E+02  0.00000000000E+00 0.  1.
<mgrwt>
<rscale>  0 0.83123678E+02</rscale>
<asrwt>0</asrwt>
<pdfrwt beam="1">  1        1 0.65121871E-03 0.83123678E+02</pdfrwt>
<pdfrwt beam="2">  1       -2 0.62782113E-01 0.83123678E+02</pdfrwt>
<totfact> 0.52807276E+04</totfact>
</mgrwt>
</event>
<event>
 8    1  0.1372337E-020  0.8032984E+02  0.7818608E-02  0.1328118E+00
          1   -1    0    0  501    0  0.00000000000E+00  0.00000000000E+00  0.17224237483E+03  0.17224237491E+03  0.50400000000E-02 0. -1.
         -2   -1    0    0    0  501 -0.00000000000E+00 -0.00000000000E+00 -0.93659923321E+01  0.93659926792E+01  0.25500000000E-02 0.  1.
        -24    2    1    2    0    0 -0.71054273576E-14  0.00000000000E+00  0.16287638250E+03  0.18160836758E+03  0.80329840038E+02 0.  0.
         66    2    3    3    0    0 -0.21980875763E+02 -0.29839917439E+02  0.46637525788E+02  0.59604012967E+02  0.19999945107E+01 0.  0.
         13    1    3    3    0    0  0.21980875763E+02  0.29839917439E+02  0.11623885671E+03  0.12200435462E+03  0.10566000000E+00 0. -1.
         13    1    4    4    0    0 -0.79792413127E+01 -0.10319578118E+02  0.17615585148E+02  0.21919899375E+02  0.10566000000E+00 0. -1.
        -13    1    4    4    0    0 -0.63397006622E+00 -0.68153270188E+00  0.10536350945E+01  0.14098637582E+01  0.10566000000E+00 0.  1.
        -14    1    4    4    0    0 -0.13367664384E+02 -0.18838806619E+02  0.27968305545E+02  0.36274249834E+02  0.00000000000E+00 0.  1.
<mgrwt>
<rscale>  0 0.80329840E+02</rscale>
<asrwt>0</asrwt>
<pdfrwt beam="1">  1        1 0.26498825E-01 0.80329840E+02</pdfrwt>
<pdfrwt beam="2">  1       -2 0.14409220E-02 0.80329840E+02</pdfrwt>
<totfact> 0.16025297E+05</totfact>
</mgrwt>
</event>
<event>
 8    1  0.1372337E-020  0.8032061E+02  0.7818608E-02  0.1328144E+00
          1   -1    0    0  501    0  0.00000000000E+00  0.00000000000E+00  0.47257095672E+01  0.47257122548E+01  0.50400000000E-02 0. -1.
         -2   -1    0    0    0  501 -0.00000000000E+00 -0.00000000000E+00 -0.34129256034E+03  0.34129256035E+03  0.25500000000E-02 0.  1.
        -24    2    1    2    0    0 -0.35527136788E-14  0.00000000000E+00 -0.33656685077E+03  0.34601827260E+03  0.80320607175E+02 0.  0.
         66    2    3    3    0    0 -0.23246906744E+02  0.14898912580E+02 -0.29387046356E+03  0.29517155280E+03  0.19999907764E+01 0.  0.
         13    1    3    3    0    0  0.23246906744E+02 -0.14898912580E+02 -0.42696387210E+02  0.50846719796E+02  0.10566000000E+00 0. -1.
         13    1    4    4    0    0 -0.40052206272E+01  0.31733637193E+01 -0.49075610915E+02  0.49341045594E+02  0.10566000000E+00 0. -1.
        -13    1    4    4    0    0 -0.46137936918E+01  0.31040490943E+01 -0.60024094443E+02  0.60281218392E+02  0.10566000000E+00 0.  1.
         14    1    4    4    0    0 -0.14627892425E+02  0.86214997665E+01 -0.18477075820E+03  0.18554928882E+03  0.00000000000E+00 0. -1.
<mgrwt>
<rscale>  0 0.80320607E+02</rscale>
<asrwt>0</asrwt>
<pdfrwt beam="1">  1        1 0.72703271E-03 0.80320607E+02</pdfrwt>
<pdfrwt beam="2">  1       -2 0.52506529E-01 0.80320607E+02</pdfrwt>
<totfact> 0.64623731E+04</totfact>
</mgrwt>
</event>
<event>
 8    1  0.1372337E-020  0.8060190E+02  0.7818608E-02  0.1327352E+00
          1   -1    0    0  501    0  0.00000000000E+00  0.00000000000E+00  0.40766437833E+02  0.40766438145E+02  0.50400000000E-02 0. -1.
         -2   -1    0    0    0  501 -0.00000000000E+00 -0.00000000000E+00 -0.39840779761E+02  0.39840779843E+02  0.25500000000E-02 0.  1.
        -24    2    1    2    0    0  0.35527136788E-14 -0.88817841970E-15  0.92565807231E+00  0.80607217988E+02  0.80601902886E+02 0.  0.
         66    2    3    3    0    0  0.30266667667E+02 -0.49724651454E+01 -0.25641580052E+02  0.40028579680E+02  0.19999955901E+01 0.  0.
         13    1    3    3    0    0 -0.30266667667E+02  0.49724651454E+01  0.26567238124E+02  0.40578638307E+02  0.10566000000E+00 0. -1.
         13    1    4    4    0    0  0.98662215921E+01 -0.12663838944E+01 -0.81130654113E+01  0.12836629272E+02  0.10566000000E+00 0.  1.
        -13    1    4    4    0    0  0.14145960101E+02 -0.30822202551E+01 -0.12821114447E+02  0.19339090169E+02  0.10566000000E+00 0. -1.
        -14    1    4    4    0    0  0.62544859747E+01 -0.62386099588E+00 -0.47074001936E+01  0.78528602389E+01  0.00000000000E+00 0.  1.
<mgrwt>
<rscale>  0 0.80601903E+02</rscale>
<asrwt>0</asrwt>
<pdfrwt beam="1">  1        1 0.62717597E-02 0.80601903E+02</pdfrwt>
<pdfrwt beam="2">  1       -2 0.61293508E-02 0.80601903E+02</pdfrwt>
<totfact> 0.12470658E+05</totfact>
</mgrwt>
</event>
<event>
 8    1  0.1372337E-020  0.8094651E+02  0.7818608E-02  0.1326387E+00
          1   -1    0    0  501    0  0.00000000000E+00  0.00000000000E+00  0.23641747666E+02  0.23641748204E+02  0.50400000000E-02 0. -1.
         -2   -1    0    0    0  501 -0.00000000000E+00 -0.00000000000E+00 -0.69287777774E+02  0.69287777821E+02  0.25500000000E-02 0.  1.
        -24    2    1    2    0    0  0.00000000000E+00  0.00000000000E+00 -0.45646030108E+02  0.92929526025E+02  0.80946505438E+02 0.  0.
         66    2    3    3    0    0  0.23037712169E+02  0.32061249440E+02 -0.12735539202E+02  0.41531359975E+02  0.20000012434E+01 0.  0.
         13    1    3    3    0    0 -0.23037712169E+02 -0.32061249440E+02 -0.32910490905E+02  0.51398166050E+02  0.10566000000E+00 0. -1.
         13    1    4    4    0    0  0.12029331461E+02  0.15416169173E+02 -0.66355112491E+01  0.20649558371E+02  0.10566000000E+00 0.  1.
        -13    1    4    4    0    0  0.20764315705E+00  0.30400022796E+00 -0.11230235020E+00  0.39913365271E+00  0.10566000000E+00 0.  1.
        -14    1    4    4    0    0  0.10800737551E+02  0.16341080039E+02 -0.59877256031E+01  0.20482667951E+02  0.00000000000E+00 0.  1.
<mgrwt>
<rscale>  0 0.80946505E+02</rscale>
<asrwt>0</asrwt>
<pdfrwt beam="1">  1        1 0.36371920E-02 0.80946505E+02</pdfrwt>
<pdfrwt beam="2">  1       -2 0.10659658E-01 0.80946505E+02</pdfrwt>
<totfact> 0.11175811E+05</totfact>
</mgrwt>
</event>
<event>
 8    1  0.1372337E-020  0.8245821E+02  0.7818608E-02  0.1322217E+00
          1   -1    0    0  501    0  0.00000000000E+00  0.00000000000E+00  0.15400251599E+02  0.15400252423E+02  0.50400000000E-02 0. -1.
         -2   -1    0    0    0  501 -0.00000000000E+00 -0.00000000000E+00 -0.11037736589E+03  0.11037736592E+03  0.25500000000E-02 0.  1.
        -24    2    1    2    0    0  0.00000000000E+00  0.11102230246E-15 -0.94977114296E+02  0.12577761835E+03  0.82458213885E+02 0.  0.
         66    2    3    3    0    0 -0.38411063529E+02  0.64657684332E+00 -0.70243943678E+02  0.80087698716E+02  0.19999997618E+01 0.  0.
         13    1    3    3    0    0  0.38411063529E+02 -0.64657684332E+00 -0.24733170617E+02  0.45689919631E+02  0.10566000000E+00 0. -1.
         13    1    4    4    0    0 -0.10305655258E+02 -0.45336316241E+00 -0.17854114091E+02  0.20620199380E+02  0.10566000000E+00 0. -1.
        -13    1    4    4    0    0 -0.10418433129E+02  0.52044977896E+00 -0.18725875337E+02  0.21435582287E+02  0.10566000000E+00 0.  1.
         14    1    4    4    0    0 -0.17686975142E+02  0.57949022677E+00 -0.33663954251E+02  0.38031917048E+02  0.00000000000E+00 0. -1.
<mgrwt>
<rscale>  0 0.82458214E+02</rscale>
<asrwt>0</asrwt>
<pdfrwt beam="1">  1        1 0.23692696E-02 0.82458214E+02</pdfrwt>
<pdfrwt beam="2">  1       -2 0.16981133E-01 0.82458214E+02</pdfrwt>
<totfact> 0.95744773E+04</totfact>
</mgrwt>
</event>
<event>
 8    1  0.1372337E-020  0.8172687E+02  0.7818608E-02  0.1324221E+00
          1   -1    0    0  501    0  0.00000000000E+00  0.00000000000E+00  0.25979265064E+03  0.25979265069E+03  0.50400000000E-02 0. -1.
         -2   -1    0    0    0  501 -0.00000000000E+00 -0.00000000000E+00 -0.64275109920E+01  0.64275114979E+01  0.25500000000E-02 0.  1.
        -24    2    1    2    0    0  0.35527136788E-14  0.71054273576E-14  0.25336513965E+03  0.26622016219E+03  0.81726866855E+02 0.  0.
         66    2    3    3    0    0  0.16354007952E+02  0.35670881443E+02  0.89911747173E+02  0.98122309629E+02  0.20000020442E+01 0.  0.
         13    1    3    3    0    0 -0.16354007952E+02 -0.35670881443E+02  0.16345339248E+03  0.16809785256E+03  0.10566000000E+00 0. -1.
         13    1    4    4    0    0  0.42055029802E+01  0.82706067301E+01  0.19549488120E+02  0.21639843826E+02  0.10566000000E+00 0. -1.
        -13    1    4    4    0    0  0.59349782182E+01  0.13600440257E+02  0.35540922717E+02  0.38514468622E+02  0.10566000000E+00 0.  1.
         14    1    4    4    0    0  0.62135267535E+01  0.13799834456E+02  0.34821336336E+02  0.37967997181E+02  0.00000000000E+00 0. -1.
<mgrwt>
<rscale>  0 0.81726867E+02</rscale>
<asrwt>0</asrwt>
<pdfrwt beam="1">  1        1 0.39968103E-01 0.81726867E+02</pdfrwt>
<pdfrwt beam="2">  1       -2 0.98884781E-03 0.81726867E+02</pdfrwt>
<totfact> 0.16582421E+05</totfact>
</mgrwt>
</event>
<event>
 8    1  0.1372337E-020  0.8131861E+02  0.7818608E-02  0.1325351E+00
         -2   -1    0    0    0  501 -0.00000000000E+00  0.00000000000E+00  0.21280371513E+03  0.21280371515E+03  0.25500000000E-02 0.  1.
          1   -1    0    0  501    0  0.00000000000E+00 -0.00000000000E+00 -0.77685630467E+01  0.77685646816E+01  0.50400000000E-02 0. -1.
        -24    2    1    2    0    0  0.00000000000E+00  0.00000000000E+00  0.20503515208E+03  0.22057227983E+03  0.81318614341E+02 0.  0.
         66    2    3    3    0    0  0.69144227098E+01  0.12441276013E+02  0.20581565047E+03  0.20631693234E+03  0.20000003093E+01 0.  0.
         13    1    3    3    0    0 -0.69144227098E+01 -0.12441276013E+02 -0.78049838632E+00  0.14255347488E+02  0.10566000000E+00 0. -1.
         13    1    4    4    0    0  0.88957335085E+00  0.16063263190E+01  0.27544357107E+02  0.27605695019E+02  0.10566000000E+00 0.  1.
        -13    1    4    4    0    0  0.45942710859E+01  0.84638093358E+01  0.14824463766E+03  0.14855715114E+03  0.10566000000E+00 0.  1.
        -14    1    4    4    0    0  0.14305782731E+01  0.23711403581E+01  0.30026655700E+02  0.30154086179E+02  0.00000000000E+00 0.  1.
<mgrwt>
<rscale>  0 0.81318614E+02</rscale>
<asrwt>0</asrwt>
<pdfrwt beam="1">  1        1 0.11951635E-02 0.81318614E+02</pdfrwt>
<pdfrwt beam="2">  1       -2 0.32739037E-01 0.81318614E+02</pdfrwt>
<totfact> 0.79486777E+04</totfact>
</mgrwt>
</event>
<event>
 8    1  0.1372337E-020  0.8022962E+02  0.7818608E-02  0.1328401E+00
          1   -1    0    0  501    0  0.00000000000E+00  0.00000000000E+00  0.64635184751E+02  0.64635184948E+02  0.50400000000E-02 0. -1.
         -2   -1    0    0    0  501 -0.00000000000E+00 -0.00000000000E+00 -0.24896626243E+02  0.24896626373E+02  0.25500000000E-02 0.  1.
        -24    2    1    2    0    0  0.88817841970E-15  0.00000000000E+00  0.39738558508E+02  0.89531811321E+02  0.80229621750E+02 0.  0.
         66    2    3    3    0    0 -0.61407249235E+01 -0.92463205455E+01 -0.23107485645E+02  0.25713010205E+02  0.20000136885E+01 0.  0.
         13    1    3    3    0    0  0.61407249235E+01  0.92463205455E+01  0.62846044153E+02  0.63818801116E+02  0.10566000000E+00 0. -1.
         13    1    4    4    0    0 -0.99709752740E+00 -0.10090504200E+01 -0.40066878971E+01  0.42517170849E+01  0.10566000000E+00 0.  1.
        -13    1    4    4    0    0 -0.48297836551E+00 -0.12398815163E+01 -0.19850291460E+01  0.23920867505E+01  0.10566000000E+00 0. -1.
        -14    1    4    4    0    0 -0.46606490305E+01 -0.69973886091E+01 -0.17115768602E+02  0.19069206369E+02  0.00000000000E+00 0.  1.
<mgrwt>
<rscale>  0 0.80229622E+02</rscale>
<asrwt>0</asrwt>
<pdfrwt beam="1">  1        1 0.99438745E-02 0.80229622E+02</pdfrwt>
<pdfrwt beam="2">  1       -2 0.38302503E-02 0.80229622E+02</pdfrwt>
<totfact> 0.13589900E+05</totfact>
</mgrwt>
</event>
<event>
 8    1  0.1372337E-020  0.8953400E+02  0.7818608E-02  0.1303984E+00
          1   -1    0    0  501    0  0.00000000000E+00  0.00000000000E+00  0.19006607935E+02  0.19006608603E+02  0.50400000000E-02 0. -1.
         -2   -1    0    0    0  501 -0.00000000000E+00 -0.00000000000E+00 -0.10544144983E+03  0.10544144986E+03  0.25500000000E-02 0.  1.
        -24    2    1    2    0    0 -0.44408920985E-15  0.00000000000E+00 -0.86434841894E+02  0.12444805846E+03  0.89534001149E+02 0.  0.
         66    2    3    3    0    0 -0.29508496791E+01  0.28549340506E+02 -0.90951114447E+02  0.95393278495E+02  0.20000014338E+01 0.  0.
         13    1    3    3    0    0  0.29508496791E+01 -0.28549340506E+02  0.45162725532E+01  0.29054779967E+02  0.10566000000E+00 0. -1.
         13    1    4    4    0    0 -0.13599237180E+01  0.83203108439E+01 -0.24924668577E+02  0.26312111902E+02  0.10566000000E+00 0. -1.
        -13    1    4    4    0    0 -0.72139827264E+00  0.92415344330E+01 -0.31818280633E+02  0.33141220868E+02  0.10566000000E+00 0.  1.
         14    1    4    4    0    0 -0.86952768843E+00  0.10987495229E+02 -0.34208165237E+02  0.35939945725E+02  0.00000000000E+00 0. -1.
<mgrwt>
<rscale>  0 0.89534001E+02</rscale>
<asrwt>0</asrwt>
<pdfrwt beam="1">  1        1 0.29240937E-02 0.89534001E+02</pdfrwt>
<pdfrwt beam="2">  1       -2 0.16221761E-01 0.89534001E+02</pdfrwt>
<totfact> 0.78430853E+04</totfact>
</mgrwt>
</event>
<event>
 8    1  0.1372337E-020  0.7831084E+02  0.7818608E-02  0.1333915E+00
          1   -1    0    0  501    0  0.00000000000E+00  0.00000000000E+00  0.33801312964E+02  0.33801313339E+02  0.50400000000E-02 0. -1.
         -2   -1    0    0    0  501 -0.00000000000E+00 -0.00000000000E+00 -0.45357616657E+02  0.45357616729E+02  0.25500000000E-02 0.  1.
        -24    2    1    2    0    0  0.00000000000E+00  0.35527136788E-14 -0.11556303693E+02  0.79158930068E+02  0.78310842509E+02 0.  0.
         66    2    3    3    0    0  0.31345376838E+02  0.23293055757E+02 -0.82667810727E+01  0.39967971688E+02  0.19999989895E+01 0.  0.
         13    1    3    3    0    0 -0.31345376838E+02 -0.23293055757E+02 -0.32895226205E+01  0.39190958380E+02  0.10566000000E+00 0. -1.
         13    1    4    4    0    0  0.37423164190E+01  0.30711262618E+01 -0.70290504638E+00  0.48930551025E+01  0.10566000000E+00 0. -1.
        -13    1    4    4    0    0  0.21549898023E+02  0.16021074185E+02 -0.53425336179E+01  0.27379312488E+02  0.10566000000E+00 0.  1.
        -14    1    4    4    0    0  0.60531623963E+01  0.42008553105E+01 -0.22213424083E+01  0.76956040978E+01  0.00000000000E+00 0.  1.
<mgrwt>
<rscale>  0 0.78310843E+02</rscale>
<asrwt>0</asrwt>
<pdfrwt beam="1">  1        1 0.52002021E-02 0.78310843E+02</pdfrwt>
<pdfrwt beam="2">  1       -2 0.69780949E-02 0.78310843E+02</pdfrwt>
<totfact> 0.13119896E+05</totfact>
</mgrwt>
</event>
<event>
 8    1  0.1372337E-020  0.7710923E+02  0.7818608E-02  0.1337461E+00
         -2   -1    0    0    0  501 -0.00000000000E+00  0.00000000000E+00  0.40444098616E+01  0.40444106655E+01  0.25500000000E-02 0.  1.
          1   -1    0    0  501    0  0.00000000000E+00 -0.00000000000E+00 -0.36753399726E+03  0.36753399730E+03  0.50400000000E-02 0. -1.
        -24    2    1    2    0    0  0.35527136788E-14  0.00000000000E+00 -0.36348958740E+03  0.37157840796E+03  0.77109228469E+02 0.  0.
         66    2    3    3    0    0  0.31567408100E+02  0.15703211398E+02 -0.25673155886E+03  0.25914896376E+03  0.19999998437E+01 0.  0.
         13    1    3    3    0    0 -0.31567408100E+02 -0.15703211398E+02 -0.10675802854E+03  0.11242944421E+03  0.10566000000E+00 0. -1.
         13    1    4    4    0    0  0.12718512064E+02  0.62679020963E+01 -0.10919821828E+03  0.11011498165E+03  0.10566000000E+00 0. -1.
        -13    1    4    4    0    0  0.15144739188E+01  0.65423184142E+00 -0.10325426209E+02  0.10456923113E+02  0.10566000000E+00 0.  1.
         14    1    4    4    0    0  0.17334422117E+02  0.87810774601E+01 -0.13720791437E+03  0.13857705899E+03  0.00000000000E+00 0. -1.
<mgrwt>
<rscale>  0 0.77109228E+02</rscale>
<asrwt>0</asrwt>
<pdfrwt beam="1">  1        1 0.56543666E-01 0.77109228E+02</pdfrwt>
<pdfrwt beam="2">  1       -2 0.62221725E-03 0.77109228E+02</pdfrwt>
<totfact> 0.20621865E+05</totfact>
</mgrwt>
</event>
<event>
 8    1  0.1372337E-020  0.8055912E+02  0.7818608E-02  0.1327472E+00
          1   -1    0    0  501    0  0.00000000000E+00  0.00000000000E+00  0.28407890575E+02  0.28407891022E+02  0.50400000000E-02 0. -1.
         -2   -1    0    0    0  501 -0.00000000000E+00 -0.00000000000E+00 -0.57112405322E+02  0.57112405379E+02  0.25500000000E-02 0.  1.
        -24    2    1    2    0    0  0.00000000000E+00  0.00000000000E+00 -0.28704514747E+02  0.85520296401E+02  0.80559120710E+02 0.  0.
         66    2    3    3    0    0 -0.23891297099E+02 -0.21676344606E+02 -0.39922565067E+02  0.51366031520E+02  0.20000000326E+01 0.  0.
         13    1    3    3    0    0  0.23891297099E+02  0.21676344606E+02  0.11218050319E+02  0.34154264881E+02  0.10566000000E+00 0. -1.
         13    1    4    4    0    0 -0.91421799074E+01 -0.80920793619E+01 -0.15761688500E+02  0.19937482044E+02  0.10566000000E+00 0. -1.
        -13    1    4    4    0    0 -0.11514493601E+01 -0.14928887753E+01 -0.26472251371E+01  0.32516945561E+01  0.10566000000E+00 0.  1.
        -14    1    4    4    0    0 -0.13597667831E+02 -0.12091376469E+02 -0.21513651429E+02  0.28176854920E+02  0.00000000000E+00 0.  1.
<mgrwt>
<rscale>  0 0.80559121E+02</rscale>
<asrwt>0</asrwt>
<pdfrwt beam="1">  1        1 0.43704448E-02 0.80559121E+02</pdfrwt>
<pdfrwt beam="2">  1       -2 0.87865239E-02 0.80559121E+02</pdfrwt>
<totfact> 0.11738771E+05</totfact>
</mgrwt>
</event>
<event>
 8    1  0.1372337E-020  0.7965750E+02  0.7818608E-02  0.1330026E+00
         -2   -1    0    0    0  501 -0.00000000000E+00  0.00000000000E+00  0.35435407439E+02  0.35435407531E+02  0.25500000000E-02 0.  1.
          1   -1    0    0  501    0  0.00000000000E+00 -0.00000000000E+00 -0.44766786330E+02  0.44766786614E+02  0.50400000000E-02 0. -1.
        -24    2    1    2    0    0  0.00000000000E+00  0.00000000000E+00 -0.93313788906E+01  0.80202194145E+02  0.79657500046E+02 0.  0.
         66    2    3    3    0    0 -0.21962239700E+02  0.30667996600E+02  0.81248919273E+01  0.38637803821E+02  0.20000067854E+01 0.  0.
         13    1    3    3    0    0  0.21962239700E+02 -0.30667996600E+02 -0.17456270818E+02  0.41564390324E+02  0.10566000000E+00 0. -1.
         13    1    4    4    0    0 -0.21012710283E+01  0.34933168581E+01  0.79764376168E+00  0.41552379248E+01  0.10566000000E+00 0. -1.
        -13    1    4    4    0    0 -0.10236616698E+02  0.15162592474E+02  0.43539822909E+01  0.18805872960E+02  0.10566000000E+00 0.  1.
        -14    1    4    4    0    0 -0.96243519738E+01  0.12012087268E+02  0.29732658746E+01  0.15676692936E+02  0.00000000000E+00 0.  1.
<mgrwt>
<rscale>  0 0.79657500E+02</rscale>
<asrwt>0</asrwt>
<pdfrwt beam="1">  1        1 0.68871979E-02 0.79657500E+02</pdfrwt>
<pdfrwt beam="2">  1       -2 0.54516012E-02 0.79657500E+02</pdfrwt>
<totfact> 0.13085293E+05</totfact>
</mgrwt>
</event>
<event>
 8    1  0.1372337E-020  0.7924987E+02  0.7818608E-02  0.1331194E+00
         -2   -1    0    0    0  501 -0.00000000000E+00  0.00000000000E+00  0.12296695184E+03  0.12296695187E+03  0.25500000000E-02 0.  1.
          1   -1    0    0  501    0  0.00000000000E+00 -0.00000000000E+00 -0.12768759039E+02  0.12768760033E+02  0.50400000000E-02 0. -1.
        -24    2    1    2    0    0 -0.35527136788E-14  0.00000000000E+00  0.11019819280E+03  0.13573571190E+03  0.79249869326E+02 0.  0.
         66    2    3    3    0    0 -0.16713037396E+02  0.35413010060E+02  0.65226803036E+02  0.76104814187E+02  0.20000019021E+01 0.  0.
         13    1    3    3    0    0  0.16713037396E+02 -0.35413010060E+02  0.44971389765E+02  0.59630897712E+02  0.10566000000E+00 0. -1.
         13    1    4    4    0    0 -0.54636791165E+01  0.10291988998E+02  0.18332594458E+02  0.21722615188E+02  0.10566000000E+00 0. -1.
        -13    1    4    4    0    0 -0.54261760586E+01  0.12551268595E+02  0.24056413932E+02  0.27671283766E+02  0.10566000000E+00 0.  1.
        -14    1    4    4    0    0 -0.58231822212E+01  0.12569752467E+02  0.22837794646E+02  0.26710915233E+02  0.00000000000E+00 0.  1.
<mgrwt>
<rscale>  0 0.79249869E+02</rscale>
<asrwt>0</asrwt>
<pdfrwt beam="1">  1        1 0.19644246E-02 0.79249869E+02</pdfrwt>
<pdfrwt beam="2">  1       -2 0.18917992E-01 0.79249869E+02</pdfrwt>
<totfact> 0.10290761E+05</totfact>
</mgrwt>
</event>
<event>
 8    1  0.1372337E-020  0.7875737E+02  0.7818608E-02  0.1332615E+00
          1   -1    0    0  501    0  0.00000000000E+00  0.00000000000E+00  0.32086086839E+02  0.32086087235E+02  0.50400000000E-02 0. -1.
         -2   -1    0    0    0  501 -0.00000000000E+00 -0.00000000000E+00 -0.48328763585E+02  0.48328763653E+02  0.25500000000E-02 0.  1.
        -24    2    1    2    0    0  0.44408920985E-15  0.35527136788E-14 -0.16242676746E+02  0.80414850888E+02  0.78757372324E+02 0.  0.
         66    2    3    3    0    0  0.25153671305E+01  0.23537934754E+02 -0.40225644799E+02  0.46716848500E+02  0.19999974901E+01 0.  0.
         13    1    3    3    0    0 -0.25153671305E+01 -0.23537934754E+02  0.23982968053E+02  0.33698002388E+02  0.10566000000E+00 0. -1.
         13    1    4    4    0    0  0.56118998508E+00  0.74853408665E+01 -0.12278994660E+02  0.14392016397E+02  0.10566000000E+00 0.  1.
        -13    1    4    4    0    0  0.57735863012E-01  0.21425175996E+00 -0.81672590761E+00  0.85290239200E+00  0.10566000000E+00 0. -1.
        -14    1    4    4    0    0  0.18964412824E+01  0.15838342127E+02 -0.27129924232E+02  0.31471929710E+02  0.00000000000E+00 0.  1.
<mgrwt>
<rscale>  0 0.78757372E+02</rscale>
<asrwt>0</asrwt>
<pdfrwt beam="1">  1        1 0.49363211E-02 0.78757372E+02</pdfrwt>
<pdfrwt beam="2">  1       -2 0.74351944E-02 0.78757372E+02</pdfrwt>
<totfact> 0.12797256E+05</totfact>
</mgrwt>
</event>
<event>
 8    1  0.1372337E-020  0.7787408E+02  0.7818608E-02  0.1335195E+00
          1   -1    0    0  501    0  0.00000000000E+00  0.00000000000E+00  0.26214873252E+02  0.26214873736E+02  0.50400000000E-02 0. -1.
         -2   -1    0    0    0  501 -0.00000000000E+00 -0.00000000000E+00 -0.57833314943E+02  0.57833315000E+02  0.25500000000E-02 0.  1.
        -24    2    1    2    0    0  0.35527136788E-14 -0.35527136788E-14 -0.31618441691E+02  0.84048188736E+02  0.77874078966E+02 0.  0.
         66    2    3    3    0    0 -0.30509217242E+02  0.22496376354E+02 -0.25301897027E+02  0.45618913615E+02  0.20000001338E+01 0.  0.
         13    1    3    3    0    0  0.30509217242E+02 -0.22496376354E+02 -0.63165446643E+01  0.38429275120E+02  0.10566000000E+00 0. -1.
         13    1    4    4    0    0 -0.18920265554E+02  0.13780858799E+02 -0.16243302484E+02  0.28491131208E+02  0.10566000000E+00 0. -1.
        -13    1    4    4    0    0 -0.10397482201E+02  0.80959562103E+01 -0.84404000660E+01  0.15649398084E+02  0.10566000000E+00 0.  1.
         14    1    4    4    0    0 -0.11914694868E+01  0.61956134447E+00 -0.61819447668E+00  0.14783843237E+01  0.00000000000E+00 0. -1.
<mgrwt>
<rscale>  0 0.77874079E+02</rscale>
<asrwt>0</asrwt>
<pdfrwt beam="1">  1        1 0.40330575E-02 0.77874079E+02</pdfrwt>
<pdfrwt beam="2">  1       -2 0.88974331E-02 0.77874079E+02</pdfrwt>
<totfact> 0.12758906E+05</totfact>
</mgrwt>
</event>
<event>
 8    1  0.1372337E-020  0.8134003E+02  0.7818608E-02  0.1325291E+00
          1   -1    0    0  501    0  0.00000000000E+00  0.00000000000E+00  0.77535388845E+02  0.77535389009E+02  0.50400000000E-02 0. -1.
         -2   -1    0    0    0  501 -0.00000000000E+00 -0.00000000000E+00 -0.21332840626E+02  0.21332840778E+02  0.25500000000E-02 0.  1.
        -24    2    1    2    0    0  0.00000000000E+00  0.00000000000E+00  0.56202548220E+02  0.98868229788E+02  0.81340029721E+02 0.  0.
         66    2    3    3    0    0 -0.18366682885E+02  0.22906240922E+02 -0.60458759145E+01  0.30043028120E+02  0.20000024114E+01 0.  0.
         13    1    3    3    0    0  0.18366682885E+02 -0.22906240922E+02  0.62248424134E+02  0.68825201668E+02  0.10566000000E+00 0. -1.
         13    1    4    4    0    0 -0.55468051204E+01  0.72262809520E+01 -0.10268873344E+01  0.91679793343E+01  0.10566000000E+00 0. -1.
        -13    1    4    4    0    0 -0.82003757620E+01  0.10325913355E+02 -0.34836692498E+01  0.13638832968E+02  0.10566000000E+00 0.  1.
        -14    1    4    4    0    0 -0.46195020027E+01  0.53540466156E+01 -0.15353193303E+01  0.72362158177E+01  0.00000000000E+00 0.  1.
<mgrwt>
<rscale>  0 0.81340030E+02</rscale>
<asrwt>0</asrwt>
<pdfrwt beam="1">  1        1 0.11928521E-01 0.81340030E+02</pdfrwt>
<pdfrwt beam="2">  1       -2 0.32819755E-02 0.81340030E+02</pdfrwt>
<totfact> 0.13473161E+05</totfact>
</mgrwt>
</event>
<event>
 8    1  0.1372337E-020  0.7876887E+02  0.7818608E-02  0.1332582E+00
         -2   -1    0    0    0  501 -0.00000000000E+00  0.00000000000E+00  0.95492908457E+01  0.95492911862E+01  0.25500000000E-02 0.  1.
          1   -1    0    0  501    0  0.00000000000E+00 -0.00000000000E+00 -0.16243444506E+03  0.16243444513E+03  0.50400000000E-02 0. -1.
        -24    2    1    2    0    0 -0.71054273576E-14  0.00000000000E+00 -0.15288515421E+03  0.17198373632E+03  0.78768871903E+02 0.  0.
         66    2    3    3    0    0  0.39300755408E+02  0.14662985729E+01 -0.79894918703E+02  0.89072427981E+02  0.19999961749E+01 0.  0.
         13    1    3    3    0    0 -0.39300755408E+02 -0.14662985729E+01 -0.72990235508E+02  0.82911308340E+02  0.10566000000E+00 0. -1.
         13    1    4    4    0    0  0.12947053998E+02  0.42903689383E+00 -0.24467343992E+02  0.27685237329E+02  0.10566000000E+00 0.  1.
        -13    1    4    4    0    0  0.80020926245E+01  0.60660245461E+00 -0.16463669513E+02  0.18315704485E+02  0.10566000000E+00 0. -1.
        -14    1    4    4    0    0  0.18351608785E+02  0.43065922449E+00 -0.38963905198E+02  0.43071486167E+02  0.00000000000E+00 0.  1.
<mgrwt>
<rscale>  0 0.78768872E+02</rscale>
<asrwt>0</asrwt>
<pdfrwt beam="1">  1        1 0.24989913E-01 0.78768872E+02</pdfrwt>
<pdfrwt beam="2">  1       -2 0.14691218E-02 0.78768872E+02</pdfrwt>
<totfact> 0.16700093E+05</totfact>
</mgrwt>
</event>
<event>
 8    1  0.1372337E-020  0.7788843E+02  0.7818608E-02  0.1335153E+00
         -2   -1    0    0    0  501 -0.00000000000E+00  0.00000000000E+00  0.58446945335E+02  0.58446945391E+02  0.25500000000E-02 0.  1.
          1   -1    0    0  501    0  0.00000000000E+00 -0.00000000000E+00 -0.25949207091E+02  0.25949207581E+02  0.50400000000E-02 0. -1.
        -24    2    1    2    0    0 -0.35527136788E-14  0.00000000000E+00  0.32497738244E+02  0.84396152972E+02  0.77888430755E+02 0.  0.
         66    2    3    3    0    0  0.19642938015E+02  0.33596324228E+02  0.16582752486E+02  0.42350273849E+02  0.19999998994E+01 0.  0.
         13    1    3    3    0    0 -0.19642938015E+02 -0.33596324228E+02  0.15914985758E+02  0.42045879123E+02  0.10566000000E+00 0. -1.
         13    1    4    4    0    0  0.13371026103E+02  0.21545747570E+02  0.11053414696E+02  0.27662117017E+02  0.10566000000E+00 0. -1.
        -13    1    4    4    0    0  0.56586773968E+01  0.10946649254E+02  0.52494805032E+01  0.13394699301E+02  0.10566000000E+00 0.  1.
         14    1    4    4    0    0  0.61323451570E+00  0.11039274038E+01  0.27985728688E+00  0.12934575313E+01  0.00000000000E+00 0. -1.
<mgrwt>
<rscale>  0 0.77888431E+02</rscale>
<asrwt>0</asrwt>
<pdfrwt beam="1">  1        1 0.39921858E-02 0.77888431E+02</pdfrwt>
<pdfrwt beam="2">  1       -2 0.89918376E-02 0.77888431E+02</pdfrwt>
<totfact> 0.12728511E+05</totfact>
</mgrwt>
</event>
<event>
 8    1  0.1372337E-020  0.7717370E+02  0.7818608E-02  0.1337269E+00
         -2   -1    0    0    0  501 -0.00000000000E+00  0.00000000000E+00  0.26919386827E+01  0.26919398905E+01  0.25500000000E-02 0.  1.
          1   -1    0    0  501    0  0.00000000000E+00 -0.00000000000E+00 -0.55311241892E+03  0.55311241895E+03  0.50400000000E-02 0. -1.
        -24    2    1    2    0    0  0.00000000000E+00  0.00000000000E+00 -0.55042048024E+03  0.55580435884E+03  0.77173701697E+02 0.  0.
         66    2    3    3    0    0 -0.16188230229E+02 -0.28164251324E+02 -0.42502558630E+03  0.42626990612E+03  0.20000004823E+01 0.  0.
         13    1    3    3    0    0  0.16188230229E+02  0.28164251324E+02 -0.12539489394E+03  0.12953445271E+03  0.10566000000E+00 0. -1.
         13    1    4    4    0    0 -0.55783917929E+00 -0.16301065005E+01 -0.26090659764E+02  0.26147698230E+02  0.10566000000E+00 0. -1.
        -13    1    4    4    0    0 -0.14668802240E+02 -0.25154824391E+02 -0.37733751207E+03  0.37845944053E+03  0.10566000000E+00 0.  1.
         14    1    4    4    0    0 -0.96158880953E+00 -0.13793204328E+01 -0.21597414471E+02  0.21662767361E+02  0.00000000000E+00 0. -1.
<mgrwt>
<rscale>  0 0.77173702E+02</rscale>
<asrwt>0</asrwt>
<pdfrwt beam="1">  1        1 0.85094128E-01 0.77173702E+02</pdfrwt>
<pdfrwt beam="2">  1       -2 0.41414495E-03 0.77173702E+02</pdfrwt>
<totfact> 0.21767802E+05</totfact>
</mgrwt>
</event>
<event>
 8    1  0.1372337E-020  0.8095463E+02  0.7818608E-02  0.1326364E+00
         -2   -1    0    0    0  501 -0.00000000000E+00  0.00000000000E+00  0.15839023196E+02  0.15839023401E+02  0.25500000000E-02 0.  1.
          1   -1    0    0  501    0  0.00000000000E+00 -0.00000000000E+00 -0.10344154596E+03  0.10344154609E+03  0.50400000000E-02 0. -1.
        -24    2    1    2    0    0  0.00000000000E+00 -0.35527136788E-14 -0.87602522768E+02  0.11928056949E+03  0.80954630887E+02 0.  0.
         66    2    3    3    0    0  0.20223775265E+02  0.24276833560E+02 -0.66099438226E+01  0.32342805876E+02  0.20000002329E+01 0.  0.
         13    1    3    3    0    0 -0.20223775265E+02 -0.24276833560E+02 -0.80992578946E+02  0.86937763612E+02  0.10566000000E+00 0. -1.
         13    1    4    4    0    0  0.28399235177E+01  0.28360765904E+01 -0.12077002802E+01  0.41926364040E+01  0.10566000000E+00 0. -1.
        -13    1    4    4    0    0  0.95441098507E+01  0.11353913294E+02 -0.23829128575E+01  0.15023009607E+02  0.10566000000E+00 0.  1.
         14    1    4    4    0    0  0.78397418964E+01  0.10086843675E+02 -0.30193306849E+01  0.13127159865E+02  0.00000000000E+00 0. -1.
<mgrwt>
<rscale>  0 0.80954631E+02</rscale>
<asrwt>0</asrwt>
<pdfrwt beam="1">  1        1 0.15914084E-01 0.80954631E+02</pdfrwt>
<pdfrwt beam="2">  1       -2 0.24367729E-02 0.80954631E+02</pdfrwt>
<totfact> 0.14317026E+05</totfact>
</mgrwt>
</event>
<event>
 8    1  0.1372337E-020  0.7955984E+02  0.7818608E-02  0.1330305E+00
          1   -1    0    0  501    0  0.00000000000E+00  0.00000000000E+00  0.15091344355E+02  0.15091345196E+02  0.50400000000E-02 0. -1.
         -2   -1    0    0    0  501 -0.00000000000E+00 -0.00000000000E+00 -0.10485758040E+03  0.10485758043E+03  0.25500000000E-02 0.  1.
        -24    2    1    2    0    0  0.88817841970E-15  0.00000000000E+00 -0.89766236044E+02  0.11994892563E+03  0.79559836760E+02 0.  0.
         66    2    3    3    0    0  0.47666804882E+01  0.98997904997E+01 -0.10251316157E+03  0.10311971385E+03  0.19999985841E+01 0.  0.
         13    1    3    3    0    0 -0.47666804882E+01 -0.98997904997E+01  0.12746925523E+02  0.16829211780E+02  0.10566000000E+00 0. -1.
         13    1    4    4    0    0  0.78626192319E+00  0.17372145011E+01 -0.14641715109E+02  0.14765741004E+02  0.10566000000E+00 0.  1.
        -13    1    4    4    0    0  0.38553094117E+01  0.81015740212E+01 -0.83577163615E+02  0.84057434854E+02  0.10566000000E+00 0.  1.
        -14    1    4    4    0    0  0.12510915335E+00  0.61001977458E-01 -0.42942828432E+01  0.42965379876E+01  0.00000000000E+00 0.  1.
<mgrwt>
<rscale>  0 0.79559837E+02</rscale>
<asrwt>0</asrwt>
<pdfrwt beam="1">  1        1 0.23217454E-02 0.79559837E+02</pdfrwt>
<pdfrwt beam="2">  1       -2 0.16131935E-01 0.79559837E+02</pdfrwt>
<totfact> 0.10635850E+05</totfact>
</mgrwt>
</event>
<event>
 8    1  0.1372337E-020  0.7926984E+02  0.7818608E-02  0.1331136E+00
         -2   -1    0    0    0  501 -0.00000000000E+00  0.00000000000E+00  0.25310486068E+02  0.25310486197E+02  0.25500000000E-02 0.  1.
          1   -1    0    0  501    0  0.00000000000E+00 -0.00000000000E+00 -0.62066242303E+02  0.62066242508E+02  0.50400000000E-02 0. -1.
        -24    2    1    2    0    0  0.00000000000E+00  0.35527136788E-14 -0.36755756235E+02  0.87376728705E+02  0.79269837282E+02 0.  0.
         66    2    3    3    0    0 -0.17738710917E+02  0.27794860132E+02  0.58028423639E+01  0.33539366274E+02  0.19999989392E+01 0.  0.
         13    1    3    3    0    0  0.17738710917E+02 -0.27794860132E+02 -0.42558598599E+02  0.53837362431E+02  0.10566000000E+00 0. -1.
         13    1    4    4    0    0 -0.17150866426E+01  0.37649087214E+01  0.51630754043E+00  0.41705871750E+01  0.10566000000E+00 0. -1.
        -13    1    4    4    0    0 -0.23385728842E+01  0.31736868256E+01  0.68599858875E+00  0.40028701329E+01  0.10566000000E+00 0.  1.
        -14    1    4    4    0    0 -0.13685051391E+02  0.20856264585E+02  0.46005362347E+01  0.25365908966E+02  0.00000000000E+00 0.  1.
<mgrwt>
<rscale>  0 0.79269837E+02</rscale>
<asrwt>0</asrwt>
<pdfrwt beam="1">  1        1 0.95486527E-02 0.79269837E+02</pdfrwt>
<pdfrwt beam="2">  1       -2 0.38939210E-02 0.79269837E+02</pdfrwt>
<totfact> 0.13958024E+05</totfact>
</mgrwt>
</event>
<event>
 8    1  0.1372337E-020  0.8081566E+02  0.7818608E-02  0.1326753E+00
          1   -1    0    0  501    0  0.00000000000E+00  0.00000000000E+00  0.54132920559E+03  0.54132920561E+03  0.50400000000E-02 0. -1.
         -2   -1    0    0    0  501 -0.00000000000E+00 -0.00000000000E+00 -0.30162651235E+01  0.30162662014E+01  0.25500000000E-02 0.  1.
        -24    2    1    2    0    0  0.88817841970E-15  0.00000000000E+00  0.53831294046E+03  0.54434547181E+03  0.80815659446E+02 0.  0.
         66    2    3    3    0    0  0.69283918177E+01 -0.39534581200E+02  0.29929409506E+03  0.30198003421E+03  0.19999993685E+01 0.  0.
         13    1    3    3    0    0 -0.69283918177E+01  0.39534581200E+02  0.23901884540E+03  0.24236543760E+03  0.10566000000E+00 0. -1.
         13    1    4    4    0    0  0.26561600326E+01 -0.18414566492E+02  0.13741106750E+03  0.13866493458E+03  0.10566000000E+00 0.  1.
        -13    1    4    4    0    0  0.41959029729E+01 -0.19419757273E+02  0.15039565359E+03  0.15170232812E+03  0.10566000000E+00 0. -1.
         14    1    4    4    0    0  0.76328812227E-01 -0.17002574347E+01  0.11487373973E+02  0.11612771514E+02  0.00000000000E+00 0. -1.
<mgrwt>
<rscale>  0 0.80815659E+02</rscale>
<asrwt>0</asrwt>
<pdfrwt beam="1">  1        1 0.83281403E-01 0.80815659E+02</pdfrwt>
<pdfrwt beam="2">  1       -2 0.46404095E-03 0.80815659E+02</pdfrwt>
<totfact> 0.19257146E+05</totfact>
</mgrwt>
</event>
<event>
 8    1  0.1372337E-020  0.7993039E+02  0.7818608E-02  0.1329249E+00
         -2   -1    0    0    0  501 -0.00000000000E+00  0.00000000000E+00  0.37763174294E+02  0.37763174380E+02  0.25500000000E-02 0.  1.
          1   -1    0    0  501    0  0.00000000000E+00 -0.00000000000E+00 -0.42295622570E+02  0.42295622870E+02  0.50400000000E-02 0. -1.
        -24    2    1    2    0    0  0.00000000000E+00  0.00000000000E+00 -0.45324482755E+01  0.80058797250E+02  0.79930394280E+02 0.  0.
         66    2    3    3    0    0  0.15547881723E+02 -0.23116025062E+02  0.26398693812E+02  0.38431475025E+02  0.19999992333E+01 0.  0.
         13    1    3    3    0    0 -0.15547881723E+02  0.23116025062E+02 -0.30931142087E+02  0.41627322225E+02  0.10566000000E+00 0. -1.
         13    1    4    4    0    0  0.73997790648E+00 -0.80926550330E+00  0.10966661513E+01  0.15544512343E+01  0.10566000000E+00 0. -1.
        -13    1    4    4    0    0  0.59511169365E+01 -0.79166432987E+01  0.85760769924E+01  0.13101499705E+02  0.10566000000E+00 0.  1.
        -14    1    4    4    0    0  0.88567868804E+01 -0.14390116260E+02  0.16725950668E+02  0.23775524086E+02  0.00000000000E+00 0.  1.
<mgrwt>
<rscale>  0 0.79930394E+02</rscale>
<asrwt>0</asrwt>
<pdfrwt beam="1">  1        1 0.65070189E-02 0.79930394E+02</pdfrwt>
<pdfrwt beam="2">  1       -2 0.58097191E-02 0.79930394E+02</pdfrwt>
<totfact> 0.12843774E+05</totfact>
</mgrwt>
</event>
<event>
 8    1  0.1372337E-020  0.7908521E+02  0.7818608E-02  0.1331668E+00
          1   -1    0    0  501    0  0.00000000000E+00  0.00000000000E+00  0.84274055760E+02  0.84274055911E+02  0.50400000000E-02 0. -1.
         -2   -1    0    0    0  501 -0.00000000000E+00 -0.00000000000E+00 -0.18553961944E+02  0.18553962120E+02  0.25500000000E-02 0.  1.
        -24    2    1    2    0    0  0.00000000000E+00 -0.35527136788E-14  0.65720093816E+02  0.10282801803E+03  0.79085210760E+02 0.  0.
         66    2    3    3    0    0 -0.53718410755E+00 -0.20374754977E+02 -0.11138501405E+02  0.23312774017E+02  0.20000029102E+01 0.  0.
         13    1    3    3    0    0  0.53718410755E+00  0.20374754977E+02  0.76858595221E+02  0.79515244014E+02  0.10566000000E+00 0. -1.
         13    1    4    4    0    0  0.25490433334E+00 -0.44225386312E+01 -0.28708718750E+01  0.52798573392E+01  0.10566000000E+00 0. -1.
        -13    1    4    4    0    0 -0.49966672147E-01 -0.10522914453E+02 -0.58877472007E+01  0.12058646540E+02  0.10566000000E+00 0.  1.
        -14    1    4    4    0    0 -0.74212176874E+00 -0.54293018933E+01 -0.23798823297E+01  0.59742701371E+01  0.00000000000E+00 0.  1.
<mgrwt>
<rscale>  0 0.79085211E+02</rscale>
<asrwt>0</asrwt>
<pdfrwt beam="1">  1        1 0.12965239E-01 0.79085211E+02</pdfrwt>
<pdfrwt beam="2">  1       -2 0.28544557E-02 0.79085211E+02</pdfrwt>
<totfact> 0.14742654E+05</totfact>
</mgrwt>
</event>
<event>
 8    1  0.1372337E-020  0.8828900E+02  0.7818608E-02  0.1307049E+00
          1   -1    0    0  501    0  0.00000000000E+00  0.00000000000E+00  0.46067843966E+02  0.46067844241E+02  0.50400000000E-02 0. -1.
         -2   -1    0    0    0  501 -0.00000000000E+00 -0.00000000000E+00 -0.42301457347E+02  0.42301457424E+02  0.25500000000E-02 0.  1.
        -24    2    1    2    0    0  0.00000000000E+00 -0.35527136788E-14  0.37663866185E+01  0.88369301666E+02  0.88289001629E+02 0.  0.
         66    2    3    3    0    0 -0.82839873858E+01  0.19497470248E+02 -0.36854481952E+02  0.42556182141E+02  0.20000013363E+01 0.  0.
         13    1    3    3    0    0  0.82839873858E+01 -0.19497470248E+02  0.40620868571E+02  0.45813119525E+02  0.10566000000E+00 0. -1.
         13    1    4    4    0    0 -0.18949218073E+01  0.33078040478E+01 -0.57769673713E+01  0.69221970731E+01  0.10566000000E+00 0. -1.
        -13    1    4    4    0    0 -0.46177599207E-01  0.39790144518E+00 -0.65174659728E+00  0.77226653003E+00  0.10566000000E+00 0.  1.
        -14    1    4    4    0    0 -0.63428879793E+01  0.15791764755E+02 -0.30425767984E+02  0.34861718538E+02  0.00000000000E+00 0.  1.
<mgrwt>
<rscale>  0 0.88289002E+02</rscale>
<asrwt>0</asrwt>
<pdfrwt beam="1">  1        1 0.70873607E-02 0.88289002E+02</pdfrwt>
<pdfrwt beam="2">  1       -2 0.65079165E-02 0.88289002E+02</pdfrwt>
<totfact> 0.98362683E+04</totfact>
</mgrwt>
</event>
<event>
 8    1  0.1372337E-020  0.7938945E+02  0.7818608E-02  0.1330793E+00
          1   -1    0    0  501    0  0.00000000000E+00  0.00000000000E+00  0.17054274331E+03  0.17054274338E+03  0.50400000000E-02 0. -1.
         -2   -1    0    0    0  501 -0.00000000000E+00 -0.00000000000E+00 -0.92391568172E+01  0.92391571691E+01  0.25500000000E-02 0.  1.
        -24    2    1    2    0    0  0.00000000000E+00  0.00000000000E+00  0.16130358649E+03  0.17978190055E+03  0.79389449874E+02 0.  0.
         66    2    3    3    0    0 -0.12756726014E+02 -0.36287489670E+02  0.58729602211E+02  0.70233055829E+02  0.19999975164E+01 0.  0.
         13    1    3    3    0    0  0.12756726014E+02  0.36287489670E+02  0.10257398428E+03  0.10954884473E+03  0.10566000000E+00 0. -1.
         13    1    4    4    0    0 -0.58729532444E+01 -0.17033904495E+02  0.28769191763E+02  0.33945884005E+02  0.10566000000E+00 0. -1.
        -13    1    4    4    0    0 -0.72395383044E+00 -0.30836710951E+01  0.46326814946E+01  0.56130240012E+01  0.10566000000E+00 0.  1.
        -14    1    4    4    0    0 -0.61598189387E+01 -0.16169914080E+02  0.25327728954E+02  0.30674147823E+02  0.00000000000E+00 0.  1.
<mgrwt>
<rscale>  0 0.79389450E+02</rscale>
<asrwt>0</asrwt>
<pdfrwt beam="1">  1        1 0.26237343E-01 0.79389450E+02</pdfrwt>
<pdfrwt beam="2">  1       -2 0.14214089E-02 0.79389450E+02</pdfrwt>
<totfact> 0.16504886E+05</totfact>
</mgrwt>
</event>
<event>
 8    1  0.1372337E-020  0.7911044E+02  0.7818608E-02  0.1331595E+00
         -2   -1    0    0    0  501 -0.00000000000E+00  0.00000000000E+00  0.84575918576E+02  0.84575918615E+02  0.25500000000E-02 0.  1.
          1   -1    0    0  501    0  0.00000000000E+00 -0.00000000000E+00 -0.18499539730E+02  0.18499540416E+02  0.50400000000E-02 0. -1.
        -24    2    1    2    0    0  0.00000000000E+00 -0.71054273576E-14  0.66076378847E+02  0.10307545903E+03  0.79110444399E+02 0.  0.
         66    2    3    3    0    0  0.10120261035E+02  0.36012006051E+02  0.16407889532E+02  0.40896248212E+02  0.20000039207E+01 0.  0.
         13    1    3    3    0    0 -0.10120261035E+02 -0.36012006051E+02  0.49668489315E+02  0.62179210819E+02  0.10566000000E+00 0. -1.
         13    1    4    4    0    0  0.12172678916E+01  0.47896568135E+01  0.21101160454E+01  0.53745983358E+01  0.10566000000E+00 0. -1.
        -13    1    4    4    0    0  0.58760457419E+01  0.23383428900E+02  0.10377160653E+02  0.26248986418E+02  0.10566000000E+00 0.  1.
         14    1    4    4    0    0  0.30269474012E+01  0.78389203374E+01  0.39206128330E+01  0.92726634584E+01  0.00000000000E+00 0. -1.
<mgrwt>
<rscale>  0 0.79110444E+02</rscale>
<asrwt>0</asrwt>
<pdfrwt beam="1">  1        1 0.28460831E-02 0.79110444E+02</pdfrwt>
<pdfrwt beam="2">  1       -2 0.13011680E-01 0.79110444E+02</pdfrwt>
<totfact> 0.11359729E+05</totfact>
</mgrwt>
</event>
<event>
 8    1  0.1372337E-020  0.8013284E+02  0.7818608E-02  0.1328675E+00
         -2   -1    0    0    0  501 -0.00000000000E+00  0.00000000000E+00  0.69114847869E+02  0.69114847916E+02  0.25500000000E-02 0.  1.
          1   -1    0    0  501    0  0.00000000000E+00 -0.00000000000E+00 -0.23226816447E+02  0.23226816994E+02  0.50400000000E-02 0. -1.
        -24    2    1    2    0    0  0.35527136788E-14  0.00000000000E+00  0.45888031422E+02  0.92341664909E+02  0.80132837529E+02 0.  0.
         66    2    3    3    0    0  0.22251614927E+02 -0.17194198172E+02  0.55806277590E+02  0.62522919317E+02  0.20000009734E+01 0.  0.
         13    1    3    3    0    0 -0.22251614927E+02  0.17194198172E+02 -0.99182461680E+01  0.29818745592E+02  0.10566000000E+00 0. -1.
         13    1    4    4    0    0  0.25338856240E+01 -0.22119969982E+01  0.74189847206E+01  0.81465333361E+01  0.10566000000E+00 0. -1.
        -13    1    4    4    0    0  0.39026410672E+01 -0.35532671314E+01  0.11147322388E+02  0.12334110226E+02  0.10566000000E+00 0.  1.
        -14    1    4    4    0    0  0.15815088235E+02 -0.11428934042E+02  0.37239970481E+02  0.42042275755E+02  0.00000000000E+00 0.  1.
<mgrwt>
<rscale>  0 0.80132838E+02</rscale>
<asrwt>0</asrwt>
<pdfrwt beam="1">  1        1 0.35733565E-02 0.80132838E+02</pdfrwt>
<pdfrwt beam="2">  1       -2 0.10633053E-01 0.80132838E+02</pdfrwt>
<totfact> 0.11472010E+05</totfact>
</mgrwt>
</event>
<event>
 8    1  0.1372337E-020  0.7828386E+02  0.7818608E-02  0.1333993E+00
          1   -1    0    0  501    0  0.00000000000E+00  0.00000000000E+00  0.98751623315E+01  0.98751636176E+01  0.50400000000E-02 0. -1.
         -2   -1    0    0    0  501 -0.00000000000E+00 -0.00000000000E+00 -0.15514585036E+03  0.15514585038E+03  0.25500000000E-02 0.  1.
        -24    2    1    2    0    0 -0.35527136788E-14 -0.22204460493E-15 -0.14527068802E+03  0.16502101399E+03  0.78283856961E+02 0.  0.
         66    2    3    3    0    0 -0.16148145067E+02 -0.13982213271E+01 -0.14772704159E+03  0.14862703800E+03  0.19999991390E+01 0.  0.
         13    1    3    3    0    0  0.16148145067E+02  0.13982213271E+01  0.24563535642E+01  0.16393975993E+02  0.10566000000E+00 0. -1.
         13    1    4    4    0    0 -0.93082295539E+00 -0.30453128836E+00 -0.74553441162E+01  0.75201390018E+01  0.10566000000E+00 0.  1.
        -13    1    4    4    0    0 -0.52468964425E+01  0.21267230650E+00 -0.44599024050E+02  0.44907229508E+02  0.10566000000E+00 0.  1.
        -14    1    4    4    0    0 -0.99704256694E+01 -0.13063623453E+01 -0.95672673421E+02  0.96199669491E+02  0.00000000000E+00 0.  1.
<mgrwt>
<rscale>  0 0.78283857E+02</rscale>
<asrwt>0</asrwt>
<pdfrwt beam="1">  1        1 0.15192560E-02 0.78283857E+02</pdfrwt>
<pdfrwt beam="2">  1       -2 0.23868590E-01 0.78283857E+02</pdfrwt>
<totfact> 0.98818567E+04</totfact>
</mgrwt>
</event>
<event>
 8    1  0.1372337E-020  0.8048728E+02  0.7818608E-02  0.1327674E+00
          1   -1    0    0  501    0  0.00000000000E+00  0.00000000000E+00  0.17778335970E+03  0.17778335977E+03  0.50400000000E-02 0. -1.
         -2   -1    0    0    0  501 -0.00000000000E+00 -0.00000000000E+00 -0.91096864435E+01  0.91096868004E+01  0.25500000000E-02 0.  1.
        -24    2    1    2    0    0  0.00000000000E+00  0.71054273576E-14  0.16867367325E+03  0.18689304657E+03  0.80487283511E+02 0.  0.
         66    2    3    3    0    0  0.18088416695E+02 -0.31047779995E+02  0.42438519393E+02  0.55643358206E+02  0.19999807646E+01 0.  0.
         13    1    3    3    0    0 -0.18088416695E+02  0.31047779995E+02  0.12623515386E+03  0.13124968836E+03  0.10566000000E+00 0. -1.
         13    1    4    4    0    0  0.69440129970E+01 -0.11963151924E+02  0.16398068805E+02  0.21453301495E+02  0.10566000000E+00 0. -1.
        -13    1    4    4    0    0  0.11062436082E+02 -0.18547965575E+02  0.25184001509E+02  0.33176039774E+02  0.10566000000E+00 0.  1.
         14    1    4    4    0    0  0.81967615835E-01 -0.53666249625E+00  0.85644907917E+00  0.10140169378E+01  0.00000000000E+00 0. -1.
<mgrwt>
<rscale>  0 0.80487284E+02</rscale>
<asrwt>0</asrwt>
<pdfrwt beam="1">  1        1 0.27351285E-01 0.80487284E+02</pdfrwt>
<pdfrwt beam="2">  1       -2 0.14014903E-02 0.80487284E+02</pdfrwt>
<totfact> 0.16038260E+05</totfact>
</mgrwt>
</event>
<event>
 8    1  0.1372337E-020  0.7889570E+02  0.7818608E-02  0.1332215E+00
          1   -1    0    0  501    0  0.00000000000E+00  0.00000000000E+00  0.88647253569E+02  0.88647253712E+02  0.50400000000E-02 0. -1.
         -2   -1    0    0    0  501 -0.00000000000E+00 -0.00000000000E+00 -0.17554214252E+02  0.17554214437E+02  0.25500000000E-02 0.  1.
        -24    2    1    2    0    0  0.00000000000E+00  0.00000000000E+00  0.71093039317E+02  0.10620146815E+03  0.78895700755E+02 0.  0.
         66    2    3    3    0    0  0.34966160795E+02  0.57754824934E+00  0.11073169664E+02  0.36736643382E+02  0.19999794664E+01 0.  0.
         13    1    3    3    0    0 -0.34966160795E+02 -0.57754824934E+00  0.60019869653E+02  0.69464824767E+02  0.10566000000E+00 0. -1.
         13    1    4    4    0    0  0.81137623241E+01  0.62188912109E+00  0.21228767048E+01  0.84105680349E+01  0.10566000000E+00 0. -1.
        -13    1    4    4    0    0  0.17955016885E+02  0.25131093529E+00  0.64348097046E+01  0.19075212410E+02  0.10566000000E+00 0.  1.
         14    1    4    4    0    0  0.88973815852E+01 -0.29565180704E+00  0.25154832543E+01  0.92508629363E+01  0.00000000000E+00 0. -1.
<mgrwt>
<rscale>  0 0.78895701E+02</rscale>
<asrwt>0</asrwt>
<pdfrwt beam="1">  1        1 0.13638039E-01 0.78895701E+02</pdfrwt>
<pdfrwt beam="2">  1       -2 0.27006484E-02 0.78895701E+02</pdfrwt>
<totfact> 0.14961074E+05</totfact>
</mgrwt>
</event>
<event>
 8    1  0.1372337E-020  0.8192563E+02  0.7818608E-02  0.1323674E+00
         -2   -1    0    0    0  501 -0.00000000000E+00  0.00000000000E+00  0.36742558921E+02  0.36742559009E+02  0.25500000000E-02 0.  1.
          1   -1    0    0  501    0  0.00000000000E+00 -0.00000000000E+00 -0.45667807488E+02  0.45667807766E+02  0.50400000000E-02 0. -1.
        -24    2    1    2    0    0  0.00000000000E+00  0.00000000000E+00 -0.89252485668E+01  0.82410366775E+02  0.81925627797E+02 0.  0.
         66    2    3    3    0    0 -0.28268002212E+02 -0.28626566250E+02  0.31549597794E+01  0.40404380987E+02  0.19999968528E+01 0.  0.
         13    1    3    3    0    0  0.28268002212E+02  0.28626566250E+02 -0.12080208346E+02  0.42005985788E+02  0.10566000000E+00 0. -1.
         13    1    4    4    0    0 -0.11123553494E+02 -0.12020927893E+02  0.17281952303E+01  0.16469182510E+02  0.10566000000E+00 0. -1.
        -13    1    4    4    0    0 -0.55482370954E+01 -0.58231929653E+01  0.90664170138E-01  0.80443704045E+01  0.10566000000E+00 0.  1.
        -14    1    4    4    0    0 -0.11596211623E+02 -0.10782445391E+02  0.13361003789E+01  0.15890828073E+02  0.00000000000E+00 0.  1.
<mgrwt>
<rscale>  0 0.81925628E+02</rscale>
<asrwt>0</asrwt>
<pdfrwt beam="1">  1        1 0.70258166E-02 0.81925628E+02</pdfrwt>
<pdfrwt beam="2">  1       -2 0.56527014E-02 0.81925628E+02</pdfrwt>
<totfact> 0.12134158E+05</totfact>
</mgrwt>
</event>
<event>
 8    1  0.1372337E-020  0.7955627E+02  0.7818608E-02  0.1330315E+00
         -2   -1    0    0    0  501 -0.00000000000E+00  0.00000000000E+00  0.13310642532E+02  0.13310642776E+02  0.25500000000E-02 0.  1.
          1   -1    0    0  501    0  0.00000000000E+00 -0.00000000000E+00 -0.11887481484E+03  0.11887481494E+03  0.50400000000E-02 0. -1.
        -24    2    1    2    0    0 -0.71054273576E-14 -0.35527136788E-14 -0.10556417230E+03  0.13218545772E+03  0.79556274160E+02 0.  0.
         66    2    3    3    0    0  0.28243639866E+02  0.23623035561E+02 -0.27917595006E+02  0.46250871364E+02  0.19999972422E+01 0.  0.
         13    1    3    3    0    0 -0.28243639866E+02 -0.23623035561E+02 -0.77646577299E+02  0.85934586356E+02  0.10566000000E+00 0. -1.
         13    1    4    4    0    0  0.14992810112E+02  0.12414164179E+02 -0.13766476318E+02  0.23841620363E+02  0.10566000000E+00 0. -1.
        -13    1    4    4    0    0  0.31466571105E+01  0.22763814805E+01 -0.29599841142E+01  0.48842638757E+01  0.10566000000E+00 0.  1.
         14    1    4    4    0    0  0.10104172644E+02  0.89324899012E+01 -0.11191134574E+02  0.17524987125E+02  0.00000000000E+00 0. -1.
<mgrwt>
<rscale>  0 0.79556274E+02</rscale>
<asrwt>0</asrwt>
<pdfrwt beam="1">  1        1 0.18288432E-01 0.79556274E+02</pdfrwt>
<pdfrwt beam="2">  1       -2 0.20477913E-02 0.79556274E+02</pdfrwt>
<totfact> 0.15369463E+05</totfact>
</mgrwt>
</event>
<event>
 8    1  0.1372337E-020  0.8005785E+02  0.7818608E-02  0.1328887E+00
         -2   -1    0    0    0  501 -0.00000000000E+00  0.00000000000E+00  0.25406928161E+02  0.25406928289E+02  0.25500000000E-02 0.  1.
          1   -1    0    0  501    0  0.00000000000E+00 -0.00000000000E+00 -0.63066058659E+02  0.63066058860E+02  0.50400000000E-02 0. -1.
        -24    2    1    2    0    0  0.11102230246E-15  0.00000000000E+00 -0.37659130498E+02  0.88472987149E+02  0.80057849991E+02 0.  0.
         66    2    3    3    0    0  0.96132152146E+00  0.12607982953E+02  0.23100994799E+02  0.26411007134E+02  0.19999909740E+01 0.  0.
         13    1    3    3    0    0 -0.96132152146E+00 -0.12607982953E+02 -0.60760125297E+02  0.62061980015E+02  0.10566000000E+00 0. -1.
         13    1    4    4    0    0 -0.53550541001E+00  0.39226076155E+01  0.77398454648E+01  0.86942503072E+01  0.10566000000E+00 0. -1.
        -13    1    4    4    0    0  0.91938265612E+00  0.64685025714E+01  0.11534845948E+02  0.13257097158E+02  0.10566000000E+00 0.  1.
        -14    1    4    4    0    0  0.57744427535E+00  0.22168727663E+01  0.38263033865E+01  0.44596596685E+01  0.00000000000E+00 0.  1.
<mgrwt>
<rscale>  0 0.80057850E+02</rscale>
<asrwt>0</asrwt>
<pdfrwt beam="1">  1        1 0.97024706E-02 0.80057850E+02</pdfrwt>
<pdfrwt beam="2">  1       -2 0.39087582E-02 0.80057850E+02</pdfrwt>
<totfact> 0.13617503E+05</totfact>
</mgrwt>
</event>
<event>
 8    1  0.1372337E-020  0.8220861E+02  0.7818608E-02  0.1322898E+00
          1   -1    0    0  501    0  0.00000000000E+00  0.00000000000E+00  0.91480699546E+02  0.91480699684E+02  0.50400000000E-02 0. -1.
         -2   -1    0    0    0  501 -0.00000000000E+00 -0.00000000000E+00 -0.18469074423E+02  0.18469074599E+02  0.25500000000E-02 0.  1.
        -24    2    1    2    0    0  0.00000000000E+00  0.00000000000E+00  0.73011625123E+02  0.10994977428E+03  0.82208609415E+02 0.  0.
         66    2    3    3    0    0  0.30127836694E+02 -0.20299788161E+02  0.10877939157E+02  0.37974958973E+02  0.20000013730E+01 0.  0.
         13    1    3    3    0    0 -0.30127836694E+02  0.20299788161E+02  0.62133685966E+02  0.71974815310E+02  0.10566000000E+00 0. -1.
         13    1    4    4    0    0  0.21129265556E+01 -0.16500493954E+01  0.12129364925E+01  0.29444015702E+01  0.10566000000E+00 0. -1.
        -13    1    4    4    0    0  0.22855453247E+02 -0.14788873503E+02  0.76087544080E+01  0.28266355094E+02  0.10566000000E+00 0.  1.
        -14    1    4    4    0    0  0.51594568914E+01 -0.38608652620E+01  0.20562482564E+01  0.67642023090E+01  0.00000000000E+00 0.  1.
<mgrwt>
<rscale>  0 0.82208609E+02</rscale>
<asrwt>0</asrwt>
<pdfrwt beam="1">  1        1 0.14073954E-01 0.82208609E+02</pdfrwt>
<pdfrwt beam="2">  1       -2 0.28413960E-02 0.82208609E+02</pdfrwt>
<totfact> 0.13450238E+05</totfact>
</mgrwt>
</event>
<event>
 8    1  0.1372337E-020  0.7980439E+02  0.7818608E-02  0.1329607E+00
          1   -1    0    0  501    0  0.00000000000E+00  0.00000000000E+00  0.34000327170E+02  0.34000327543E+02  0.50400000000E-02 0. -1.
         -2   -1    0    0    0  501 -0.00000000000E+00 -0.00000000000E+00 -0.46828520692E+02  0.46828520762E+02  0.25500000000E-02 0.  1.
        -24    2    1    2    0    0 -0.17763568394E-14  0.00000000000E+00 -0.12828193522E+02  0.80828848305E+02  0.79804386905E+02 0.  0.
         66    2    3    3    0    0  0.99426370291E+01  0.35494561496E+02  0.89910027658E+01  0.37994184567E+02  0.20000008306E+01 0.  0.
         13    1    3    3    0    0 -0.99426370291E+01 -0.35494561496E+02 -0.21819196288E+02  0.42834663738E+02  0.10566000000E+00 0. -1.
         13    1    4    4    0    0  0.36768970642E+00  0.17428918213E+01  0.81505043847E+00  0.19617183472E+01  0.10566000000E+00 0. -1.
        -13    1    4    4    0    0  0.11261383628E+01  0.37265029591E+01  0.11351663824E+01  0.40564490220E+01  0.10566000000E+00 0.  1.
        -14    1    4    4    0    0  0.84488089598E+01  0.30025166715E+02  0.70407859449E+01  0.31976017198E+02  0.00000000000E+00 0.  1.
<mgrwt>
<rscale>  0 0.79804387E+02</rscale>
<asrwt>0</asrwt>
<pdfrwt beam="1">  1        1 0.52308196E-02 0.79804387E+02</pdfrwt>
<pdfrwt beam="2">  1       -2 0.72043878E-02 0.79804387E+02</pdfrwt>
<totfact> 0.12446332E+05</totfact>
</mgrwt>
</event>
<event>
 8    1  0.1372337E-020  0.8122807E+02  0.7818608E-02  0.1325602E+00
         -2   -1    0    0    0  501 -0.00000000000E+00  0.00000000000E+00  0.82275170410E+02  0.82275170449E+02  0.25500000000E-02 0.  1.
          1   -1    0    0  501    0  0.00000000000E+00 -0.00000000000E+00 -0.20048571086E+02  0.20048571719E+02  0.50400000000E-02 0. -1.
        -24    2    1    2    0    0 -0.17763568394E-14  0.17763568394E-14  0.62226599324E+02  0.10232374217E+03  0.81228065026E+02 0.  0.
         66    2    3    3    0    0 -0.13728585116E+02 -0.15958998930E+02  0.74848392691E+02  0.77778181919E+02  0.19999995097E+01 0.  0.
         13    1    3    3    0    0  0.13728585116E+02  0.15958998930E+02 -0.12621793367E+02  0.24545560250E+02  0.10566000000E+00 0. -1.
         13    1    4    4    0    0 -0.25937998494E+01 -0.34689483809E+01  0.17090217821E+02  0.17630885110E+02  0.10566000000E+00 0.  1.
        -13    1    4    4    0    0 -0.48756278804E+01 -0.57426330748E+01  0.28231899816E+02  0.29219871887E+02  0.10566000000E+00 0.  1.
         14    1    4    4    0    0 -0.62591573858E+01 -0.67474174747E+01  0.29526275054E+02  0.30927424922E+02  0.00000000000E+00 0. -1.
<mgrwt>
<rscale>  0 0.81228065E+02</rscale>
<asrwt>0</asrwt>
<pdfrwt beam="1">  1        1 0.30843956E-02 0.81228065E+02</pdfrwt>
<pdfrwt beam="2">  1       -2 0.12657718E-01 0.81228065E+02</pdfrwt>
<totfact> 0.10684644E+05</totfact>
</mgrwt>
</event>
<event>
 8    1  0.1372337E-020  0.8263565E+02  0.7818608E-02  0.1321734E+00
          1   -1    0    0  501    0  0.00000000000E+00  0.00000000000E+00  0.12350264217E+03  0.12350264227E+03  0.50400000000E-02 0. -1.
         -2   -1    0    0    0  501 -0.00000000000E+00 -0.00000000000E+00 -0.13822885048E+02  0.13822885284E+02  0.25500000000E-02 0.  1.
        -24    2    1    2    0    0 -0.71054273576E-14 -0.17763568394E-14  0.10967975712E+03  0.13732552756E+03  0.82635654510E+02 0.  0.
         66    2    3    3    0    0 -0.40715971455E+02 -0.59256235681E+01  0.49054480584E+02  0.64056580072E+02  0.20000097339E+01 0.  0.
         13    1    3    3    0    0  0.40715971455E+02  0.59256235681E+01  0.60625276537E+02  0.73268947484E+02  0.10566000000E+00 0. -1.
         13    1    4    4    0    0 -0.24080949916E+01 -0.21415979607E+00  0.30293970165E+01  0.38772665921E+01  0.10566000000E+00 0.  1.
        -13    1    4    4    0    0 -0.16445174699E+02 -0.15718992167E+01  0.19568057597E+02  0.25609269419E+02  0.10566000000E+00 0.  1.
         14    1    4    4    0    0 -0.21862701765E+02 -0.41395645553E+01  0.26457025970E+02  0.34570044060E+02  0.00000000000E+00 0. -1.
<mgrwt>
<rscale>  0 0.82635655E+02</rscale>
<asrwt>0</asrwt>
<pdfrwt beam="1">  1        1 0.19000406E-01 0.82635655E+02</pdfrwt>
<pdfrwt beam="2">  1       -2 0.21265978E-02 0.82635655E+02</pdfrwt>
<totfact> 0.13970028E+05</totfact>
</mgrwt>
</event>
<event>
 8    1  0.1372337E-020  0.8011705E+02  0.7818608E-02  0.1328720E+00
         -2   -1    0    0    0  501 -0.00000000000E+00  0.00000000000E+00  0.28943768096E+01  0.28943779329E+01  0.25500000000E-02 0.  1.
          1   -1    0    0  501    0  0.00000000000E+00 -0.00000000000E+00 -0.55441466603E+03  0.55441466606E+03  0.50400000000E-02 0. -1.
        -24    2    1    2    0    0  0.35527136788E-14 -0.35527136788E-14 -0.55152028922E+03  0.55730904399E+03  0.80117046168E+02 0.  0.
         66    2    3    3    0    0  0.30454612733E+02 -0.25299043574E+02 -0.31717604534E+03  0.31964381547E+03  0.19999967547E+01 0.  0.
         13    1    3    3    0    0 -0.30454612733E+02  0.25299043574E+02 -0.23434424389E+03  0.23766522852E+03  0.10566000000E+00 0. -1.
         13    1    4    4    0    0  0.22897881799E+01 -0.19304024183E+01 -0.22187349241E+02  0.22388818946E+02  0.10566000000E+00 0. -1.
        -13    1    4    4    0    0  0.24142052851E+02 -0.19817989252E+02 -0.24688633137E+03  0.24885430114E+03  0.10566000000E+00 0.  1.
        -14    1    4    4    0    0  0.40227717026E+01 -0.35506519035E+01 -0.48102364724E+02  0.48400695379E+02  0.00000000000E+00 0.  1.
<mgrwt>
<rscale>  0 0.80117046E+02</rscale>
<asrwt>0</asrwt>
<pdfrwt beam="1">  1        1 0.85294480E-01 0.80117046E+02</pdfrwt>
<pdfrwt beam="2">  1       -2 0.44528927E-03 0.80117046E+02</pdfrwt>
<totfact> 0.19743418E+05</totfact>
</mgrwt>
</event>
<event>
 8    1  0.1372337E-020  0.7723927E+02  0.7818608E-02  0.1337074E+00
          1   -1    0    0  501    0  0.00000000000E+00  0.00000000000E+00  0.55735956086E+02  0.55735956314E+02  0.50400000000E-02 0. -1.
         -2   -1    0    0    0  501 -0.00000000000E+00 -0.00000000000E+00 -0.26759676855E+02  0.26759676977E+02  0.25500000000E-02 0.  1.
        -24    2    1    2    0    0  0.00000000000E+00  0.00000000000E+00  0.28976279231E+02  0.82495633290E+02  0.77239269507E+02 0.  0.
         66    2    3    3    0    0  0.18126567652E+02 -0.23708686118E+02 -0.11637782166E+02  0.32095361471E+02  0.20000004764E+01 0.  0.
         13    1    3    3    0    0 -0.18126567652E+02  0.23708686118E+02  0.40614061397E+02  0.50400271819E+02  0.10566000000E+00 0. -1.
         13    1    4    4    0    0  0.21375269484E+01 -0.33441763621E+01 -0.14375887345E+01  0.42226013785E+01  0.10566000000E+00 0. -1.
        -13    1    4    4    0    0  0.55320548808E+01 -0.62161944328E+01 -0.38387083202E+01  0.91646903949E+01  0.10566000000E+00 0.  1.
         14    1    4    4    0    0  0.10456985823E+02 -0.14148315323E+02 -0.63614851109E+01  0.18708069698E+02  0.00000000000E+00 0. -1.
<mgrwt>
<rscale>  0 0.77239270E+02</rscale>
<asrwt>0</asrwt>
<pdfrwt beam="1">  1        1 0.85747624E-02 0.77239270E+02</pdfrwt>
<pdfrwt beam="2">  1       -2 0.41168734E-02 0.77239270E+02</pdfrwt>
<totfact> 0.14744430E+05</totfact>
</mgrwt>
</event>
<event>
 8    1  0.1372337E-020  0.8071458E+02  0.7818608E-02  0.1327036E+00
          1   -1    0    0  501    0  0.00000000000E+00  0.00000000000E+00  0.18918422898E+01  0.18918490032E+01  0.50400000000E-02 0. -1.
         -2   -1    0    0    0  501 -0.00000000000E+00 -0.00000000000E+00 -0.86091105376E+03  0.86091105377E+03  0.25500000000E-02 0.  1.
        -24    2    1    2    0    0  0.00000000000E+00 -0.17763568394E-14 -0.85901921147E+03  0.86280290277E+03  0.80714579527E+02 0.  0.
         66    2    3    3    0    0  0.32777789761E+02  0.96200860286E+01 -0.65898223392E+03  0.65987007371E+03  0.20000004622E+01 0.  0.
         13    1    3    3    0    0 -0.32777789761E+02 -0.96200860286E+01 -0.20003697756E+03  0.20293282906E+03  0.10566000000E+00 0. -1.
         13    1    4    4    0    0  0.22823427346E+01  0.35987974337E+00 -0.42023653133E+02  0.42087256842E+02  0.10566000000E+00 0.  1.
        -13    1    4    4    0    0  0.27669781448E+01  0.12119212199E+01 -0.54987270072E+02  0.55070281960E+02  0.10566000000E+00 0.  1.
        -14    1    4    4    0    0  0.27728468881E+02  0.80482850653E+01 -0.56197131071E+03  0.56271253491E+03  0.00000000000E+00 0.  1.
<mgrwt>
<rscale>  0 0.80714580E+02</rscale>
<asrwt>0</asrwt>
<pdfrwt beam="1">  1        1 0.29105386E-03 0.80714580E+02</pdfrwt>
<pdfrwt beam="2">  1       -2 0.13244754E+00 0.80714580E+02</pdfrwt>
<totfact> 0.30095595E+04</totfact>
</mgrwt>
</event>
<event>
 8    1  0.1372337E-020  0.8330784E+02  0.7818608E-02  0.1319918E+00
          1   -1    0    0  501    0  0.00000000000E+00  0.00000000000E+00  0.13237675763E+03  0.13237675773E+03  0.50400000000E-02 0. -1.
         -2   -1    0    0    0  501 -0.00000000000E+00 -0.00000000000E+00 -0.13106902283E+02  0.13106902531E+02  0.25500000000E-02 0.  1.
        -24    2    1    2    0    0  0.00000000000E+00  0.35527136788E-14  0.11926985535E+03  0.14548366026E+03  0.83307844813E+02 0.  0.
         66    2    3    3    0    0  0.21526754795E+02 -0.23161493075E+02  0.12382820564E+02  0.34017498117E+02  0.19999998883E+01 0.  0.
         13    1    3    3    0    0 -0.21526754795E+02  0.23161493075E+02  0.10688703479E+03  0.11146616214E+03  0.10566000000E+00 0. -1.
         13    1    4    4    0    0  0.88366304371E+01 -0.99847376671E+01  0.58814620154E+01  0.14573392990E+02  0.10566000000E+00 0. -1.
        -13    1    4    4    0    0  0.12304690041E+02 -0.12562310936E+02  0.63919829116E+01  0.18710576224E+02  0.10566000000E+00 0.  1.
        -14    1    4    4    0    0  0.38543431715E+00 -0.61444447178E+00  0.10937563660E+00  0.73352890306E+00  0.00000000000E+00 0.  1.
<mgrwt>
<rscale>  0 0.83307845E+02</rscale>
<asrwt>0</asrwt>
<pdfrwt beam="1">  1        1 0.20365655E-01 0.83307845E+02</pdfrwt>
<pdfrwt beam="2">  1       -2 0.20164466E-02 0.83307845E+02</pdfrwt>
<totfact> 0.13841129E+05</totfact>
</mgrwt>
</event>
<event>
 8    1  0.1372337E-020  0.8011257E+02  0.7818608E-02  0.1328732E+00
         -2   -1    0    0    0  501 -0.00000000000E+00  0.00000000000E+00  0.40802835748E+02  0.40802835827E+02  0.25500000000E-02 0.  1.
          1   -1    0    0  501    0  0.00000000000E+00 -0.00000000000E+00 -0.39323391029E+02  0.39323391352E+02  0.50400000000E-02 0. -1.
        -24    2    1    2    0    0  0.00000000000E+00  0.88817841970E-15  0.14794447187E+01  0.80126227179E+02  0.80112567836E+02 0.  0.
         66    2    3    3    0    0  0.28476098566E+02 -0.48870076231E+01  0.28452845353E+02  0.40599697621E+02  0.20000012956E+01 0.  0.
         13    1    3    3    0    0 -0.28476098566E+02  0.48870076231E+01 -0.26973400635E+02  0.39526529558E+02  0.10566000000E+00 0. -1.
         13    1    4    4    0    0  0.11876312468E+02 -0.20963578491E+01  0.12873321845E+02  0.17640155709E+02  0.10566000000E+00 0.  1.
        -13    1    4    4    0    0  0.96376075149E+01 -0.16608458223E+01  0.83578418619E+01  0.12864935759E+02  0.10566000000E+00 0. -1.
         14    1    4    4    0    0  0.69621785827E+01 -0.11298039518E+01  0.72216816470E+01  0.10094606154E+02  0.00000000000E+00 0. -1.
<mgrwt>
<rscale>  0 0.80112568E+02</rscale>
<asrwt>0</asrwt>
<pdfrwt beam="1">  1        1 0.60497525E-02 0.80112568E+02</pdfrwt>
<pdfrwt beam="2">  1       -2 0.62773593E-02 0.80112568E+02</pdfrwt>
<totfact> 0.12612208E+05</totfact>
</mgrwt>
</event>
<event>
 8    1  0.1372337E-020  0.7676453E+02  0.7818608E-02  0.1338492E+00
          1   -1    0    0  501    0  0.00000000000E+00  0.00000000000E+00  0.13807580811E+03  0.13807580820E+03  0.50400000000E-02 0. -1.
         -2   -1    0    0    0  501 -0.00000000000E+00 -0.00000000000E+00 -0.10669489553E+02  0.10669489858E+02  0.25500000000E-02 0.  1.
        -24    2    1    2    0    0  0.00000000000E+00  0.00000000000E+00  0.12740631855E+03  0.14874529806E+03  0.76764534041E+02 0.  0.
         66    2    3    3    0    0 -0.33873640347E+02 -0.27020258083E+01  0.29275725944E+02  0.44897578661E+02  0.19999965538E+01 0.  0.
         13    1    3    3    0    0  0.33873640347E+02  0.27020258083E+01  0.98130592609E+02  0.10384771940E+03  0.10566000000E+00 0. -1.
         13    1    4    4    0    0 -0.11990283085E+02 -0.14547779185E+01  0.10730193363E+02  0.16156468701E+02  0.10566000000E+00 0.  1.
        -13    1    4    4    0    0 -0.16417367448E+02 -0.76806669404E+00  0.13191357530E+02  0.21074699473E+02  0.10566000000E+00 0. -1.
        -14    1    4    4    0    0 -0.54659898141E+01 -0.47918119576E+00  0.53541750516E+01  0.76664104866E+01  0.00000000000E+00 0.  1.
<mgrwt>
<rscale>  0 0.76764534E+02</rscale>
<asrwt>0</asrwt>
<pdfrwt beam="1">  1        1 0.21242430E-01 0.76764534E+02</pdfrwt>
<pdfrwt beam="2">  1       -2 0.16414601E-02 0.76764534E+02</pdfrwt>
<totfact> 0.17363853E+05</totfact>
</mgrwt>
</event>
<event>
 8    1  0.1372337E-020  0.8035651E+02  0.7818608E-02  0.1328043E+00
         -2   -1    0    0    0  501 -0.00000000000E+00  0.00000000000E+00  0.15788479163E+03  0.15788479165E+03  0.25500000000E-02 0.  1.
          1   -1    0    0  501    0  0.00000000000E+00 -0.00000000000E+00 -0.10224494696E+02  0.10224495938E+02  0.50400000000E-02 0. -1.
        -24    2    1    2    0    0 -0.44408920985E-15  0.71054273576E-14  0.14766029694E+03  0.16810928759E+03  0.80356513630E+02 0.  0.
         66    2    3    3    0    0 -0.27424117236E+01  0.33074827211E+02  0.12115881463E+03  0.12563806503E+03  0.20000012740E+01 0.  0.
         13    1    3    3    0    0  0.27424117236E+01 -0.33074827211E+02  0.26501482303E+02  0.42471222556E+02  0.10566000000E+00 0. -1.
         13    1    4    4    0    0 -0.18041207565E+01  0.14642038024E+02  0.56221568182E+02  0.58125037824E+02  0.10566000000E+00 0. -1.
        -13    1    4    4    0    0 -0.10617403205E+00  0.30807643242E+01  0.11772057592E+02  0.12169424215E+02  0.10566000000E+00 0.  1.
        -14    1    4    4    0    0 -0.83211693504E+00  0.15352024863E+02  0.53165188860E+02  0.55343602995E+02  0.00000000000E+00 0.  1.
<mgrwt>
<rscale>  0 0.80356514E+02</rscale>
<asrwt>0</asrwt>
<pdfrwt beam="1">  1        1 0.15729994E-02 0.80356514E+02</pdfrwt>
<pdfrwt beam="2">  1       -2 0.24289967E-01 0.80356514E+02</pdfrwt>
<totfact> 0.91845932E+04</totfact>
</mgrwt>
</event>
<event>
 8    1  0.1372337E-020  0.7971641E+02  0.7818608E-02  0.1329858E+00
         -2   -1    0    0    0  501 -0.00000000000E+00  0.00000000000E+00  0.30726143672E+02  0.30726143778E+02  0.25500000000E-02 0.  1.
          1   -1    0    0  501    0  0.00000000000E+00 -0.00000000000E+00 -0.51704384236E+02  0.51704384481E+02  0.50400000000E-02 0. -1.
        -24    2    1    2    0    0 -0.35527136788E-14  0.35527136788E-14 -0.20978240564E+02  0.82430528259E+02  0.79716406165E+02 0.  0.
         66    2    3    3    0    0  0.22991457419E+02 -0.82727734362E+01  0.22033677633E+02  0.32962536935E+02  0.19999991454E+01 0.  0.
         13    1    3    3    0    0 -0.22991457419E+02  0.82727734362E+01 -0.43011918197E+02  0.49467991324E+02  0.10566000000E+00 0. -1.
         13    1    4    4    0    0  0.40071680352E+01 -0.18201308493E+01  0.31913950119E+01  0.54375029313E+01  0.10566000000E+00 0. -1.
        -13    1    4    4    0    0  0.12471554404E+02 -0.42710491128E+01  0.11907927313E+02  0.17764893096E+02  0.10566000000E+00 0.  1.
         14    1    4    4    0    0  0.65127349799E+01 -0.21815934740E+01  0.69343553084E+01  0.97601409082E+01  0.00000000000E+00 0. -1.
<mgrwt>
<rscale>  0 0.79716406E+02</rscale>
<asrwt>0</asrwt>
<pdfrwt beam="1">  1        1 0.79545207E-02 0.79716406E+02</pdfrwt>
<pdfrwt beam="2">  1       -2 0.47270990E-02 0.79716406E+02</pdfrwt>
<totfact> 0.13357608E+05</totfact>
</mgrwt>
</event>
<event>
 8    1  0.1372337E-020  0.8878976E+02  0.7818608E-02  0.1305809E+00
          1   -1    0    0  501    0  0.00000000000E+00  0.00000000000E+00  0.16623653073E+03  0.16623653081E+03  0.50400000000E-02 0. -1.
         -2   -1    0    0    0  501 -0.00000000000E+00 -0.00000000000E+00 -0.11856031450E+02  0.11856031725E+02  0.25500000000E-02 0.  1.
        -24    2    1    2    0    0  0.00000000000E+00  0.00000000000E+00  0.15438049928E+03  0.17809256253E+03  0.88789764451E+02 0.  0.
         66    2    3    3    0    0  0.39315718472E+02 -0.10853858520E+01  0.36025491592E+02  0.53373587271E+02  0.19999980618E+01 0.  0.
         13    1    3    3    0    0 -0.39315718472E+02  0.10853858520E+01  0.11835500769E+03  0.12471897526E+03  0.10566000000E+00 0. -1.
         13    1    4    4    0    0  0.70969198201E+01 -0.78529775022E+00  0.64977835621E+01  0.96548080636E+01  0.10566000000E+00 0. -1.
        -13    1    4    4    0    0  0.15835541663E+02 -0.48780299805E+00  0.13902728619E+02  0.21078409775E+02  0.10566000000E+00 0.  1.
        -14    1    4    4    0    0  0.16383256988E+02  0.18771489628E+00  0.15624979411E+02  0.22640369432E+02  0.00000000000E+00 0.  1.
<mgrwt>
<rscale>  0 0.88789764E+02</rscale>
<asrwt>0</asrwt>
<pdfrwt beam="1">  1        1 0.25574849E-01 0.88789764E+02</pdfrwt>
<pdfrwt beam="2">  1       -2 0.18240050E-02 0.88789764E+02</pdfrwt>
<totfact> 0.12168579E+05</totfact>
</mgrwt>
</event>
<event>
 8    1  0.1372337E-020  0.8088640E+02  0.7818608E-02  0.1326555E+00
         -2   -1    0    0    0  501 -0.00000000000E+00  0.00000000000E+00  0.36269313335E+02  0.36269313425E+02  0.25500000000E-02 0.  1.
          1   -1    0    0  501    0  0.00000000000E+00 -0.00000000000E+00 -0.45097414213E+02  0.45097414495E+02  0.50400000000E-02 0. -1.
        -24    2    1    2    0    0  0.17763568394E-14 -0.71054273576E-14 -0.88281008782E+01  0.81366727920E+02  0.80886395934E+02 0.  0.
         66    2    3    3    0    0 -0.12238615497E+02  0.36818692432E+02  0.69751481021E+01  0.39472173810E+02  0.19999981267E+01 0.  0.
         13    1    3    3    0    0  0.12238615497E+02 -0.36818692432E+02 -0.15803248980E+02  0.41894554110E+02  0.10566000000E+00 0. -1.
         13    1    4    4    0    0 -0.49535285774E+01  0.12674123622E+02  0.24108472769E+01  0.13820065253E+02  0.10566000000E+00 0. -1.
        -13    1    4    4    0    0 -0.24417496149E+01  0.65050607462E+01  0.13768320760E+01  0.70841221824E+01  0.10566000000E+00 0.  1.
         14    1    4    4    0    0 -0.48433373044E+01  0.17639508064E+02  0.31874687492E+01  0.18567986375E+02  0.00000000000E+00 0. -1.
<mgrwt>
<rscale>  0 0.80886396E+02</rscale>
<asrwt>0</asrwt>
<pdfrwt beam="1">  1        1 0.69380638E-02 0.80886396E+02</pdfrwt>
<pdfrwt beam="2">  1       -2 0.55798944E-02 0.80886396E+02</pdfrwt>
<totfact> 0.12551041E+05</totfact>
</mgrwt>
</event>
<event>
 8    1  0.1372337E-020  0.7960466E+02  0.7818608E-02  0.1330177E+00
          1   -1    0    0  501    0  0.00000000000E+00  0.00000000000E+00  0.20076537712E+02  0.20076538344E+02  0.50400000000E-02 0. -1.
         -2   -1    0    0    0  501 -0.00000000000E+00 -0.00000000000E+00 -0.78909302441E+02  0.78909302482E+02  0.25500000000E-02 0.  1.
        -24    2    1    2    0    0  0.00000000000E+00  0.00000000000E+00 -0.58832764729E+02  0.98985840826E+02  0.79604663672E+02 0.  0.
         66    2    3    3    0    0  0.32622422109E+02 -0.22539707195E+02 -0.33359185707E+02  0.51856495224E+02  0.20000002808E+01 0.  0.
         13    1    3    3    0    0 -0.32622422109E+02  0.22539707195E+02 -0.25473579022E+02  0.47129345603E+02  0.10566000000E+00 0. -1.
         13    1    4    4    0    0  0.15918221825E+01 -0.14886072607E+01 -0.20186251030E+01  0.29725175827E+01  0.10566000000E+00 0. -1.
        -13    1    4    4    0    0  0.21343818453E+02 -0.14912515095E+02 -0.21236210879E+02  0.33599546264E+02  0.10566000000E+00 0.  1.
        -14    1    4    4    0    0  0.96867814731E+01 -0.61385848400E+01 -0.10104349725E+02  0.15284431377E+02  0.00000000000E+00 0.  1.
<mgrwt>
<rscale>  0 0.79604664E+02</rscale>
<asrwt>0</asrwt>
<pdfrwt beam="1">  1        1 0.30886982E-02 0.79604664E+02</pdfrwt>
<pdfrwt beam="2">  1       -2 0.12139893E-01 0.79604664E+02</pdfrwt>
<totfact> 0.11351426E+05</totfact>
</mgrwt>
</event>
<event>
 8    1  0.1372337E-020  0.8322123E+02  0.7818608E-02  0.1320151E+00
         -2   -1    0    0    0  501 -0.00000000000E+00  0.00000000000E+00  0.21044529493E+03  0.21044529495E+03  0.25500000000E-02 0.  1.
          1   -1    0    0  501    0  0.00000000000E+00 -0.00000000000E+00 -0.82275204390E+01  0.82275219827E+01  0.50400000000E-02 0. -1.
        -24    2    1    2    0    0  0.00000000000E+00  0.35527136788E-14  0.20221777449E+03  0.21867281693E+03  0.83221226518E+02 0.  0.
         66    2    3    3    0    0  0.16454139644E+02 -0.19303459503E+02  0.18776171180E+03  0.18947776302E+03  0.19999999425E+01 0.  0.
         13    1    3    3    0    0 -0.16454139644E+02  0.19303459503E+02  0.14456062689E+02  0.29195053908E+02  0.10566000000E+00 0. -1.
         13    1    4    4    0    0  0.31332066316E+01 -0.41606223968E+01  0.41898921182E+02  0.42221540981E+02  0.10566000000E+00 0. -1.
        -13    1    4    4    0    0  0.28530420584E+01 -0.38268884563E+01  0.31770581198E+02  0.32127339104E+02  0.10566000000E+00 0.  1.
        -14    1    4    4    0    0  0.10467890954E+02 -0.11315948650E+02  0.11409220942E+03  0.11512888294E+03  0.00000000000E+00 0.  1.
<mgrwt>
<rscale>  0 0.83221227E+02</rscale>
<asrwt>0</asrwt>
<pdfrwt beam="1">  1        1 0.12657726E-02 0.83221227E+02</pdfrwt>
<pdfrwt beam="2">  1       -2 0.32376196E-01 0.83221227E+02</pdfrwt>
<totfact> 0.75228000E+04</totfact>
</mgrwt>
</event>
<event>
 8    1  0.1372337E-020  0.8086205E+02  0.7818608E-02  0.1326623E+00
         -2   -1    0    0    0  501 -0.00000000000E+00  0.00000000000E+00  0.70600353757E+01  0.70600358362E+01  0.25500000000E-02 0.  1.
          1   -1    0    0  501    0  0.00000000000E+00 -0.00000000000E+00 -0.23153815110E+03  0.23153815116E+03  0.50400000000E-02 0. -1.
        -24    2    1    2    0    0 -0.71054273576E-14 -0.35527136788E-14 -0.22447811573E+03  0.23859818700E+03  0.80862045462E+02 0.  0.
         66    2    3    3    0    0 -0.21975340480E+02 -0.24377554219E+02 -0.42763895513E+02  0.53943780789E+02  0.19999968569E+01 0.  0.
         13    1    3    3    0    0  0.21975340480E+02  0.24377554219E+02 -0.18171422022E+03  0.18465440621E+03  0.10566000000E+00 0. -1.
         13    1    4    4    0    0 -0.12055594309E+01 -0.14350691314E+01 -0.27581676752E+01  0.33363827588E+01  0.10566000000E+00 0. -1.
        -13    1    4    4    0    0 -0.18005885017E+02 -0.19821241297E+02 -0.33625284416E+02  0.42985630366E+02  0.10566000000E+00 0.  1.
        -14    1    4    4    0    0 -0.27638960319E+01 -0.31212437905E+01 -0.63804434215E+01  0.76217676644E+01  0.00000000000E+00 0.  1.
<mgrwt>
<rscale>  0 0.80862045E+02</rscale>
<asrwt>0</asrwt>
<pdfrwt beam="1">  1        1 0.35621248E-01 0.80862045E+02</pdfrwt>
<pdfrwt beam="2">  1       -2 0.10861595E-02 0.80862045E+02</pdfrwt>
<totfact> 0.16676315E+05</totfact>
</mgrwt>
</event>
<event>
 8    1  0.1372337E-020  0.7999654E+02  0.7818608E-02  0.1329061E+00
          1   -1    0    0  501    0  0.00000000000E+00  0.00000000000E+00  0.45099352579E+02  0.45099352860E+02  0.50400000000E-02 0. -1.
         -2   -1    0    0    0  501 -0.00000000000E+00 -0.00000000000E+00 -0.35474154307E+02  0.35474154399E+02  0.25500000000E-02 0.  1.
        -24    2    1    2    0    0  0.00000000000E+00 -0.88817841970E-15  0.96251982719E+01  0.80573507259E+02  0.79996535114E+02 0.  0.
         66    2    3    3    0    0 -0.16669180726E+02  0.43803040821E+01 -0.31511244159E+02  0.35972310977E+02  0.19999996656E+01 0.  0.
         13    1    3    3    0    0  0.16669180726E+02 -0.43803040821E+01  0.41136442430E+02  0.44601196282E+02  0.10566000000E+00 0. -1.
         13    1    4    4    0    0 -0.33336592356E+01  0.13183312339E+01 -0.73140860276E+01  0.81460603727E+01  0.10566000000E+00 0. -1.
        -13    1    4    4    0    0 -0.10052665798E+01 -0.67109074861E-01 -0.15746769128E+01  0.18723877642E+01  0.10566000000E+00 0.  1.
         14    1    4    4    0    0 -0.12330254911E+02  0.31290819231E+01 -0.22622481218E+02  0.25953862840E+02  0.00000000000E+00 0. -1.
<mgrwt>
<rscale>  0 0.79996535E+02</rscale>
<asrwt>0</asrwt>
<pdfrwt beam="1">  1        1 0.69383620E-02 0.79996535E+02</pdfrwt>
<pdfrwt beam="2">  1       -2 0.54575622E-02 0.79996535E+02</pdfrwt>
<totfact> 0.12945977E+05</totfact>
</mgrwt>
</event>
<event>
 8    1  0.1372337E-020  0.7932874E+02  0.7818608E-02  0.1330967E+00
          1   -1    0    0  501    0  0.00000000000E+00  0.00000000000E+00  0.93743567634E+02  0.93743567770E+02  0.50400000000E-02 0. -1.
         -2   -1    0    0    0  501 -0.00000000000E+00 -0.00000000000E+00 -0.16782615706E+02  0.16782615899E+02  0.25500000000E-02 0.  1.
        -24    2    1    2    0    0  0.00000000000E+00 -0.35527136788E-14  0.76960951929E+02  0.11052618367E+03  0.79328741038E+02 0.  0.
         66    2    3    3    0    0 -0.39228086220E+01  0.28082914472E+02  0.77096595859E+02  0.82170089509E+02  0.20000009959E+01 0.  0.
         13    1    3    3    0    0  0.39228086220E+01 -0.28082914472E+02 -0.13564393073E+00  0.28356094161E+02  0.10566000000E+00 0. -1.
         13    1    4    4    0    0 -0.18906345201E+01  0.11432784389E+02  0.33026431102E+02  0.35000562469E+02  0.10566000000E+00 0. -1.
        -13    1    4    4    0    0  0.72714586967E-01  0.15668962368E+01  0.35801841109E+01  0.39101577375E+01  0.10566000000E+00 0.  1.
        -14    1    4    4    0    0 -0.21048886889E+01  0.15083233846E+02  0.40489980647E+02  0.43259369302E+02  0.00000000000E+00 0.  1.
<mgrwt>
<rscale>  0 0.79328741E+02</rscale>
<asrwt>0</asrwt>
<pdfrwt beam="1">  1        1 0.14422087E-01 0.79328741E+02</pdfrwt>
<pdfrwt beam="2">  1       -2 0.25819410E-02 0.79328741E+02</pdfrwt>
<totfact> 0.14876794E+05</totfact>
</mgrwt>
</event>
<event>
 8    1  0.1372337E-020  0.7379700E+02  0.7818608E-02  0.1347637E+00
          1   -1    0    0  501    0  0.00000000000E+00  0.00000000000E+00  0.35882732254E+03  0.35882732258E+03  0.50400000000E-02 0. -1.
         -2   -1    0    0    0  501 -0.00000000000E+00 -0.00000000000E+00 -0.37943021763E+01  0.37943030332E+01  0.25500000000E-02 0.  1.
        -24    2    1    2    0    0  0.00000000000E+00  0.35527136788E-14  0.35503302036E+03  0.36262162561E+03  0.73797004075E+02 0.  0.
         66    2    3    3    0    0 -0.27763484352E+02  0.24203263742E+02  0.16929953835E+03  0.17327129805E+03  0.20000013705E+01 0.  0.
         13    1    3    3    0    0  0.27763484352E+02 -0.24203263742E+02  0.18573348202E+03  0.18935032756E+03  0.10566000000E+00 0. -1.
         13    1    4    4    0    0 -0.20735518098E+02  0.18319756667E+02  0.12738075377E+03  0.13035122857E+03  0.10566000000E+00 0.  1.
        -13    1    4    4    0    0 -0.66103002087E+01  0.53257726282E+01  0.37690998910E+02  0.38635249265E+02  0.10566000000E+00 0. -1.
         14    1    4    4    0    0 -0.41766604575E+00  0.55773444712E+00  0.42277856700E+01  0.42848202192E+01  0.00000000000E+00 0. -1.
<mgrwt>
<rscale>  0 0.73797004E+02</rscale>
<asrwt>0</asrwt>
<pdfrwt beam="1">  1        1 0.55204213E-01 0.73797004E+02</pdfrwt>
<pdfrwt beam="2">  1       -2 0.58373876E-03 0.73797004E+02</pdfrwt>
<totfact> 0.23032281E+05</totfact>
</mgrwt>
</event>
<event>
 8    1  0.1372337E-020  0.8403834E+02  0.7818608E-02  0.1317967E+00
          1   -1    0    0  501    0  0.00000000000E+00  0.00000000000E+00  0.14078182366E+02  0.14078183268E+02  0.50400000000E-02 0. -1.
         -2   -1    0    0    0  501 -0.00000000000E+00 -0.00000000000E+00 -0.12541467654E+03  0.12541467656E+03  0.25500000000E-02 0.  1.
        -24    2    1    2    0    0  0.00000000000E+00  0.35527136788E-14 -0.11133649417E+03  0.13949285983E+03  0.84038342497E+02 0.  0.
         66    2    3    3    0    0  0.12907776695E+02  0.23054430651E+02 -0.10988091520E+03  0.11303067273E+03  0.19999953755E+01 0.  0.
         13    1    3    3    0    0 -0.12907776695E+02 -0.23054430651E+02 -0.14555789717E+01  0.26462187099E+02  0.10566000000E+00 0. -1.
         13    1    4    4    0    0  0.70935681943E+01  0.11445946258E+02 -0.57735474731E+02  0.59285112819E+02  0.10566000000E+00 0. -1.
        -13    1    4    4    0    0  0.13904785189E+01  0.20426965174E+01 -0.10470438504E+02  0.10758591268E+02  0.10566000000E+00 0.  1.
        -14    1    4    4    0    0  0.44237299818E+01  0.95657878757E+01 -0.41675001966E+02  0.42986968647E+02  0.00000000000E+00 0.  1.
<mgrwt>
<rscale>  0 0.84038342E+02</rscale>
<asrwt>0</asrwt>
<pdfrwt beam="1">  1        1 0.21658744E-02 0.84038342E+02</pdfrwt>
<pdfrwt beam="2">  1       -2 0.19294565E-01 0.84038342E+02</pdfrwt>
<totfact> 0.88001004E+04</totfact>
</mgrwt>
</event>
<event>
 8    1  0.1372337E-020  0.7856294E+02  0.7818608E-02  0.1333180E+00
          1   -1    0    0  501    0  0.00000000000E+00  0.00000000000E+00  0.97447592147E+01  0.97447605181E+01  0.50400000000E-02 0. -1.
         -2   -1    0    0    0  501 -0.00000000000E+00 -0.00000000000E+00 -0.15834498337E+03  0.15834498339E+03  0.25500000000E-02 0.  1.
        -24    2    1    2    0    0  0.00000000000E+00  0.00000000000E+00 -0.14860022415E+03  0.16808974391E+03  0.78562939024E+02 0.  0.
         66    2    3    3    0    0  0.20849603324E+02 -0.32184989243E+02 -0.92306304757E+02  0.99975163850E+02  0.19999993820E+01 0.  0.
         13    1    3    3    0    0 -0.20849603324E+02  0.32184989243E+02 -0.56293919396E+02  0.68114580057E+02  0.10566000000E+00 0. -1.
         13    1    4    4    0    0  0.20093009217E+01 -0.27297761133E+01 -0.83849281384E+01  0.90447306065E+01  0.10566000000E+00 0. -1.
        -13    1    4    4    0    0  0.95701768993E+01 -0.13386171483E+02 -0.39769192072E+02  0.43039257370E+02  0.10566000000E+00 0.  1.
         14    1    4    4    0    0  0.92701255031E+01 -0.16069041646E+02 -0.44152184547E+02  0.47891175873E+02  0.00000000000E+00 0. -1.
<mgrwt>
<rscale>  0 0.78562939E+02</rscale>
<asrwt>0</asrwt>
<pdfrwt beam="1">  1        1 0.14991939E-02 0.78562939E+02</pdfrwt>
<pdfrwt beam="2">  1       -2 0.24360765E-01 0.78562939E+02</pdfrwt>
<totfact> 0.97243955E+04</totfact>
</mgrwt>
</event>
<event>
 8    1  0.1372337E-020  0.8013000E+02  0.7818608E-02  0.1328683E+00
          1   -1    0    0  501    0  0.00000000000E+00  0.00000000000E+00  0.83002525231E+02  0.83002525384E+02  0.50400000000E-02 0. -1.
         -2   -1    0    0    0  501 -0.00000000000E+00 -0.00000000000E+00 -0.19339220352E+02  0.19339220520E+02  0.25500000000E-02 0.  1.
        -24    2    1    2    0    0  0.35527136788E-14 -0.35527136788E-14  0.63663304879E+02  0.10234174590E+03  0.80129997919E+02 0.  0.
         66    2    3    3    0    0 -0.20532012212E+02  0.18937765953E+02 -0.47886793962E+01  0.28410103017E+02  0.19999995719E+01 0.  0.
         13    1    3    3    0    0  0.20532012212E+02 -0.18937765953E+02  0.68451984275E+02  0.73931642887E+02  0.10566000000E+00 0. -1.
         13    1    4    4    0    0 -0.87391457306E+01  0.83750931382E+01 -0.15411593202E+01  0.12202507499E+02  0.10566000000E+00 0. -1.
        -13    1    4    4    0    0 -0.11071603487E+02  0.10000872807E+02 -0.27660490633E+01  0.15174322131E+02  0.10566000000E+00 0.  1.
         14    1    4    4    0    0 -0.72126299414E+00  0.56180000780E+00 -0.48147101266E+00  0.10332733866E+01  0.00000000000E+00 0. -1.
<mgrwt>
<rscale>  0 0.80129998E+02</rscale>
<asrwt>0</asrwt>
<pdfrwt beam="1">  1        1 0.12769619E-01 0.80129998E+02</pdfrwt>
<pdfrwt beam="2">  1       -2 0.29752647E-02 0.80129998E+02</pdfrwt>
<totfact> 0.14191197E+05</totfact>
</mgrwt>
</event>
<event>
 8    1  0.1372337E-020  0.7776775E+02  0.7818608E-02  0.1335508E+00
          1   -1    0    0  501    0  0.00000000000E+00  0.00000000000E+00  0.40768071575E+02  0.40768071887E+02  0.50400000000E-02 0. -1.
         -2   -1    0    0    0  501 -0.00000000000E+00 -0.00000000000E+00 -0.37086762858E+02  0.37086762946E+02  0.25500000000E-02 0.  1.
        -24    2    1    2    0    0  0.00000000000E+00  0.00000000000E+00  0.36813087172E+01  0.77854834833E+02  0.77767752140E+02 0.  0.
         66    2    3    3    0    0  0.45388243350E+00  0.29492349072E+02 -0.23483617474E+02  0.37755594914E+02  0.19999986413E+01 0.  0.
         13    1    3    3    0    0 -0.45388243350E+00 -0.29492349072E+02  0.27164926191E+02  0.40099239919E+02  0.10566000000E+00 0. -1.
         13    1    4    4    0    0  0.86913997909E+00  0.15029901846E+02 -0.12613513229E+02  0.19640907154E+02  0.10566000000E+00 0. -1.
        -13    1    4    4    0    0 -0.37854710039E+00  0.73030279316E+01 -0.50456138044E+01  0.88852066704E+01  0.10566000000E+00 0.  1.
         14    1    4    4    0    0 -0.36710445201E-01  0.71594192948E+01 -0.58244904401E+01  0.92294810896E+01  0.00000000000E+00 0. -1.
<mgrwt>
<rscale>  0 0.77767752E+02</rscale>
<asrwt>0</asrwt>
<pdfrwt beam="1">  1        1 0.62720111E-02 0.77767752E+02</pdfrwt>
<pdfrwt beam="2">  1       -2 0.57056558E-02 0.77767752E+02</pdfrwt>
<totfact> 0.13789579E+05</totfact>
</mgrwt>
</event>
<event>
 8    1  0.1372337E-020  0.8017747E+02  0.7818608E-02  0.1328549E+00
         -2   -1    0    0    0  501 -0.00000000000E+00  0.00000000000E+00  0.35235032607E+02  0.35235032699E+02  0.25500000000E-02 0.  1.
          1   -1    0    0  501    0  0.00000000000E+00 -0.00000000000E+00 -0.45611046529E+02  0.45611046807E+02  0.50400000000E-02 0. -1.
        -24    2    1    2    0    0  0.00000000000E+00 -0.71054273576E-14 -0.10376013922E+02  0.80846079506E+02  0.80177471316E+02 0.  0.
         66    2    3    3    0    0  0.12582633404E+01 -0.40006891092E+02 -0.34543028927E+01  0.40225200527E+02  0.19999968627E+01 0.  0.
         13    1    3    3    0    0 -0.12582633404E+01  0.40006891092E+02 -0.69217110295E+01  0.40620878980E+02  0.10566000000E+00 0. -1.
         13    1    4    4    0    0  0.42453144903E+00 -0.21468910930E+02 -0.13543482771E+01  0.21516035572E+02  0.10566000000E+00 0.  1.
        -13    1    4    4    0    0  0.50963140743E+00 -0.27683128794E+01 -0.24438754991E+00  0.28273962722E+01  0.10566000000E+00 0. -1.
        -14    1    4    4    0    0  0.32410048395E+00 -0.15769667283E+02 -0.18555670657E+01  0.15881768682E+02  0.00000000000E+00 0.  1.
<mgrwt>
<rscale>  0 0.80177471E+02</rscale>
<asrwt>0</asrwt>
<pdfrwt beam="1">  1        1 0.70170841E-02 0.80177471E+02</pdfrwt>
<pdfrwt beam="2">  1       -2 0.54207743E-02 0.80177471E+02</pdfrwt>
<totfact> 0.12887524E+05</totfact>
</mgrwt>
</event>
<event>
 8    1  0.1372337E-020  0.7459778E+02  0.7818608E-02  0.1345121E+00
          1   -1    0    0  501    0  0.00000000000E+00  0.00000000000E+00  0.13718461084E+03  0.13718461093E+03  0.50400000000E-02 0. -1.
         -2   -1    0    0    0  501 -0.00000000000E+00 -0.00000000000E+00 -0.10141131128E+02  0.10141131449E+02  0.25500000000E-02 0.  1.
        -24    2    1    2    0    0  0.71054273576E-14 -0.17763568394E-14  0.12704347971E+03  0.14732574238E+03  0.74597778995E+02 0.  0.
         66    2    3    3    0    0  0.33642611760E+02 -0.13822523566E+02  0.47484607770E+02  0.59847100689E+02  0.20000005089E+01 0.  0.
         13    1    3    3    0    0 -0.33642611760E+02  0.13822523566E+02  0.79558871943E+02  0.87478641694E+02  0.10566000000E+00 0. -1.
         13    1    4    4    0    0  0.46521619883E+01 -0.13825564957E+01  0.68509556470E+01  0.83964772935E+01  0.10566000000E+00 0. -1.
        -13    1    4    4    0    0  0.14953109534E+02 -0.61252376431E+01  0.20197683337E+02  0.25866418328E+02  0.10566000000E+00 0.  1.
        -14    1    4    4    0    0  0.14037340238E+02 -0.63147294268E+01  0.20435968787E+02  0.25584205067E+02  0.00000000000E+00 0.  1.
<mgrwt>
<rscale>  0 0.74597779E+02</rscale>
<asrwt>0</asrwt>
<pdfrwt beam="1">  1        1 0.21105324E-01 0.74597779E+02</pdfrwt>
<pdfrwt beam="2">  1       -2 0.15601741E-02 0.74597779E+02</pdfrwt>
<totfact> 0.18715383E+05</totfact>
</mgrwt>
</event>
<event>
 8    1  0.1372337E-020  0.7754806E+02  0.7818608E-02  0.1336157E+00
          1   -1    0    0  501    0  0.00000000000E+00  0.00000000000E+00  0.14517737460E+02  0.14517738334E+02  0.50400000000E-02 0. -1.
         -2   -1    0    0    0  501 -0.00000000000E+00 -0.00000000000E+00 -0.10355782502E+03  0.10355782505E+03  0.25500000000E-02 0.  1.
        -24    2    1    2    0    0  0.00000000000E+00  0.00000000000E+00 -0.89040087556E+02  0.11807556338E+03  0.77548059137E+02 0.  0.
         66    2    3    3    0    0  0.18628991680E+01  0.38575318003E+02 -0.39760022989E+02  0.55465169036E+02  0.19999989258E+01 0.  0.
         13    1    3    3    0    0 -0.18628991680E+01 -0.38575318003E+02 -0.49280064567E+02  0.62610394345E+02  0.10566000000E+00 0. -1.
         13    1    4    4    0    0 -0.28012547874E-01  0.56380599181E+01 -0.49768726588E+01  0.75212319363E+01  0.10566000000E+00 0. -1.
        -13    1    4    4    0    0  0.74864341410E+00  0.92753623539E+01 -0.99500388646E+01  0.13623775218E+02  0.10566000000E+00 0.  1.
         14    1    4    4    0    0  0.11422683018E+01  0.23661895731E+02 -0.24833111466E+02  0.34320161881E+02  0.00000000000E+00 0. -1.
<mgrwt>
<rscale>  0 0.77548059E+02</rscale>
<asrwt>0</asrwt>
<pdfrwt beam="1">  1        1 0.22334982E-02 0.77548059E+02</pdfrwt>
<pdfrwt beam="2">  1       -2 0.15931973E-01 0.77548059E+02</pdfrwt>
<totfact> 0.11392446E+05</totfact>
</mgrwt>
</event>
<event>
 8    1  0.1372337E-020  0.7771894E+02  0.7818608E-02  0.1335652E+00
         -2   -1    0    0    0  501 -0.00000000000E+00  0.00000000000E+00  0.43727879785E+01  0.43727887220E+01  0.25500000000E-02 0.  1.
          1   -1    0    0  501    0  0.00000000000E+00 -0.00000000000E+00 -0.34533081255E+03  0.34533081259E+03  0.50400000000E-02 0. -1.
        -24    2    1    2    0    0  0.00000000000E+00  0.35527136788E-14 -0.34095802457E+03  0.34970360131E+03  0.77718943950E+02 0.  0.
         66    2    3    3    0    0 -0.33612565637E+02  0.19413844093E+02 -0.17582299262E+03  0.18006783900E+03  0.19999996196E+01 0.  0.
         13    1    3    3    0    0  0.33612565637E+02 -0.19413844093E+02 -0.16513503195E+03  0.16963576230E+03  0.10566000000E+00 0. -1.
         13    1    4    4    0    0 -0.19245958662E+02  0.10991575321E+02 -0.10199819283E+03  0.10437846597E+03  0.10566000000E+00 0.  1.
        -13    1    4    4    0    0 -0.36541670634E+01  0.24459569379E+01 -0.21599154312E+02  0.22042465228E+02  0.10566000000E+00 0. -1.
         14    1    4    4    0    0 -0.10712439911E+02  0.59763118345E+01 -0.52225645477E+02  0.53646907809E+02  0.00000000000E+00 0. -1.
<mgrwt>
<rscale>  0 0.77718944E+02</rscale>
<asrwt>0</asrwt>
<pdfrwt beam="1">  1        1 0.53127796E-01 0.77718944E+02</pdfrwt>
<pdfrwt beam="2">  1       -2 0.67273694E-03 0.77718944E+02</pdfrwt>
<totfact> 0.19981052E+05</totfact>
</mgrwt>
</event>
<event>
 8    1  0.1372337E-020  0.7889895E+02  0.7818608E-02  0.1332205E+00
         -2   -1    0    0    0  501 -0.00000000000E+00  0.00000000000E+00  0.73117847938E+03  0.73117847939E+03  0.25500000000E-02 0.  1.
          1   -1    0    0  501    0  0.00000000000E+00 -0.00000000000E+00 -0.21284253121E+01  0.21284312794E+01  0.50400000000E-02 0. -1.
        -24    2    1    2    0    0  0.17763568394E-14  0.00000000000E+00  0.72905005407E+03  0.73330691067E+03  0.78898947337E+02 0.  0.
         66    2    3    3    0    0  0.12665917708E+02 -0.10009848333E+02  0.69904614875E+03  0.69923539715E+03  0.20000012613E+01 0.  0.
         13    1    3    3    0    0 -0.12665917708E+02  0.10009848333E+02  0.30003905320E+02  0.34071513520E+02  0.10566000000E+00 0. -1.
         13    1    4    4    0    0  0.85213030139E+01 -0.77598724503E+01  0.49023139569E+03  0.49036686339E+03  0.10566000000E+00 0. -1.
        -13    1    4    4    0    0  0.37817662349E+01 -0.21813233750E+01  0.19034867562E+03  0.19039876418E+03  0.10566000000E+00 0.  1.
         14    1    4    4    0    0  0.36284845936E+00 -0.68652507352E-01  0.18466077442E+02  0.18469769578E+02  0.00000000000E+00 0. -1.
<mgrwt>
<rscale>  0 0.78898947E+02</rscale>
<asrwt>0</asrwt>
<pdfrwt beam="1">  1        1 0.32745061E-03 0.78898947E+02</pdfrwt>
<pdfrwt beam="2">  1       -2 0.11248896E+00 0.78898947E+02</pdfrwt>
<totfact> 0.37630768E+04</totfact>
</mgrwt>
</event>
<event>
 8    1  0.1372337E-020  0.8120582E+02  0.7818608E-02  0.1325664E+00
         -2   -1    0    0    0  501 -0.00000000000E+00  0.00000000000E+00  0.46812476179E+02  0.46812476248E+02  0.25500000000E-02 0.  1.
          1   -1    0    0  501    0  0.00000000000E+00 -0.00000000000E+00 -0.35217025872E+02  0.35217026233E+02  0.50400000000E-02 0. -1.
        -24    2    1    2    0    0  0.00000000000E+00 -0.71054273576E-14  0.11595450307E+02  0.82029502481E+02  0.81205817584E+02 0.  0.
         66    2    3    3    0    0  0.30279663071E+01  0.39325492724E+02  0.15433584977E+02  0.42401161616E+02  0.20000008122E+01 0.  0.
         13    1    3    3    0    0 -0.30279663071E+01 -0.39325492724E+02 -0.38381346706E+01  0.39628340865E+02  0.10566000000E+00 0. -1.
         13    1    4    4    0    0  0.23132571699E+01  0.22239520005E+02  0.80396175687E+01  0.23761187333E+02  0.10566000000E+00 0. -1.
        -13    1    4    4    0    0  0.25634677671E+00  0.22996913717E+01  0.10710923062E+01  0.25519985970E+01  0.10566000000E+00 0.  1.
        -14    1    4    4    0    0  0.45836236044E+00  0.14786281347E+02  0.63228751023E+01  0.16087975686E+02  0.00000000000E+00 0.  1.
<mgrwt>
<rscale>  0 0.81205818E+02</rscale>
<asrwt>0</asrwt>
<pdfrwt beam="1">  1        1 0.54180040E-02 0.81205818E+02</pdfrwt>
<pdfrwt beam="2">  1       -2 0.72019194E-02 0.81205818E+02</pdfrwt>
<totfact> 0.11915244E+05</totfact>
</mgrwt>
</event>
<event>
 8    1  0.1372337E-020  0.7955908E+02  0.7818608E-02  0.1330307E+00
          1   -1    0    0  501    0  0.00000000000E+00  0.00000000000E+00  0.67946842431E+02  0.67946842618E+02  0.50400000000E-02 0. -1.
         -2   -1    0    0    0  501 -0.00000000000E+00 -0.00000000000E+00 -0.23288965969E+02  0.23288966109E+02  0.25500000000E-02 0.  1.
        -24    2    1    2    0    0  0.35527136788E-14  0.00000000000E+00  0.44657876462E+02  0.91235808727E+02  0.79559077823E+02 0.  0.
         66    2    3    3    0    0 -0.29680260866E+02 -0.21123583150E+02  0.40923442434E+01  0.36713361805E+02  0.20000008605E+01 0.  0.
         13    1    3    3    0    0  0.29680260866E+02  0.21123583150E+02  0.40565532219E+02  0.54522446922E+02  0.10566000000E+00 0. -1.
         13    1    4    4    0    0 -0.97100094323E+01 -0.63634986334E+01  0.61079832801E+00  0.11625946700E+02  0.10566000000E+00 0. -1.
        -13    1    4    4    0    0 -0.78565420734E+01 -0.54592475249E+01  0.15754241801E+01  0.96964819534E+01  0.10566000000E+00 0.  1.
         14    1    4    4    0    0 -0.12113709360E+02 -0.93008369921E+01  0.19061217353E+01  0.15390933152E+02  0.00000000000E+00 0. -1.
<mgrwt>
<rscale>  0 0.79559078E+02</rscale>
<asrwt>0</asrwt>
<pdfrwt beam="1">  1        1 0.10453361E-01 0.79559078E+02</pdfrwt>
<pdfrwt beam="2">  1       -2 0.35829178E-02 0.79559078E+02</pdfrwt>
<totfact> 0.14016213E+05</totfact>
</mgrwt>
</event>
<event>
 8    1  0.1372337E-020  0.8168408E+02  0.7818608E-02  0.1324339E+00
          1   -1    0    0  501    0  0.00000000000E+00  0.00000000000E+00  0.12117270536E+03  0.12117270547E+03  0.50400000000E-02 0. -1.
         -2   -1    0    0    0  501 -0.00000000000E+00 -0.00000000000E+00 -0.13766072916E+02  0.13766073153E+02  0.25500000000E-02 0.  1.
        -24    2    1    2    0    0 -0.17763568394E-14  0.00000000000E+00  0.10740663245E+03  0.13493877862E+03  0.81684082183E+02 0.  0.
         66    2    3    3    0    0 -0.11177414972E+02  0.36342536569E+02  0.29213268766E+02  0.47990933003E+02  0.20000022087E+01 0.  0.
         13    1    3    3    0    0  0.11177414972E+02 -0.36342536569E+02  0.78193363680E+02  0.86947845616E+02  0.10566000000E+00 0. -1.
         13    1    4    4    0    0 -0.22645694306E+01  0.69666746760E+01  0.51426535454E+01  0.89510267719E+01  0.10566000000E+00 0. -1.
        -13    1    4    4    0    0 -0.75729158303E+01  0.24255784130E+02  0.20589104549E+02  0.32704961521E+02  0.10566000000E+00 0.  1.
        -14    1    4    4    0    0 -0.13399297113E+01  0.51200777626E+01  0.34815106717E+01  0.63349447104E+01  0.00000000000E+00 0.  1.
<mgrwt>
<rscale>  0 0.81684082E+02</rscale>
<asrwt>0</asrwt>
<pdfrwt beam="1">  1        1 0.18641955E-01 0.81684082E+02</pdfrwt>
<pdfrwt beam="2">  1       -2 0.21178573E-02 0.81684082E+02</pdfrwt>
<totfact> 0.14364133E+05</totfact>
</mgrwt>
</event>
<event>
 8    1  0.1372337E-020  0.8088124E+02  0.7818608E-02  0.1326569E+00
         -2   -1    0    0    0  501 -0.00000000000E+00  0.00000000000E+00  0.16745968247E+03  0.16745968249E+03  0.25500000000E-02 0.  1.
          1   -1    0    0  501    0  0.00000000000E+00 -0.00000000000E+00 -0.97661929438E+01  0.97661942443E+01  0.50400000000E-02 0. -1.
        -24    2    1    2    0    0  0.35527136788E-14 -0.88817841970E-15  0.15769348953E+03  0.17722587674E+03  0.80881238525E+02 0.  0.
         66    2    3    3    0    0 -0.17435112316E+02  0.72629788170E+01  0.15718811632E+03  0.15833141806E+03  0.20000069537E+01 0.  0.
         13    1    3    3    0    0  0.17435112316E+02 -0.72629788170E+01  0.50537320790E+00  0.18894458682E+02  0.10566000000E+00 0. -1.
         13    1    4    4    0    0 -0.69418036640E+01  0.27432080192E+01  0.68905932919E+02  0.69309108952E+02  0.10566000000E+00 0. -1.
        -13    1    4    4    0    0 -0.24117667463E+01  0.10292826846E+01  0.17771814611E+02  0.17964537296E+02  0.10566000000E+00 0.  1.
         14    1    4    4    0    0 -0.80815419058E+01  0.34904881132E+01  0.70510368793E+02  0.71057771807E+02  0.00000000000E+00 0. -1.
<mgrwt>
<rscale>  0 0.80881239E+02</rscale>
<asrwt>0</asrwt>
<pdfrwt beam="1">  1        1 0.15024914E-02 0.80881239E+02</pdfrwt>
<pdfrwt beam="2">  1       -2 0.25763028E-01 0.80881239E+02</pdfrwt>
<totfact> 0.88485126E+04</totfact>
</mgrwt>
</event>
<event>
 8    1  0.1372337E-020  0.8010692E+02  0.7818608E-02  0.1328748E+00
          1   -1    0    0  501    0  0.00000000000E+00  0.00000000000E+00  0.18694676724E+02  0.18694677403E+02  0.50400000000E-02 0. -1.
         -2   -1    0    0    0  501 -0.00000000000E+00 -0.00000000000E+00 -0.85814790989E+02  0.85814791026E+02  0.25500000000E-02 0.  1.
        -24    2    1    2    0    0  0.00000000000E+00  0.35527136788E-14 -0.67120114265E+02  0.10450946843E+03  0.80106923873E+02 0.  0.
         66    2    3    3    0    0 -0.32992852233E+02 -0.22556629855E+02 -0.36482057482E+02  0.54150442065E+02  0.20000022143E+01 0.  0.
         13    1    3    3    0    0  0.32992852233E+02  0.22556629855E+02 -0.30638056783E+02  0.50359026364E+02  0.10566000000E+00 0. -1.
         13    1    4    4    0    0 -0.74737758292E+01 -0.47046631452E+01 -0.85927913579E+01  0.12322272835E+02  0.10566000000E+00 0. -1.
        -13    1    4    4    0    0 -0.17966876046E+02 -0.11991323246E+02 -0.19882284902E+02  0.29358421024E+02  0.10566000000E+00 0.  1.
         14    1    4    4    0    0 -0.75522003580E+01 -0.58606434634E+01 -0.80069812216E+01  0.12469748207E+02  0.00000000000E+00 0. -1.
<mgrwt>
<rscale>  0 0.80106924E+02</rscale>
<asrwt>0</asrwt>
<pdfrwt beam="1">  1        1 0.28761042E-02 0.80106924E+02</pdfrwt>
<pdfrwt beam="2">  1       -2 0.13202275E-01 0.80106924E+02</pdfrwt>
<totfact> 0.10966820E+05</totfact>
</mgrwt>
</event>
<event>
 8    1  0.1404969E-020  0.8086378E+02  0.7818608E-02  0.1326618E+00
         -2   -1    0    0    0  501 -0.00000000000E+00  0.00000000000E+00  0.26087012218E+03  0.26087012219E+03  0.25500000000E-02 0.  1.
          1   -1    0    0  501    0  0.00000000000E+00 -0.00000000000E+00 -0.62664809750E+01  0.62664830018E+01  0.50400000000E-02 0. -1.
        -24    2    1    2    0    0  0.00000000000E+00  0.00000000000E+00  0.25460364120E+03  0.26713660519E+03  0.80863784971E+02 0.  0.
         66    2    3    3    0    0 -0.14478415093E+02  0.12452072800E+02  0.24501764861E+03  0.24576884820E+03  0.19999992673E+01 0.  0.
         13    1    3    3    0    0  0.14478415093E+02 -0.12452072800E+02  0.95859925920E+01  0.21367756986E+02  0.10566000000E+00 0. -1.
         13    1    4    4    0    0 -0.58650125428E+01  0.49282598599E+01  0.97908687232E+02  0.98207984995E+02  0.10566000000E+00 0. -1.
        -13    1    4    4    0    0 -0.84400499790E+01  0.69304062578E+01  0.13919375675E+03  0.13962155298E+03  0.10566000000E+00 0.  1.
         14    1    4    4    0    0 -0.17335257106E+00  0.59340668205E+00  0.79152046293E+01  0.79393102300E+01  0.00000000000E+00 0. -1.
<mgrwt>
<rscale>  0 0.80863785E+02</rscale>
<asrwt>0</asrwt>
<pdfrwt beam="1">  1        1 0.96407423E-03 0.80863785E+02</pdfrwt>
<pdfrwt beam="2">  1       -2 0.40133862E-01 0.80863785E+02</pdfrwt>
<totfact> 0.73474441E+04</totfact>
</mgrwt>
</event>
<event>
 8    1  0.1372337E-020  0.7680636E+02  0.7818608E-02  0.1338367E+00
          1   -1    0    0  501    0  0.00000000000E+00  0.00000000000E+00  0.15766438550E+03  0.15766438558E+03  0.50400000000E-02 0. -1.
         -2   -1    0    0    0  501 -0.00000000000E+00 -0.00000000000E+00 -0.93540727180E+01  0.93540730656E+01  0.25500000000E-02 0.  1.
        -24    2    1    2    0    0  0.00000000000E+00  0.00000000000E+00  0.14831031278E+03  0.16701845864E+03  0.76806358141E+02 0.  0.
         66    2    3    3    0    0  0.37779520127E+02 -0.50240533845E+01  0.64416002927E+02  0.74872923520E+02  0.19999974885E+01 0.  0.
         13    1    3    3    0    0 -0.37779520127E+02  0.50240533845E+01  0.83894309852E+02  0.92145535123E+02  0.10566000000E+00 0. -1.
         13    1    4    4    0    0  0.17306334317E+02 -0.18188747927E+01  0.28520050817E+02  0.33409908345E+02  0.10566000000E+00 0.  1.
        -13    1    4    4    0    0  0.48298520763E+01 -0.11750576438E+01  0.81812123677E+01  0.95734858534E+01  0.10566000000E+00 0. -1.
         14    1    4    4    0    0  0.15643333734E+02 -0.20301209479E+01  0.27714739742E+02  0.31889529322E+02  0.00000000000E+00 0. -1.
<mgrwt>
<rscale>  0 0.76806358E+02</rscale>
<asrwt>0</asrwt>
<pdfrwt beam="1">  1        1 0.24256060E-01 0.76806358E+02</pdfrwt>
<pdfrwt beam="2">  1       -2 0.14390881E-02 0.76806358E+02</pdfrwt>
<totfact> 0.17760753E+05</totfact>
</mgrwt>
</event>
<event>
 8    1  0.1372337E-020  0.7789086E+02  0.7818608E-02  0.1335146E+00
          1   -1    0    0  501    0  0.00000000000E+00  0.00000000000E+00  0.15159147186E+02  0.15159148023E+02  0.50400000000E-02 0. -1.
         -2   -1    0    0    0  501 -0.00000000000E+00 -0.00000000000E+00 -0.10005485782E+03  0.10005485785E+03  0.25500000000E-02 0.  1.
        -24    2    1    2    0    0  0.00000000000E+00  0.00000000000E+00 -0.84895710635E+02  0.11521400588E+03  0.77890856112E+02 0.  0.
         66    2    3    3    0    0  0.17006961532E+02 -0.38767781221E+01 -0.93938960528E+02  0.95565655263E+02  0.20000029276E+01 0.  0.
         13    1    3    3    0    0 -0.17006961532E+02  0.38767781221E+01  0.90432498930E+01  0.19648350613E+02  0.10566000000E+00 0. -1.
         13    1    4    4    0    0  0.19371512624E+01 -0.18855755342E+00 -0.85656318611E+01  0.87846071159E+01  0.10566000000E+00 0. -1.
        -13    1    4    4    0    0  0.14921191719E+02 -0.37599875568E+01 -0.83999907216E+02  0.85397746135E+02  0.10566000000E+00 0.  1.
        -14    1    4    4    0    0  0.14861854996E+00  0.71766988174E-01 -0.13734214513E+01  0.13833020122E+01  0.00000000000E+00 0.  1.
<mgrwt>
<rscale>  0 0.77890856E+02</rscale>
<asrwt>0</asrwt>
<pdfrwt beam="1">  1        1 0.23321766E-02 0.77890856E+02</pdfrwt>
<pdfrwt beam="2">  1       -2 0.15393055E-01 0.77890856E+02</pdfrwt>
<totfact> 0.11361969E+05</totfact>
</mgrwt>
</event>
<event>
 8    1  0.1372337E-020  0.7957767E+02  0.7818608E-02  0.1330254E+00
         -2   -1    0    0    0  501 -0.00000000000E+00  0.00000000000E+00  0.36236958415E+01  0.36236967388E+01  0.25500000000E-02 0.  1.
          1   -1    0    0  501    0  0.00000000000E+00 -0.00000000000E+00 -0.43688853954E+03  0.43688853957E+03  0.50400000000E-02 0. -1.
        -24    2    1    2    0    0  0.00000000000E+00  0.00000000000E+00 -0.43326484370E+03  0.44051223631E+03  0.79577669933E+02 0.  0.
         66    2    3    3    0    0 -0.35584096607E+02 -0.17585584958E+02 -0.22994518121E+03  0.23335438092E+03  0.20000010465E+01 0.  0.
         13    1    3    3    0    0  0.35584096607E+02  0.17585584958E+02 -0.20331966249E+03  0.20715785539E+03  0.10566000000E+00 0. -1.
         13    1    4    4    0    0 -0.73701026910E+00 -0.34569424093E+00 -0.40190077721E+01  0.41019844164E+01  0.10566000000E+00 0. -1.
        -13    1    4    4    0    0 -0.35620639178E+01 -0.12673385899E+01 -0.21344843790E+02  0.21677360700E+02  0.10566000000E+00 0.  1.
        -14    1    4    4    0    0 -0.31285022420E+02 -0.15972552127E+02 -0.20458132964E+03  0.20757503580E+03  0.00000000000E+00 0.  1.
<mgrwt>
<rscale>  0 0.79577670E+02</rscale>
<asrwt>0</asrwt>
<pdfrwt beam="1">  1        1 0.67213580E-01 0.79577670E+02</pdfrwt>
<pdfrwt beam="2">  1       -2 0.55749209E-03 0.79577670E+02</pdfrwt>
<totfact> 0.19526365E+05</totfact>
</mgrwt>
</event>
<event>
 8    1  0.1372337E-020  0.8045958E+02  0.7818608E-02  0.1327752E+00
          1   -1    0    0  501    0  0.00000000000E+00  0.00000000000E+00  0.83439281460E+01  0.83439296682E+01  0.50400000000E-02 0. -1.
         -2   -1    0    0    0  501 -0.00000000000E+00 -0.00000000000E+00 -0.19396570328E+03  0.19396570330E+03  0.25500000000E-02 0.  1.
        -24    2    1    2    0    0  0.35527136788E-14  0.00000000000E+00 -0.18562177514E+03  0.20230963297E+03  0.80459581074E+02 0.  0.
         66    2    3    3    0    0  0.29141274341E+02 -0.18880458555E+02 -0.14382757848E+03  0.14797316618E+03  0.19999975556E+01 0.  0.
         13    1    3    3    0    0 -0.29141274341E+02  0.18880458555E+02 -0.41794196652E+02  0.54336466791E+02  0.10566000000E+00 0. -1.
         13    1    4    4    0    0  0.23697879889E+00 -0.74303324605E-01 -0.15787410046E+01  0.16016451325E+01  0.10566000000E+00 0. -1.
        -13    1    4    4    0    0  0.12671982468E+02 -0.79390035043E+01 -0.63119737644E+02  0.64866935804E+02  0.10566000000E+00 0.  1.
         14    1    4    4    0    0  0.16232313075E+02 -0.10867151726E+02 -0.79129099835E+02  0.81504585239E+02  0.00000000000E+00 0. -1.
<mgrwt>
<rscale>  0 0.80459581E+02</rscale>
<asrwt>0</asrwt>
<pdfrwt beam="1">  1        1 0.12836815E-02 0.80459581E+02</pdfrwt>
<pdfrwt beam="2">  1       -2 0.29840874E-01 0.80459581E+02</pdfrwt>
<totfact> 0.84864919E+04</totfact>
</mgrwt>
</event>
<event>
 8    1  0.1372337E-020  0.8182646E+02  0.7818608E-02  0.1323947E+00
         -2   -1    0    0    0  501 -0.00000000000E+00  0.00000000000E+00  0.52828347774E+02  0.52828347836E+02  0.25500000000E-02 0.  1.
          1   -1    0    0  501    0  0.00000000000E+00 -0.00000000000E+00 -0.31685498746E+02  0.31685499146E+02  0.50400000000E-02 0. -1.
        -24    2    1    2    0    0  0.00000000000E+00  0.00000000000E+00  0.21142849029E+02  0.84513846982E+02  0.81826464342E+02 0.  0.
         66    2    3    3    0    0  0.14679913056E+02  0.18128965401E+02  0.45262293825E+02  0.50959145149E+02  0.19999995402E+01 0.  0.
         13    1    3    3    0    0 -0.14679913056E+02 -0.18128965401E+02 -0.24119444796E+02  0.33554701834E+02  0.10566000000E+00 0. -1.
         13    1    4    4    0    0  0.66618877736E+00  0.12086929624E+01  0.23506546013E+01  0.27279089528E+01  0.10566000000E+00 0. -1.
        -13    1    4    4    0    0  0.75601538780E+01  0.10213227814E+02  0.25228154733E+02  0.28247776979E+02  0.10566000000E+00 0.  1.
        -14    1    4    4    0    0  0.64535704003E+01  0.67070446251E+01  0.17683484491E+02  0.19983459217E+02  0.00000000000E+00 0.  1.
<mgrwt>
<rscale>  0 0.81826464E+02</rscale>
<asrwt>0</asrwt>
<pdfrwt beam="1">  1        1 0.48746922E-02 0.81826464E+02</pdfrwt>
<pdfrwt beam="2">  1       -2 0.81274380E-02 0.81826464E+02</pdfrwt>
<totfact> 0.11445387E+05</totfact>
</mgrwt>
</event>
<event>
 8    1  0.1372337E-020  0.8184770E+02  0.7818608E-02  0.1323888E+00
         -2   -1    0    0    0  501 -0.00000000000E+00  0.00000000000E+00  0.23532181354E+02  0.23532181492E+02  0.25500000000E-02 0.  1.
          1   -1    0    0  501    0  0.00000000000E+00 -0.00000000000E+00 -0.71168992346E+02  0.71168992524E+02  0.50400000000E-02 0. -1.
        -24    2    1    2    0    0  0.00000000000E+00  0.00000000000E+00 -0.47636810992E+02  0.94701174016E+02  0.81847703685E+02 0.  0.
         66    2    3    3    0    0  0.37140694453E+02  0.15073727683E+02 -0.14425037306E+02  0.42646572624E+02  0.20000011405E+01 0.  0.
         13    1    3    3    0    0 -0.37140694453E+02 -0.15073727683E+02 -0.33211773686E+02  0.52054601393E+02  0.10566000000E+00 0. -1.
         13    1    4    4    0    0  0.21223987216E+02  0.82972679612E+01 -0.87737970247E+01  0.24419110697E+02  0.10566000000E+00 0. -1.
        -13    1    4    4    0    0  0.61866980800E+01  0.22394452636E+01 -0.24922819665E+01  0.70365461455E+01  0.10566000000E+00 0.  1.
        -14    1    4    4    0    0  0.97300091571E+01  0.45370144578E+01 -0.31589583146E+01  0.11190915781E+02  0.00000000000E+00 0.  1.
<mgrwt>
<rscale>  0 0.81847704E+02</rscale>
<asrwt>0</asrwt>
<pdfrwt beam="1">  1        1 0.10949076E-01 0.81847704E+02</pdfrwt>
<pdfrwt beam="2">  1       -2 0.36203356E-02 0.81847704E+02</pdfrwt>
<totfact> 0.13063376E+05</totfact>
</mgrwt>
</event>
<event>
 8    1  0.1372337E-020  0.7973281E+02  0.7818608E-02  0.1329811E+00
         -2   -1    0    0    0  501 -0.00000000000E+00  0.00000000000E+00  0.97451827208E+01  0.97451830544E+01  0.25500000000E-02 0.  1.
          1   -1    0    0  501    0  0.00000000000E+00 -0.00000000000E+00 -0.16308878801E+03  0.16308878809E+03  0.50400000000E-02 0. -1.
        -24    2    1    2    0    0 -0.35527136788E-14  0.17763568394E-14 -0.15334360529E+03  0.17283397114E+03  0.79732805655E+02 0.  0.
         66    2    3    3    0    0 -0.25875966057E+02  0.11651372459E+02 -0.16102575438E+02  0.32689647183E+02  0.19999994047E+01 0.  0.
         13    1    3    3    0    0  0.25875966057E+02 -0.11651372459E+02 -0.13724102985E+03  0.14014432396E+03  0.10566000000E+00 0. -1.
         13    1    4    4    0    0 -0.76716559014E+01  0.29932816807E+01 -0.51722697618E+01  0.97251004116E+01  0.10566000000E+00 0. -1.
        -13    1    4    4    0    0 -0.73812483061E+00  0.30959696171E+00 -0.70117105154E+00  0.10693378434E+01  0.10566000000E+00 0.  1.
        -14    1    4    4    0    0 -0.17466185325E+02  0.83484938170E+01 -0.10229134625E+02  0.21895208928E+02  0.00000000000E+00 0.  1.
<mgrwt>
<rscale>  0 0.79732806E+02</rscale>
<asrwt>0</asrwt>
<pdfrwt beam="1">  1        1 0.25090581E-01 0.79732806E+02</pdfrwt>
<pdfrwt beam="2">  1       -2 0.14992590E-02 0.79732806E+02</pdfrwt>
<totfact> 0.16179776E+05</totfact>
</mgrwt>
</event>
<event>
 8    1  0.1372337E-020  0.8196617E+02  0.7818608E-02  0.1323563E+00
          1   -1    0    0  501    0  0.00000000000E+00  0.00000000000E+00  0.40456783822E+03  0.40456783825E+03  0.50400000000E-02 0. -1.
         -2   -1    0    0    0  501 -0.00000000000E+00 -0.00000000000E+00 -0.41516233350E+01  0.41516241181E+01  0.25500000000E-02 0.  1.
        -24    2    1    2    0    0  0.00000000000E+00  0.00000000000E+00  0.40041621489E+03  0.40871946237E+03  0.81966174589E+02 0.  0.
         66    2    3    3    0    0  0.37706798260E+01  0.35678111487E+02  0.29885969487E+03  0.30101206436E+03  0.20000008478E+01 0.  0.
         13    1    3    3    0    0 -0.37706798260E+01 -0.35678111487E+02  0.10155652001E+03  0.10770739801E+03  0.10566000000E+00 0. -1.
         13    1    4    4    0    0  0.64793899882E+00  0.30435738956E+01  0.29155079855E+02  0.29320863090E+02  0.10566000000E+00 0. -1.
        -13    1    4    4    0    0  0.11105215918E+01  0.15431554067E+02  0.12913998313E+03  0.13006349421E+03  0.10566000000E+00 0.  1.
         14    1    4    4    0    0  0.20122192353E+01  0.17202983524E+02  0.14056463189E+03  0.14162770706E+03  0.00000000000E+00 0. -1.
<mgrwt>
<rscale>  0 0.81966175E+02</rscale>
<asrwt>0</asrwt>
<pdfrwt beam="1">  1        1 0.62241233E-01 0.81966175E+02</pdfrwt>
<pdfrwt beam="2">  1       -2 0.63871107E-03 0.81966175E+02</pdfrwt>
<totfact> 0.17851832E+05</totfact>
</mgrwt>
</event>
<event>
 8    1  0.1372337E-020  0.8206689E+02  0.7818608E-02  0.1323286E+00
         -2   -1    0    0    0  501 -0.00000000000E+00  0.00000000000E+00  0.58635395712E+02  0.58635395768E+02  0.25500000000E-02 0.  1.
          1   -1    0    0  501    0  0.00000000000E+00 -0.00000000000E+00 -0.28715478947E+02  0.28715479389E+02  0.50400000000E-02 0. -1.
        -24    2    1    2    0    0 -0.17763568394E-14  0.00000000000E+00  0.29919916766E+02  0.87350875157E+02  0.82066887180E+02 0.  0.
         66    2    3    3    0    0 -0.15633467676E+02 -0.22310993812E+02  0.47594521879E+02  0.54876445425E+02  0.19999982853E+01 0.  0.
         13    1    3    3    0    0  0.15633467676E+02  0.22310993812E+02 -0.17674605113E+02  0.32474429732E+02  0.10566000000E+00 0. -1.
         13    1    4    4    0    0 -0.54714673419E+01 -0.87213105339E+01  0.18912410830E+02  0.21533431211E+02  0.10566000000E+00 0.  1.
        -13    1    4    4    0    0 -0.22062956984E+00 -0.50241158257E+00  0.76329351368E+00  0.94597876774E+00  0.10566000000E+00 0.  1.
        -14    1    4    4    0    0 -0.99413707647E+01 -0.13087271696E+02  0.27918817535E+02  0.32397035446E+02  0.00000000000E+00 0.  1.
<mgrwt>
<rscale>  0 0.82066887E+02</rscale>
<asrwt>0</asrwt>
<pdfrwt beam="1">  1        1 0.44177661E-02 0.82066887E+02</pdfrwt>
<pdfrwt beam="2">  1       -2 0.90208300E-02 0.82066887E+02</pdfrwt>
<totfact> 0.11147109E+05</totfact>
</mgrwt>
</event>
<event>
 8    1  0.1372337E-020  0.7917416E+02  0.7818608E-02  0.1331412E+00
          1   -1    0    0  501    0  0.00000000000E+00  0.00000000000E+00  0.13848400287E+03  0.13848400296E+03  0.50400000000E-02 0. -1.
         -2   -1    0    0    0  501 -0.00000000000E+00 -0.00000000000E+00 -0.11316374164E+02  0.11316374451E+02  0.25500000000E-02 0.  1.
        -24    2    1    2    0    0  0.00000000000E+00  0.00000000000E+00  0.12716762870E+03  0.14980037741E+03  0.79174157918E+02 0.  0.
         66    2    3    3    0    0 -0.15730129223E+02  0.19785811321E+02  0.60424089216E+01  0.26065801295E+02  0.19999991450E+01 0.  0.
         13    1    3    3    0    0  0.15730129223E+02 -0.19785811321E+02  0.12112521978E+03  0.12373457611E+03  0.10566000000E+00 0. -1.
         13    1    4    4    0    0 -0.26377030146E+01  0.22433898553E+01  0.86184050590E+00  0.35699031261E+01  0.10566000000E+00 0. -1.
        -13    1    4    4    0    0 -0.10097702965E+02  0.13566540502E+02  0.38953154897E+01  0.17355093580E+02  0.10566000000E+00 0.  1.
         14    1    4    4    0    0 -0.29947232427E+01  0.39758809637E+01  0.12852529261E+01  0.51408045889E+01  0.00000000000E+00 0. -1.
<mgrwt>
<rscale>  0 0.79174158E+02</rscale>
<asrwt>0</asrwt>
<pdfrwt beam="1">  1        1 0.21305231E-01 0.79174158E+02</pdfrwt>
<pdfrwt beam="2">  1       -2 0.17409807E-02 0.79174158E+02</pdfrwt>
<totfact> 0.15997376E+05</totfact>
</mgrwt>
</event>
<event>
 8    1  0.1372337E-020  0.7984611E+02  0.7818608E-02  0.1329489E+00
          1   -1    0    0  501    0  0.00000000000E+00  0.00000000000E+00  0.65864862040E+02  0.65864862233E+02  0.50400000000E-02 0. -1.
         -2   -1    0    0    0  501 -0.00000000000E+00 -0.00000000000E+00 -0.24198794352E+02  0.24198794486E+02  0.25500000000E-02 0.  1.
        -24    2    1    2    0    0  0.35527136788E-14  0.00000000000E+00  0.41666067688E+02  0.90063656719E+02  0.79846108641E+02 0.  0.
         66    2    3    3    0    0  0.20802262065E+02  0.14404528162E+02 -0.13949808057E+02  0.28962418291E+02  0.19999974629E+01 0.  0.
         13    1    3    3    0    0 -0.20802262065E+02 -0.14404528162E+02  0.55615875745E+02  0.61101238428E+02  0.10566000000E+00 0. -1.
         13    1    4    4    0    0  0.12660759688E+02  0.97897521513E+01 -0.85197493174E+01  0.18130950762E+02  0.10566000000E+00 0. -1.
        -13    1    4    4    0    0  0.52457578273E+01  0.32239335427E+01 -0.36584866772E+01  0.71629192005E+01  0.10566000000E+00 0.  1.
        -14    1    4    4    0    0  0.28957445495E+01  0.13908424676E+01 -0.17715720625E+01  0.36685483285E+01  0.00000000000E+00 0.  1.
<mgrwt>
<rscale>  0 0.79846109E+02</rscale>
<asrwt>0</asrwt>
<pdfrwt beam="1">  1        1 0.10133056E-01 0.79846109E+02</pdfrwt>
<pdfrwt beam="2">  1       -2 0.37228915E-02 0.79846109E+02</pdfrwt>
<totfact> 0.13810802E+05</totfact>
</mgrwt>
</event>
<event>
 8    1  0.1372337E-020  0.8035815E+02  0.7818608E-02  0.1328038E+00
          1   -1    0    0  501    0  0.00000000000E+00  0.00000000000E+00  0.18889054266E+02  0.18889054939E+02  0.50400000000E-02 0. -1.
         -2   -1    0    0    0  501 -0.00000000000E+00 -0.00000000000E+00 -0.85465257781E+02  0.85465257819E+02  0.25500000000E-02 0.  1.
        -24    2    1    2    0    0 -0.35527136788E-14 -0.35527136788E-14 -0.66576203515E+02  0.10435431276E+03  0.80358146549E+02 0.  0.
         66    2    3    3    0    0 -0.23206781801E+02 -0.27585152824E+02 -0.56278285549E+02  0.66863598490E+02  0.20000002201E+01 0.  0.
         13    1    3    3    0    0  0.23206781801E+02  0.27585152824E+02 -0.10297917966E+02  0.37490714268E+02  0.10566000000E+00 0. -1.
         13    1    4    4    0    0 -0.26224241966E+01 -0.29811920702E+01 -0.70622072869E+01  0.81025027384E+01  0.10566000000E+00 0. -1.
        -13    1    4    4    0    0 -0.16904284056E+02 -0.20019596969E+02 -0.41032652685E+02  0.48684995970E+02  0.10566000000E+00 0.  1.
        -14    1    4    4    0    0 -0.36800735482E+01 -0.45843637848E+01 -0.81834255772E+01  0.10076099782E+02  0.00000000000E+00 0.  1.
<mgrwt>
<rscale>  0 0.80358147E+02</rscale>
<asrwt>0</asrwt>
<pdfrwt beam="1">  1        1 0.29060085E-02 0.80358147E+02</pdfrwt>
<pdfrwt beam="2">  1       -2 0.13148501E-01 0.80358147E+02</pdfrwt>
<totfact> 0.10889562E+05</totfact>
</mgrwt>
</event>
<event>
 8    1  0.1372337E-020  0.7999681E+02  0.7818608E-02  0.1329060E+00
         -2   -1    0    0    0  501 -0.00000000000E+00  0.00000000000E+00  0.84191386284E+01  0.84191390146E+01  0.25500000000E-02 0.  1.
          1   -1    0    0  501    0  0.00000000000E+00 -0.00000000000E+00 -0.19002801899E+03  0.19002801906E+03  0.50400000000E-02 0. -1.
        -24    2    1    2    0    0  0.00000000000E+00 -0.22204460493E-15 -0.18160888036E+03  0.19844715807E+03  0.79996806939E+02 0.  0.
         66    2    3    3    0    0  0.37287083640E+02  0.10341084761E+01 -0.55215751849E+02  0.66664647525E+02  0.19999976569E+01 0.  0.
         13    1    3    3    0    0 -0.37287083640E+02 -0.10341084761E+01 -0.12639312851E+03  0.13178251055E+03  0.10566000000E+00 0. -1.
         13    1    4    4    0    0  0.55500203224E+01  0.31376364481E+00 -0.76835556502E+01  0.94841638888E+01  0.10566000000E+00 0. -1.
        -13    1    4    4    0    0  0.21604203480E+02  0.12270125011E+01 -0.32491863791E+02  0.39038180597E+02  0.10566000000E+00 0.  1.
         14    1    4    4    0    0  0.10132859838E+02 -0.50666766977E+00 -0.15040332408E+02  0.18142303039E+02  0.00000000000E+00 0. -1.
<mgrwt>
<rscale>  0 0.79996807E+02</rscale>
<asrwt>0</asrwt>
<pdfrwt beam="1">  1        1 0.29235077E-01 0.79996807E+02</pdfrwt>
<pdfrwt beam="2">  1       -2 0.12952523E-02 0.79996807E+02</pdfrwt>
<totfact> 0.16511414E+05</totfact>
</mgrwt>
</event>
<event>
 8    1  0.1372337E-020  0.7957734E+02  0.7818608E-02  0.1330255E+00
         -2   -1    0    0    0  501 -0.00000000000E+00  0.00000000000E+00  0.11864443011E+02  0.11864443285E+02  0.25500000000E-02 0.  1.
          1   -1    0    0  501    0  0.00000000000E+00 -0.00000000000E+00 -0.13343552935E+03  0.13343552944E+03  0.50400000000E-02 0. -1.
        -24    2    1    2    0    0  0.00000000000E+00 -0.71054273576E-14 -0.12157108634E+03  0.14529997273E+03  0.79577340002E+02 0.  0.
         66    2    3    3    0    0  0.13586560412E+02  0.34541693373E+02 -0.34782548909E+02  0.50907257979E+02  0.20000003599E+01 0.  0.
         13    1    3    3    0    0 -0.13586560412E+02 -0.34541693373E+02 -0.86788537429E+02  0.94392714750E+02  0.10566000000E+00 0. -1.
         13    1    4    4    0    0  0.12690170526E+00  0.95105929537E+00 -0.97530260740E+00  0.13722233921E+01  0.10566000000E+00 0.  1.
        -13    1    4    4    0    0  0.42627210073E+01  0.10928948546E+02 -0.10260823820E+02  0.15585518156E+02  0.10566000000E+00 0.  1.
        -14    1    4    4    0    0  0.91969376994E+01  0.22661685532E+02 -0.23546422482E+02  0.33949516431E+02  0.00000000000E+00 0.  1.
<mgrwt>
<rscale>  0 0.79577340E+02</rscale>
<asrwt>0</asrwt>
<pdfrwt beam="1">  1        1 0.20528542E-01 0.79577340E+02</pdfrwt>
<pdfrwt beam="2">  1       -2 0.18252990E-02 0.79577340E+02</pdfrwt>
<totfact> 0.15676150E+05</totfact>
</mgrwt>
</event>
<event>
 8    1  0.1372337E-020  0.8062935E+02  0.7818608E-02  0.1327275E+00
         -2   -1    0    0    0  501 -0.00000000000E+00  0.00000000000E+00  0.27703980437E+02  0.27703980554E+02  0.25500000000E-02 0.  1.
          1   -1    0    0  501    0  0.00000000000E+00 -0.00000000000E+00 -0.58665690205E+02  0.58665690421E+02  0.50400000000E-02 0. -1.
        -24    2    1    2    0    0  0.71054273576E-14  0.00000000000E+00 -0.30961709768E+02  0.86369670975E+02  0.80629353170E+02 0.  0.
         66    2    3    3    0    0  0.32444304123E+02 -0.17871290747E+02  0.14890761213E+01  0.37124563890E+02  0.19999983360E+01 0.  0.
         13    1    3    3    0    0 -0.32444304123E+02  0.17871290747E+02 -0.32450785889E+02  0.49245107085E+02  0.10566000000E+00 0. -1.
         13    1    4    4    0    0  0.94342738763E+01 -0.57580312723E+01  0.11794198104E+01  0.11115873462E+02  0.10566000000E+00 0. -1.
        -13    1    4    4    0    0  0.94503890668E+01 -0.50564208403E+01  0.29459986993E+00  0.10722648849E+02  0.10566000000E+00 0.  1.
         14    1    4    4    0    0  0.13559641180E+02 -0.70568386348E+01  0.15056440996E-01  0.15286041578E+02  0.00000000000E+00 0. -1.
<mgrwt>
<rscale>  0 0.80629353E+02</rscale>
<asrwt>0</asrwt>
<pdfrwt beam="1">  1        1 0.90254908E-02 0.80629353E+02</pdfrwt>
<pdfrwt beam="2">  1       -2 0.42621509E-02 0.80629353E+02</pdfrwt>
<totfact> 0.13202130E+05</totfact>
</mgrwt>
</event>
<event>
 8    1  0.1372337E-020  0.8040078E+02  0.7818608E-02  0.1327918E+00
         -2   -1    0    0    0  501 -0.00000000000E+00  0.00000000000E+00  0.49124332970E+02  0.49124333036E+02  0.25500000000E-02 0.  1.
          1   -1    0    0  501    0  0.00000000000E+00 -0.00000000000E+00 -0.32897574613E+02  0.32897574999E+02  0.50400000000E-02 0. -1.
        -24    2    1    2    0    0 -0.17763568394E-14  0.00000000000E+00  0.16226758357E+02  0.82021908035E+02  0.80400781780E+02 0.  0.
         66    2    3    3    0    0 -0.13537360329E+02  0.31608960603E+02  0.29314220760E+02  0.45229526333E+02  0.19999996276E+01 0.  0.
         13    1    3    3    0    0  0.13537360329E+02 -0.31608960603E+02 -0.13087462403E+02  0.36792381701E+02  0.10566000000E+00 0. -1.
         13    1    4    4    0    0 -0.27162710668E+01  0.48497606703E+01  0.50769822961E+01  0.75289587818E+01  0.10566000000E+00 0. -1.
        -13    1    4    4    0    0 -0.72921957240E+01  0.18991442414E+02  0.17265304884E+02  0.26682445919E+02  0.10566000000E+00 0.  1.
        -14    1    4    4    0    0 -0.35288935385E+01  0.77677575184E+01  0.69719335795E+01  0.11018121632E+02  0.00000000000E+00 0.  1.
<mgrwt>
<rscale>  0 0.80400782E+02</rscale>
<asrwt>0</asrwt>
<pdfrwt beam="1">  1        1 0.50611654E-02 0.80400782E+02</pdfrwt>
<pdfrwt beam="2">  1       -2 0.75575897E-02 0.80400782E+02</pdfrwt>
<totfact> 0.12116411E+05</totfact>
</mgrwt>
</event>
<event>
 8    1  0.1372337E-020  0.8047890E+02  0.7818608E-02  0.1327698E+00
         -2   -1    0    0    0  501 -0.00000000000E+00  0.00000000000E+00  0.80434311660E+01  0.80434315703E+01  0.25500000000E-02 0.  1.
          1   -1    0    0  501    0  0.00000000000E+00 -0.00000000000E+00 -0.20130877869E+03  0.20130877875E+03  0.50400000000E-02 0. -1.
        -24    2    1    2    0    0  0.00000000000E+00  0.00000000000E+00 -0.19326534752E+03  0.20935221032E+03  0.80478900425E+02 0.  0.
         66    2    3    3    0    0  0.18951657798E+02  0.35282882605E+02 -0.10612940620E+03  0.11345262444E+03  0.19999984356E+01 0.  0.
         13    1    3    3    0    0 -0.18951657798E+02 -0.35282882605E+02 -0.87135941327E+02  0.95899585886E+02  0.10566000000E+00 0. -1.
         13    1    4    4    0    0  0.40382028227E+01  0.77061126948E+01 -0.21586057955E+02  0.23273596993E+02  0.10566000000E+00 0. -1.
        -13    1    4    4    0    0  0.85838633117E+01  0.14707439088E+02 -0.44847810140E+02  0.47972166016E+02  0.10566000000E+00 0.  1.
        -14    1    4    4    0    0  0.63295916637E+01  0.12869330822E+02 -0.39695538101E+02  0.42206861428E+02  0.00000000000E+00 0.  1.
<mgrwt>
<rscale>  0 0.80478900E+02</rscale>
<asrwt>0</asrwt>
<pdfrwt beam="1">  1        1 0.30970578E-01 0.80478900E+02</pdfrwt>
<pdfrwt beam="2">  1       -2 0.12374511E-02 0.80478900E+02</pdfrwt>
<totfact> 0.16432527E+05</totfact>
</mgrwt>
</event>
<event>
 8    1  0.1372337E-020  0.8127585E+02  0.7818608E-02  0.1325469E+00
          1   -1    0    0  501    0  0.00000000000E+00  0.00000000000E+00  0.26193546539E+02  0.26193547024E+02  0.50400000000E-02 0. -1.
         -2   -1    0    0    0  501 -0.00000000000E+00 -0.00000000000E+00 -0.63047620245E+02  0.63047620296E+02  0.25500000000E-02 0.  1.
        -24    2    1    2    0    0 -0.10061396161E-15 -0.71054273576E-14 -0.36854073705E+02  0.89241167320E+02  0.81275846326E+02 0.  0.
         66    2    3    3    0    0  0.25819864674E-01 -0.40578106254E+02 -0.16583724500E+02  0.43881696482E+02  0.19999985109E+01 0.  0.
         13    1    3    3    0    0 -0.25819864674E-01  0.40578106254E+02 -0.20270349205E+02  0.45359470838E+02  0.10566000000E+00 0. -1.
         13    1    4    4    0    0 -0.25335319638E+00 -0.71964364452E+01 -0.31179615773E+01  0.78476578535E+01  0.10566000000E+00 0. -1.
        -13    1    4    4    0    0  0.66046680437E+00 -0.21101274033E+02 -0.91845446594E+01  0.23023184116E+02  0.10566000000E+00 0.  1.
        -14    1    4    4    0    0 -0.38129374332E+00 -0.12280395775E+02 -0.42812182635E+01  0.13010854512E+02  0.00000000000E+00 0.  1.
<mgrwt>
<rscale>  0 0.81275846E+02</rscale>
<asrwt>0</asrwt>
<pdfrwt beam="1">  1        1 0.40297764E-02 0.81275846E+02</pdfrwt>
<pdfrwt beam="2">  1       -2 0.96996339E-02 0.81275846E+02</pdfrwt>
<totfact> 0.11268010E+05</totfact>
</mgrwt>
</event>
<event>
 8    1  0.1372337E-020  0.8059111E+02  0.7818608E-02  0.1327382E+00
         -2   -1    0    0    0  501 -0.00000000000E+00  0.00000000000E+00  0.11737866357E+02  0.11737866634E+02  0.25500000000E-02 0.  1.
          1   -1    0    0  501    0  0.00000000000E+00 -0.00000000000E+00 -0.13833276803E+03  0.13833276812E+03  0.50400000000E-02 0. -1.
        -24    2    1    2    0    0  0.00000000000E+00  0.00000000000E+00 -0.12659490167E+03  0.15007063475E+03  0.80591105502E+02 0.  0.
         66    2    3    3    0    0 -0.32313007280E+02  0.82037233304E+01 -0.21271479115E+02  0.39596809713E+02  0.19999999339E+01 0.  0.
         13    1    3    3    0    0  0.32313007280E+02 -0.82037233304E+01 -0.10532342255E+03  0.11047382504E+03  0.10566000000E+00 0. -1.
         13    1    4    4    0    0 -0.20659491274E+01  0.84024276321E+00 -0.11112970861E+01  0.24940527155E+01  0.10566000000E+00 0. -1.
        -13    1    4    4    0    0 -0.14877082051E+02  0.41479274646E+01 -0.99428249023E+01  0.18368554752E+02  0.10566000000E+00 0.  1.
         14    1    4    4    0    0 -0.15369976102E+02  0.32155531026E+01 -0.10217357127E+02  0.18734202246E+02  0.00000000000E+00 0. -1.
<mgrwt>
<rscale>  0 0.80591106E+02</rscale>
<asrwt>0</asrwt>
<pdfrwt beam="1">  1        1 0.21281963E-01 0.80591106E+02</pdfrwt>
<pdfrwt beam="2">  1       -2 0.18058257E-02 0.80591106E+02</pdfrwt>
<totfact> 0.15252492E+05</totfact>
</mgrwt>
</event>
<event>
 8    1  0.1372337E-020  0.7595677E+02  0.7818608E-02  0.1340934E+00
         -2   -1    0    0    0  501 -0.00000000000E+00  0.00000000000E+00  0.14055910021E+02  0.14055910252E+02  0.25500000000E-02 0.  1.
          1   -1    0    0  501    0  0.00000000000E+00 -0.00000000000E+00 -0.10261574523E+03  0.10261574535E+03  0.50400000000E-02 0. -1.
        -24    2    1    2    0    0 -0.35527136788E-14  0.44408920985E-15 -0.88559835206E+02  0.11667165560E+03  0.75956769345E+02 0.  0.
         66    2    3    3    0    0 -0.25357288110E+02  0.39588882530E+01 -0.13652371210E+01  0.25778454780E+02  0.20000004978E+01 0.  0.
         13    1    3    3    0    0  0.25357288110E+02 -0.39588882530E+01 -0.87194598085E+02  0.90893200823E+02  0.10566000000E+00 0. -1.
         13    1    4    4    0    0 -0.10152531796E+02  0.12785986471E+01 -0.10341209773E+01  0.10285391903E+02  0.10566000000E+00 0.  1.
        -13    1    4    4    0    0 -0.32328032223E+01  0.61936687806E+00 -0.57213803400E+00  0.33426244134E+01  0.10566000000E+00 0. -1.
        -14    1    4    4    0    0 -0.11971953092E+02  0.20609227278E+01  0.24102189032E+00  0.12150438464E+02  0.00000000000E+00 0.  1.
<mgrwt>
<rscale>  0 0.75956769E+02</rscale>
<asrwt>0</asrwt>
<pdfrwt beam="1">  1        1 0.15787037E-01 0.75956769E+02</pdfrwt>
<pdfrwt beam="2">  1       -2 0.21624478E-02 0.75956769E+02</pdfrwt>
<totfact> 0.16974654E+05</totfact>
</mgrwt>
</event>
<event>
 8    1  0.1372337E-020  0.7847149E+02  0.7818608E-02  0.1333446E+00
          1   -1    0    0  501    0  0.00000000000E+00  0.00000000000E+00  0.10281213686E+03  0.10281213698E+03  0.50400000000E-02 0. -1.
         -2   -1    0    0    0  501 -0.00000000000E+00 -0.00000000000E+00 -0.14973366523E+02  0.14973366740E+02  0.25500000000E-02 0.  1.
        -24    2    1    2    0    0  0.00000000000E+00  0.00000000000E+00  0.87838770334E+02  0.11778550372E+03  0.78471493631E+02 0.  0.
         66    2    3    3    0    0 -0.66402671154E+01  0.30296195957E+02  0.79399677720E+01  0.32077963493E+02  0.20000042127E+01 0.  0.
         13    1    3    3    0    0  0.66402671154E+01 -0.30296195957E+02  0.79898802562E+02  0.85707540227E+02  0.10566000000E+00 0. -1.
         13    1    4    4    0    0 -0.18039778484E+01  0.81024398383E+01  0.25828020823E+01  0.86940150703E+01  0.10566000000E+00 0. -1.
        -13    1    4    4    0    0 -0.36828703824E+01  0.14073268396E+02  0.30532872357E+01  0.14864526383E+02  0.10566000000E+00 0.  1.
         14    1    4    4    0    0 -0.11534188847E+01  0.81204877220E+01  0.23038784541E+01  0.85194220401E+01  0.00000000000E+00 0. -1.
<mgrwt>
<rscale>  0 0.78471494E+02</rscale>
<asrwt>0</asrwt>
<pdfrwt beam="1">  1        1 0.15817252E-01 0.78471494E+02</pdfrwt>
<pdfrwt beam="2">  1       -2 0.23035949E-02 0.78471494E+02</pdfrwt>
<totfact> 0.15556709E+05</totfact>
</mgrwt>
</event>
<event>
 8    1  0.1372337E-020  0.8477754E+02  0.7818608E-02  0.1316015E+00
         -2   -1    0    0    0  501 -0.00000000000E+00  0.00000000000E+00  0.69024841501E+01  0.69024846212E+01  0.25500000000E-02 0.  1.
          1   -1    0    0  501    0  0.00000000000E+00 -0.00000000000E+00 -0.26031318999E+03  0.26031319004E+03  0.50400000000E-02 0. -1.
        -24    2    1    2    0    0  0.71054273576E-14  0.00000000000E+00 -0.25341070584E+03  0.26721567466E+03  0.84777538002E+02 0.  0.
         66    2    3    3    0    0  0.41219295105E+02 -0.67855397845E+01 -0.10454843851E+03  0.11260306315E+03  0.19999992297E+01 0.  0.
         13    1    3    3    0    0 -0.41219295105E+02  0.67855397845E+01 -0.14886226733E+03  0.15461261150E+03  0.10566000000E+00 0. -1.
         13    1    4    4    0    0  0.25781610404E+01 -0.71657848638E+00 -0.64618296842E+01  0.69947699019E+01  0.10566000000E+00 0. -1.
        -13    1    4    4    0    0  0.79485996680E+01 -0.70818774740E+00 -0.19365772506E+02  0.20945788965E+02  0.10566000000E+00 0.  1.
        -14    1    4    4    0    0  0.30692534397E+02 -0.53607735507E+01 -0.78720836323E+02  0.84662504287E+02  0.00000000000E+00 0.  1.
<mgrwt>
<rscale>  0 0.84777538E+02</rscale>
<asrwt>0</asrwt>
<pdfrwt beam="1">  1        1 0.40048176E-01 0.84777538E+02</pdfrwt>
<pdfrwt beam="2">  1       -2 0.10619209E-02 0.84777538E+02</pdfrwt>
<totfact> 0.15051653E+05</totfact>
</mgrwt>
</event>
<event>
 8    1  0.1372337E-020  0.7954625E+02  0.7818608E-02  0.1330344E+00
         -2   -1    0    0    0  501 -0.00000000000E+00  0.00000000000E+00  0.62336420315E+02  0.62336420367E+02  0.25500000000E-02 0.  1.
          1   -1    0    0  501    0  0.00000000000E+00 -0.00000000000E+00 -0.25376842710E+02  0.25376843210E+02  0.50400000000E-02 0. -1.
        -24    2    1    2    0    0  0.00000000000E+00  0.00000000000E+00  0.36959577605E+02  0.87713263578E+02  0.79546252147E+02 0.  0.
         66    2    3    3    0    0 -0.89990989380E+01 -0.13050378570E+02  0.58683727587E+02  0.60820029874E+02  0.19999969619E+01 0.  0.
         13    1    3    3    0    0  0.89990989380E+01  0.13050378570E+02 -0.21724149982E+02  0.26893233703E+02  0.10566000000E+00 0. -1.
         13    1    4    4    0    0 -0.37920463382E+01 -0.53601511059E+01  0.22517723288E+02  0.23455699977E+02  0.10566000000E+00 0. -1.
        -13    1    4    4    0    0 -0.39436839195E+01 -0.53201987301E+01  0.23426295781E+02  0.24344602183E+02  0.10566000000E+00 0.  1.
         14    1    4    4    0    0 -0.12633686803E+01 -0.23700287343E+01  0.12739708518E+02  0.13019727714E+02  0.00000000000E+00 0. -1.
<mgrwt>
<rscale>  0 0.79546252E+02</rscale>
<asrwt>0</asrwt>
<pdfrwt beam="1">  1        1 0.39041298E-02 0.79546252E+02</pdfrwt>
<pdfrwt beam="2">  1       -2 0.95902184E-02 0.79546252E+02</pdfrwt>
<totfact> 0.11924662E+05</totfact>
</mgrwt>
</event>
<event>
 8    1  0.1372337E-020  0.7941241E+02  0.7818608E-02  0.1330727E+00
         -2   -1    0    0    0  501 -0.00000000000E+00  0.00000000000E+00  0.78600093704E+01  0.78600097841E+01  0.25500000000E-02 0.  1.
          1   -1    0    0  501    0  0.00000000000E+00 -0.00000000000E+00 -0.20058278326E+03  0.20058278333E+03  0.50400000000E-02 0. -1.
        -24    2    1    2    0    0  0.71054273576E-14  0.27755575616E-16 -0.19272277389E+03  0.20844279311E+03  0.79412407235E+02 0.  0.
         66    2    3    3    0    0  0.39285552353E+02  0.22137599387E+00 -0.11107764442E+03  0.11783737406E+03  0.20000010213E+01 0.  0.
         13    1    3    3    0    0 -0.39285552353E+02 -0.22137599387E+00 -0.81645129472E+02  0.90605419051E+02  0.10566000000E+00 0. -1.
         13    1    4    4    0    0  0.13305415530E+02  0.38833558055E+00 -0.38396043690E+02  0.40638063709E+02  0.10566000000E+00 0. -1.
        -13    1    4    4    0    0  0.26304285386E+01 -0.27328254488E-01 -0.61774744297E+01  0.67150767305E+01  0.10566000000E+00 0.  1.
        -14    1    4    4    0    0  0.23349708284E+02 -0.13963133220E+00 -0.66504126300E+02  0.70484233619E+02  0.00000000000E+00 0.  1.
<mgrwt>
<rscale>  0 0.79412407E+02</rscale>
<asrwt>0</asrwt>
<pdfrwt beam="1">  1        1 0.30858886E-01 0.79412407E+02</pdfrwt>
<pdfrwt beam="2">  1       -2 0.12092324E-02 0.79412407E+02</pdfrwt>
<totfact> 0.17012943E+05</totfact>
</mgrwt>
</event>
<event>
 8    1  0.1372337E-020  0.8055480E+02  0.7818608E-02  0.1327484E+00
         -2   -1    0    0    0  501 -0.00000000000E+00  0.00000000000E+00  0.13226329365E+03  0.13226329368E+03  0.25500000000E-02 0.  1.
          1   -1    0    0  501    0  0.00000000000E+00 -0.00000000000E+00 -0.12265450890E+02  0.12265451926E+02  0.50400000000E-02 0. -1.
        -24    2    1    2    0    0 -0.83266726847E-16  0.00000000000E+00  0.11999784276E+03  0.14452874560E+03  0.80554801458E+02 0.  0.
         66    2    3    3    0    0  0.22372522483E+00  0.39976989395E+02  0.68461570917E+02  0.79304454009E+02  0.19999998205E+01 0.  0.
         13    1    3    3    0    0 -0.22372522483E+00 -0.39976989395E+02  0.51536271848E+02  0.65224291596E+02  0.10566000000E+00 0. -1.
         13    1    4    4    0    0 -0.49492346727E+00  0.10897751258E+02  0.17892566359E+02  0.20956169180E+02  0.10566000000E+00 0. -1.
        -13    1    4    4    0    0 -0.26563688911E-01  0.18703452406E+02  0.32830871520E+02  0.37784879599E+02  0.10566000000E+00 0.  1.
        -14    1    4    4    0    0  0.74521238101E+00  0.10375785731E+02  0.17738133037E+02  0.20563405231E+02  0.00000000000E+00 0.  1.
<mgrwt>
<rscale>  0 0.80554801E+02</rscale>
<asrwt>0</asrwt>
<pdfrwt beam="1">  1        1 0.18869926E-02 0.80554801E+02</pdfrwt>
<pdfrwt beam="2">  1       -2 0.20348199E-01 0.80554801E+02</pdfrwt>
<totfact> 0.96593647E+04</totfact>
</mgrwt>
</event>
<event>
 8    1  0.1372337E-020  0.8067504E+02  0.7818608E-02  0.1327147E+00
         -2   -1    0    0    0  501 -0.00000000000E+00  0.00000000000E+00  0.96233848431E+03  0.96233848431E+03  0.25500000000E-02 0.  1.
          1   -1    0    0  501    0  0.00000000000E+00 -0.00000000000E+00 -0.16907896542E+01  0.16907971659E+01  0.50400000000E-02 0. -1.
        -24    2    1    2    0    0  0.17763568394E-14  0.00000000000E+00  0.96064769466E+03  0.96402928148E+03  0.80675041382E+02 0.  0.
         66    2    3    3    0    0 -0.99715833567E+01  0.18977858340E+02  0.88857176823E+03  0.88883259328E+03  0.20000004066E+01 0.  0.
         13    1    3    3    0    0  0.99715833567E+01 -0.18977858340E+02  0.72075926427E+02  0.75196688199E+02  0.10566000000E+00 0. -1.
         13    1    4    4    0    0 -0.20276007036E+01  0.44608482301E+01  0.21319713680E+03  0.21325346570E+03  0.10566000000E+00 0. -1.
        -13    1    4    4    0    0 -0.65368330906E+01  0.12563895261E+02  0.59447151321E+03  0.59464020452E+03  0.10566000000E+00 0.  1.
         14    1    4    4    0    0 -0.14071495625E+01  0.19531148483E+01  0.80903118226E+02  0.80938923061E+02  0.00000000000E+00 0. -1.
<mgrwt>
<rscale>  0 0.80675041E+02</rscale>
<asrwt>0</asrwt>
<pdfrwt beam="1">  1        1 0.26012299E-03 0.80675041E+02</pdfrwt>
<pdfrwt beam="2">  1       -2 0.14805155E+00 0.80675041E+02</pdfrwt>
<totfact> 0.26668606E+04</totfact>
</mgrwt>
</event>
<event>
 8    1  0.1372337E-020  0.7840307E+02  0.7818608E-02  0.1333645E+00
         -2   -1    0    0    0  501 -0.00000000000E+00  0.00000000000E+00  0.20076272974E+02  0.20076273136E+02  0.25500000000E-02 0.  1.
          1   -1    0    0  501    0  0.00000000000E+00 -0.00000000000E+00 -0.76546096913E+02  0.76546097079E+02  0.50400000000E-02 0. -1.
        -24    2    1    2    0    0  0.17763568394E-14  0.00000000000E+00 -0.56469823939E+02  0.96622370215E+02  0.78403070158E+02 0.  0.
         66    2    3    3    0    0  0.97289895900E+01 -0.19405854386E+02  0.11936620027E+02  0.24854040410E+02  0.20000010294E+01 0.  0.
         13    1    3    3    0    0 -0.97289895900E+01  0.19405854386E+02 -0.68406443966E+02  0.71768329805E+02  0.10566000000E+00 0. -1.
         13    1    4    4    0    0  0.65837431024E+00 -0.16137574104E+01  0.93585430216E+00  0.19810747140E+01  0.10566000000E+00 0. -1.
        -13    1    4    4    0    0  0.70555816148E+01 -0.13367194512E+02  0.74451450046E+01  0.16849464953E+02  0.10566000000E+00 0.  1.
        -14    1    4    4    0    0  0.20150336649E+01 -0.44249024643E+01  0.35556207203E+01  0.60235007425E+01  0.00000000000E+00 0.  1.
<mgrwt>
<rscale>  0 0.78403070E+02</rscale>
<asrwt>0</asrwt>
<pdfrwt beam="1">  1        1 0.11776322E-01 0.78403070E+02</pdfrwt>
<pdfrwt beam="2">  1       -2 0.30886574E-02 0.78403070E+02</pdfrwt>
<totfact> 0.14863850E+05</totfact>
</mgrwt>
</event>
<event>
 8    1  0.1372337E-020  0.8231965E+02  0.7818608E-02  0.1322595E+00
          1   -1    0    0  501    0  0.00000000000E+00  0.00000000000E+00  0.52284625797E+02  0.52284626040E+02  0.50400000000E-02 0. -1.
         -2   -1    0    0    0  501 -0.00000000000E+00 -0.00000000000E+00 -0.32402087202E+02  0.32402087302E+02  0.25500000000E-02 0.  1.
        -24    2    1    2    0    0  0.00000000000E+00 -0.35527136788E-14  0.19882538595E+02  0.84686713342E+02  0.82319645746E+02 0.  0.
         66    2    3    3    0    0 -0.13547320796E+02  0.25239128733E+02 -0.20424364443E+02  0.35237738464E+02  0.20000073101E+01 0.  0.
         13    1    3    3    0    0  0.13547320796E+02 -0.25239128733E+02  0.40306903038E+02  0.49448974878E+02  0.10566000000E+00 0. -1.
         13    1    4    4    0    0 -0.72608759447E+01  0.13957596092E+02 -0.12233413419E+02  0.19929936680E+02  0.10566000000E+00 0. -1.
        -13    1    4    4    0    0 -0.45321737930E+01  0.80322071280E+01 -0.61903693990E+01  0.11108050593E+02  0.10566000000E+00 0.  1.
         14    1    4    4    0    0 -0.17542710586E+01  0.32493255130E+01 -0.20005816250E+01  0.41997511920E+01  0.00000000000E+00 0. -1.
<mgrwt>
<rscale>  0 0.82319646E+02</rscale>
<asrwt>0</asrwt>
<pdfrwt beam="1">  1        1 0.80437887E-02 0.82319646E+02</pdfrwt>
<pdfrwt beam="2">  1       -2 0.49849365E-02 0.82319646E+02</pdfrwt>
<totfact> 0.12236970E+05</totfact>
</mgrwt>
</event>
<event>
 8    1  0.1372337E-020  0.7839585E+02  0.7818608E-02  0.1333666E+00
         -2   -1    0    0    0  501 -0.00000000000E+00  0.00000000000E+00  0.16276219684E+03  0.16276219686E+03  0.25500000000E-02 0.  1.
          1   -1    0    0  501    0  0.00000000000E+00 -0.00000000000E+00 -0.94400115426E+01  0.94400128881E+01  0.50400000000E-02 0. -1.
        -24    2    1    2    0    0 -0.71054273576E-14  0.00000000000E+00  0.15332218530E+03  0.17220220975E+03  0.78395845157E+02 0.  0.
         66    2    3    3    0    0 -0.28227426904E+02 -0.25287214274E+02  0.98482573582E+02  0.10554168910E+03  0.20000010743E+01 0.  0.
         13    1    3    3    0    0  0.28227426904E+02  0.25287214274E+02  0.54839611717E+02  0.66660520645E+02  0.10566000000E+00 0. -1.
         13    1    4    4    0    0 -0.95200887058E+00 -0.11002472388E+01  0.37170223272E+01  0.39930294129E+01  0.10566000000E+00 0. -1.
        -13    1    4    4    0    0 -0.13622562415E+02 -0.12801130096E+02  0.50261717486E+02  0.53625502769E+02  0.10566000000E+00 0.  1.
         14    1    4    4    0    0 -0.13652855618E+02 -0.11385836939E+02  0.44503833769E+02  0.47923156923E+02  0.00000000000E+00 0. -1.
<mgrwt>
<rscale>  0 0.78395845E+02</rscale>
<asrwt>0</asrwt>
<pdfrwt beam="1">  1        1 0.14523098E-02 0.78395845E+02</pdfrwt>
<pdfrwt beam="2">  1       -2 0.25040335E-01 0.78395845E+02</pdfrwt>
<totfact> 0.96855727E+04</totfact>
</mgrwt>
</event>
<event>
 8    1  0.1372337E-020  0.7712013E+02  0.7818608E-02  0.1337429E+00
         -2   -1    0    0    0  501 -0.00000000000E+00  0.00000000000E+00  0.24411157450E+02  0.24411157584E+02  0.25500000000E-02 0.  1.
          1   -1    0    0  501    0  0.00000000000E+00 -0.00000000000E+00 -0.60909793857E+02  0.60909794066E+02  0.50400000000E-02 0. -1.
        -24    2    1    2    0    0  0.00000000000E+00 -0.17763568394E-14 -0.36498636407E+02  0.85320951650E+02  0.77120129219E+02 0.  0.
         66    2    3    3    0    0 -0.11035935733E+02  0.13807903149E+02  0.19620208575E+02  0.26484007533E+02  0.20000009049E+01 0.  0.
         13    1    3    3    0    0  0.11035935733E+02 -0.13807903149E+02 -0.56118844982E+02  0.58836944117E+02  0.10566000000E+00 0. -1.
         13    1    4    4    0    0 -0.61382636104E+00  0.66542453020E+00  0.49619307280E+00  0.10377592245E+01  0.10566000000E+00 0. -1.
        -13    1    4    4    0    0 -0.81859427807E+01  0.98827620811E+01  0.14680403749E+02  0.19498822114E+02  0.10566000000E+00 0.  1.
         14    1    4    4    0    0 -0.22361665910E+01  0.32597165377E+01  0.44436117526E+01  0.59474261943E+01  0.00000000000E+00 0. -1.
<mgrwt>
<rscale>  0 0.77120129E+02</rscale>
<asrwt>0</asrwt>
<pdfrwt beam="1">  1        1 0.93707375E-02 0.77120129E+02</pdfrwt>
<pdfrwt beam="2">  1       -2 0.37555627E-02 0.77120129E+02</pdfrwt>
<totfact> 0.15008069E+05</totfact>
</mgrwt>
</event>
<event>
 8    1  0.1372337E-020  0.8190475E+02  0.7818608E-02  0.1323731E+00
          1   -1    0    0  501    0  0.00000000000E+00  0.00000000000E+00  0.11470246925E+02  0.11470248033E+02  0.50400000000E-02 0. -1.
         -2   -1    0    0    0  501 -0.00000000000E+00 -0.00000000000E+00 -0.14621278364E+03  0.14621278366E+03  0.25500000000E-02 0.  1.
        -24    2    1    2    0    0 -0.17763568394E-14 -0.35527136788E-14 -0.13474253671E+03  0.15768303169E+03  0.81904745186E+02 0.  0.
         66    2    3    3    0    0 -0.12855901660E+02  0.17071754102E+02 -0.13461082141E+03  0.13631137971E+03  0.20000003842E+01 0.  0.
         13    1    3    3    0    0  0.12855901660E+02 -0.17071754102E+02 -0.13171530262E+00  0.21371651985E+02  0.10566000000E+00 0. -1.
         13    1    4    4    0    0 -0.75719472337E+01  0.96940069792E+01 -0.76245342009E+02  0.77231285748E+02  0.10566000000E+00 0. -1.
        -13    1    4    4    0    0 -0.23731075189E+01  0.42637557997E+01 -0.29312126687E+02  0.29715706079E+02  0.10566000000E+00 0.  1.
        -14    1    4    4    0    0 -0.29108469072E+01  0.31139913234E+01 -0.29053352711E+02  0.29364387878E+02  0.00000000000E+00 0.  1.
<mgrwt>
<rscale>  0 0.81904745E+02</rscale>
<asrwt>0</asrwt>
<pdfrwt beam="1">  1        1 0.17646536E-02 0.81904745E+02</pdfrwt>
<pdfrwt beam="2">  1       -2 0.22494273E-01 0.81904745E+02</pdfrwt>
<totfact> 0.89698814E+04</totfact>
</mgrwt>
</event>
<event>
 8    1  0.1372337E-020  0.7757696E+02  0.7818608E-02  0.1336072E+00
         -2   -1    0    0    0  501 -0.00000000000E+00  0.00000000000E+00  0.19159801727E+02  0.19159801896E+02  0.25500000000E-02 0.  1.
          1   -1    0    0  501    0  0.00000000000E+00 -0.00000000000E+00 -0.78526189220E+02  0.78526189382E+02  0.50400000000E-02 0. -1.
        -24    2    1    2    0    0  0.17763568394E-14  0.00000000000E+00 -0.59366387493E+02  0.97685991278E+02  0.77576961322E+02 0.  0.
         66    2    3    3    0    0  0.13959441526E+02  0.85017129577E+01  0.14556240008E+02  0.21977925977E+02  0.19999940298E+01 0.  0.
         13    1    3    3    0    0 -0.13959441526E+02 -0.85017129577E+01 -0.73922627501E+02  0.75708065301E+02  0.10566000000E+00 0. -1.
         13    1    4    4    0    0  0.60198920679E+00  0.46249383340E+00  0.38092777217E+00  0.85589809805E+00  0.10566000000E+00 0. -1.
        -13    1    4    4    0    0  0.48037668823E+01  0.36079632691E+01  0.59246450514E+01  0.84383741462E+01  0.10566000000E+00 0.  1.
        -14    1    4    4    0    0  0.85536854371E+01  0.44312558552E+01  0.82506671846E+01  0.12683653732E+02  0.00000000000E+00 0.  1.
<mgrwt>
<rscale>  0 0.77576961E+02</rscale>
<asrwt>0</asrwt>
<pdfrwt beam="1">  1        1 0.12080952E-01 0.77576961E+02</pdfrwt>
<pdfrwt beam="2">  1       -2 0.29476619E-02 0.77576961E+02</pdfrwt>
<totfact> 0.15359628E+05</totfact>
</mgrwt>
</event>
<event>
 8    1  0.1372337E-020  0.7950941E+02  0.7818608E-02  0.1330449E+00
         -2   -1    0    0    0  501 -0.00000000000E+00  0.00000000000E+00  0.19764859088E+03  0.19764859089E+03  0.25500000000E-02 0.  1.
          1   -1    0    0  501    0  0.00000000000E+00 -0.00000000000E+00 -0.79961941584E+01  0.79961957468E+01  0.50400000000E-02 0. -1.
        -24    2    1    2    0    0  0.00000000000E+00  0.00000000000E+00  0.18965239672E+03  0.20564478664E+03  0.79509412595E+02 0.  0.
         66    2    3    3    0    0 -0.17207450282E+02 -0.10447108096E+02  0.18347587706E+03  0.18458774573E+03  0.19999995610E+01 0.  0.
         13    1    3    3    0    0  0.17207450282E+02  0.10447108096E+02  0.61765196600E+01  0.21057040911E+02  0.10566000000E+00 0. -1.
         13    1    4    4    0    0 -0.60914889746E+01 -0.32214821013E+01  0.69888914137E+02  0.70227883837E+02  0.10566000000E+00 0. -1.
        -13    1    4    4    0    0 -0.47404589749E+01 -0.31384730906E+01  0.51322973544E+02  0.51637009422E+02  0.10566000000E+00 0.  1.
         14    1    4    4    0    0 -0.63755023324E+01 -0.40871529044E+01  0.62263989377E+02  0.62722852470E+02  0.00000000000E+00 0. -1.
<mgrwt>
<rscale>  0 0.79509413E+02</rscale>
<asrwt>0</asrwt>
<pdfrwt beam="1">  1        1 0.12301837E-02 0.79509413E+02</pdfrwt>
<pdfrwt beam="2">  1       -2 0.30407478E-01 0.79509413E+02</pdfrwt>
<totfact> 0.86850321E+04</totfact>
</mgrwt>
</event>
<event>
 8    1  0.1372337E-020  0.7967016E+02  0.7818608E-02  0.1329990E+00
         -2   -1    0    0    0  501 -0.00000000000E+00  0.00000000000E+00  0.97077257281E+02  0.97077257314E+02  0.25500000000E-02 0.  1.
          1   -1    0    0  501    0  0.00000000000E+00 -0.00000000000E+00 -0.16346089954E+02  0.16346090731E+02  0.50400000000E-02 0. -1.
        -24    2    1    2    0    0  0.00000000000E+00  0.35527136788E-14  0.80731167327E+02  0.11342334805E+03  0.79670160687E+02 0.  0.
         66    2    3    3    0    0  0.51465810086E+01  0.29185010773E+02  0.78234021187E+02  0.83682819254E+02  0.20000043242E+01 0.  0.
         13    1    3    3    0    0 -0.51465810086E+01 -0.29185010773E+02  0.24971461397E+01  0.29740528791E+02  0.10566000000E+00 0. -1.
         13    1    4    4    0    0  0.25588386564E+00  0.51613514566E+01  0.14277551380E+02  0.15184355859E+02  0.10566000000E+00 0. -1.
        -13    1    4    4    0    0  0.19107172532E+01  0.98966540148E+01  0.25342612439E+02  0.27273682743E+02  0.10566000000E+00 0.  1.
         14    1    4    4    0    0  0.29799798897E+01  0.14127005302E+02  0.38613857367E+02  0.41224780651E+02  0.00000000000E+00 0. -1.
<mgrwt>
<rscale>  0 0.79670161E+02</rscale>
<asrwt>0</asrwt>
<pdfrwt beam="1">  1        1 0.25147831E-02 0.79670161E+02</pdfrwt>
<pdfrwt beam="2">  1       -2 0.14934963E-01 0.79670161E+02</pdfrwt>
<totfact> 0.10804078E+05</totfact>
</mgrwt>
</event>
<event>
 8    1  0.1372337E-020  0.8053122E+02  0.7818608E-02  0.1327551E+00
          1   -1    0    0  501    0  0.00000000000E+00  0.00000000000E+00  0.47469684955E+03  0.47469684957E+03  0.50400000000E-02 0. -1.
         -2   -1    0    0    0  501 -0.00000000000E+00 -0.00000000000E+00 -0.34154829395E+01  0.34154838914E+01  0.25500000000E-02 0.  1.
        -24    2    1    2    0    0  0.35527136788E-14 -0.35527136788E-14  0.47128136661E+03  0.47811233347E+03  0.80531216929E+02 0.  0.
         66    2    3    3    0    0  0.18608954597E+02 -0.19335852853E+02  0.41381052021E+03  0.41468459705E+03  0.19999998758E+01 0.  0.
         13    1    3    3    0    0 -0.18608954597E+02  0.19335852853E+02  0.57470846399E+02  0.63427736414E+02  0.10566000000E+00 0. -1.
         13    1    4    4    0    0  0.57581870043E+01 -0.68121855542E+01  0.14413370526E+03  0.14440948288E+03  0.10566000000E+00 0. -1.
        -13    1    4    4    0    0  0.53519576791E+01 -0.53753265641E+01  0.12144527451E+03  0.12168197669E+03  0.10566000000E+00 0.  1.
         14    1    4    4    0    0  0.74988099132E+01 -0.71483407352E+01  0.14823154044E+03  0.14859313749E+03  0.00000000000E+00 0. -1.
<mgrwt>
<rscale>  0 0.80531217E+02</rscale>
<asrwt>0</asrwt>
<pdfrwt beam="1">  1        1 0.73030290E-01 0.80531217E+02</pdfrwt>
<pdfrwt beam="2">  1       -2 0.52545895E-03 0.80531217E+02</pdfrwt>
<totfact> 0.19146871E+05</totfact>
</mgrwt>
</event>
<event>
 8    1  0.1372337E-020  0.7524428E+02  0.7818608E-02  0.1343116E+00
          1   -1    0    0  501    0  0.00000000000E+00  0.00000000000E+00  0.58208001344E+01  0.58208023164E+01  0.50400000000E-02 0. -1.
         -2   -1    0    0    0  501 -0.00000000000E+00 -0.00000000000E+00 -0.24316676000E+03  0.24316676001E+03  0.25500000000E-02 0.  1.
        -24    2    1    2    0    0  0.00000000000E+00 -0.71054273576E-14 -0.23734595986E+03  0.24898756233E+03  0.75244279054E+02 0.  0.
         66    2    3    3    0    0 -0.24249160077E+01  0.37046786375E+02 -0.99158715022E+02  0.10589993044E+03  0.19999760064E+01 0.  0.
         13    1    3    3    0    0  0.24249160077E+01 -0.37046786375E+02 -0.13818724484E+03  0.14308763189E+03  0.10566000000E+00 0. -1.
         13    1    4    4    0    0  0.27510400419E-01  0.55652252118E+00 -0.10328779039E+01  0.11783356647E+01  0.10566000000E+00 0. -1.
        -13    1    4    4    0    0 -0.14270591744E+01  0.25269502982E+02 -0.67716284131E+02  0.72291704776E+02  0.10566000000E+00 0.  1.
        -14    1    4    4    0    0 -0.10253672337E+01  0.11220760872E+02 -0.30409552987E+02  0.32429889999E+02  0.00000000000E+00 0.  1.
<mgrwt>
<rscale>  0 0.75244279E+02</rscale>
<asrwt>0</asrwt>
<pdfrwt beam="1">  1        1 0.89550807E-03 0.75244279E+02</pdfrwt>
<pdfrwt beam="2">  1       -2 0.37410263E-01 0.75244279E+02</pdfrwt>
<totfact> 0.91495257E+04</totfact>
</mgrwt>
</event>
<event>
 8    1  0.1372337E-020  0.7779955E+02  0.7818608E-02  0.1335415E+00
          1   -1    0    0  501    0  0.00000000000E+00  0.00000000000E+00  0.34214204916E+01  0.34214242037E+01  0.50400000000E-02 0. -1.
         -2   -1    0    0    0  501 -0.00000000000E+00 -0.00000000000E+00 -0.44226997557E+03  0.44226997558E+03  0.25500000000E-02 0.  1.
        -24    2    1    2    0    0  0.00000000000E+00  0.00000000000E+00 -0.43884855508E+03  0.44569139979E+03  0.77799547199E+02 0.  0.
         66    2    3    3    0    0  0.76616524925E+01  0.22714210469E+02 -0.39488544155E+03  0.39561742659E+03  0.19999991325E+01 0.  0.
         13    1    3    3    0    0 -0.76616524925E+01 -0.22714210469E+02 -0.43963113533E+02  0.50073973196E+02  0.10566000000E+00 0. -1.
         13    1    4    4    0    0  0.77458877644E+00  0.12307407129E+01 -0.26938088951E+02  0.26977518619E+02  0.10566000000E+00 0. -1.
        -13    1    4    4    0    0  0.43457218488E+01  0.15138103604E+02 -0.25518756598E+03  0.25567313600E+03  0.10566000000E+00 0.  1.
        -14    1    4    4    0    0  0.25413418672E+01  0.63453661519E+01 -0.11275978662E+03  0.11296677197E+03  0.00000000000E+00 0.  1.
<mgrwt>
<rscale>  0 0.77799547E+02</rscale>
<asrwt>0</asrwt>
<pdfrwt beam="1">  1        1 0.52637302E-03 0.77799547E+02</pdfrwt>
<pdfrwt beam="2">  1       -2 0.68041490E-01 0.77799547E+02</pdfrwt>
<totfact> 0.59278151E+04</totfact>
</mgrwt>
</event>
<event>
 8    1  0.1372337E-020  0.7755131E+02  0.7818608E-02  0.1336148E+00
          1   -1    0    0  501    0  0.00000000000E+00  0.00000000000E+00  0.65369631424E+01  0.65369650853E+01  0.50400000000E-02 0. -1.
         -2   -1    0    0    0  501 -0.00000000000E+00 -0.00000000000E+00 -0.23000757709E+03  0.23000757710E+03  0.25500000000E-02 0.  1.
        -24    2    1    2    0    0 -0.88817841970E-15  0.00000000000E+00 -0.22347061395E+03  0.23654454219E+03  0.77551306511E+02 0.  0.
         66    2    3    3    0    0  0.68465733130E+01 -0.11648518725E+02 -0.22258482763E+03  0.22300351800E+03  0.19999984796E+01 0.  0.
         13    1    3    3    0    0 -0.68465733130E+01  0.11648518725E+02 -0.88578631344E+00  0.13541024187E+02  0.10566000000E+00 0. -1.
         13    1    4    4    0    0  0.10337421378E+01 -0.27334025957E+01 -0.44889299593E+02  0.44984447251E+02  0.10566000000E+00 0. -1.
        -13    1    4    4    0    0  0.99150982597E+00 -0.97515270174E+00 -0.29195367281E+02  0.29228661434E+02  0.10566000000E+00 0.  1.
        -14    1    4    4    0    0  0.48213213493E+01 -0.79399634270E+01 -0.14850016076E+03  0.14879040932E+03  0.00000000000E+00 0.  1.
<mgrwt>
<rscale>  0 0.77551307E+02</rscale>
<asrwt>0</asrwt>
<pdfrwt beam="1">  1        1 0.10056870E-02 0.77551307E+02</pdfrwt>
<pdfrwt beam="2">  1       -2 0.35385775E-01 0.77551307E+02</pdfrwt>
<totfact> 0.86837216E+04</totfact>
</mgrwt>
</event>
<event>
 8    1  0.1372337E-020  0.8022575E+02  0.7818608E-02  0.1328412E+00
         -2   -1    0    0    0  501 -0.00000000000E+00  0.00000000000E+00  0.16750569347E+03  0.16750569349E+03  0.25500000000E-02 0.  1.
          1   -1    0    0  501    0  0.00000000000E+00 -0.00000000000E+00 -0.96058976257E+01  0.96058989478E+01  0.50400000000E-02 0. -1.
        -24    2    1    2    0    0  0.00000000000E+00 -0.88817841970E-15  0.15789979585E+03  0.17711159244E+03  0.80225748037E+02 0.  0.
         66    2    3    3    0    0 -0.38721847197E+02  0.61295975939E+01  0.97480594459E+02  0.10508767643E+03  0.20000061084E+01 0.  0.
         13    1    3    3    0    0  0.38721847197E+02 -0.61295975939E+01  0.60419201390E+02  0.72023916012E+02  0.10566000000E+00 0. -1.
         13    1    4    4    0    0 -0.19050331622E+01  0.44596140888E+00  0.40444434838E+01  0.44940761071E+01  0.10566000000E+00 0. -1.
        -13    1    4    4    0    0 -0.52981510711E+00  0.10650715435E+00  0.15216893160E+01  0.16182553049E+01  0.10566000000E+00 0.  1.
         14    1    4    4    0    0 -0.36286998928E+02  0.55771290307E+01  0.91914461659E+02  0.98975345018E+02  0.00000000000E+00 0. -1.
<mgrwt>
<rscale>  0 0.80225748E+02</rscale>
<asrwt>0</asrwt>
<pdfrwt beam="1">  1        1 0.14778307E-02 0.80225748E+02</pdfrwt>
<pdfrwt beam="2">  1       -2 0.25770103E-01 0.80225748E+02</pdfrwt>
<totfact> 0.90351680E+04</totfact>
</mgrwt>
</event>
<event>
 8    1  0.2005977E-020  0.8075916E+02  0.7818608E-02  0.1326911E+00
          1   -1    0    0  501    0  0.00000000000E+00  0.00000000000E+00  0.12627760751E+03  0.12627760761E+03  0.50400000000E-02 0. -1.
         -2   -1    0    0    0  501 -0.00000000000E+00 -0.00000000000E+00 -0.12912111810E+02  0.12912112062E+02  0.25500000000E-02 0.  1.
        -24    2    1    2    0    0  0.00000000000E+00  0.17763568394E-14  0.11336549570E+03  0.13918971967E+03  0.80759163240E+02 0.  0.
         66    2    3    3    0    0  0.21425825931E+02 -0.10197067460E+02  0.45947660130E+00  0.23817164382E+02  0.19999997029E+01 0.  0.
         13    1    3    3    0    0 -0.21425825931E+02  0.10197067460E+02  0.11290601910E+03  0.11537255529E+03  0.10566000000E+00 0. -1.
         13    1    4    4    0    0  0.10234057977E+02 -0.45561812209E+01  0.11692241617E+00  0.11203551441E+02  0.10566000000E+00 0. -1.
        -13    1    4    4    0    0  0.10355257414E+02 -0.47783404234E+01  0.38153856835E+00  0.11411425372E+02  0.10566000000E+00 0.  1.
         14    1    4    4    0    0  0.83651054044E+00 -0.86254581608E+00 -0.38984383219E-01  0.12021875691E+01  0.00000000000E+00 0. -1.
<mgrwt>
<rscale>  0 0.80759163E+02</rscale>
<asrwt>0</asrwt>
<pdfrwt beam="1">  1        1 0.19427324E-01 0.80759163E+02</pdfrwt>
<pdfrwt beam="2">  1       -2 0.19864788E-02 0.80759163E+02</pdfrwt>
<totfact> 0.14920323E+05</totfact>
</mgrwt>
</event>
<event>
 8    1  0.1372337E-020  0.7973743E+02  0.7818608E-02  0.1329798E+00
          1   -1    0    0  501    0  0.00000000000E+00  0.00000000000E+00  0.18197987896E+01  0.18198057688E+01  0.50400000000E-02 0. -1.
         -2   -1    0    0    0  501 -0.00000000000E+00 -0.00000000000E+00 -0.87345453365E+03  0.87345453365E+03  0.25500000000E-02 0.  1.
        -24    2    1    2    0    0  0.35527136788E-14  0.17763568394E-14 -0.87163473486E+03  0.87527433942E+03  0.79737433093E+02 0.  0.
         66    2    3    3    0    0 -0.23214630977E+02 -0.13006545632E+02 -0.76161266427E+03  0.76208000872E+03  0.20000008608E+01 0.  0.
         13    1    3    3    0    0  0.23214630977E+02  0.13006545632E+02 -0.11002207059E+03  0.11319433070E+03  0.10566000000E+00 0. -1.
         13    1    4    4    0    0 -0.25197297146E+01 -0.12928045448E+01 -0.74903477831E+02  0.74957071292E+02  0.10566000000E+00 0. -1.
        -13    1    4    4    0    0 -0.42079813002E+01 -0.16433920284E+01 -0.13501070018E+03  0.13508629897E+03  0.10566000000E+00 0.  1.
        -14    1    4    4    0    0 -0.16486919963E+02 -0.10070349059E+02 -0.55169848626E+03  0.55203663846E+03  0.00000000000E+00 0.  1.
<mgrwt>
<rscale>  0 0.79737433E+02</rscale>
<asrwt>0</asrwt>
<pdfrwt beam="1">  1        1 0.27997028E-03 0.79737433E+02</pdfrwt>
<pdfrwt beam="2">  1       -2 0.13437729E+00 0.79737433E+02</pdfrwt>
<totfact> 0.30584826E+04</totfact>
</mgrwt>
</event>
<event>
 8    1  0.1372337E-020  0.8013301E+02  0.7818608E-02  0.1328674E+00
         -2   -1    0    0    0  501 -0.00000000000E+00  0.00000000000E+00  0.36004717491E+02  0.36004717581E+02  0.25500000000E-02 0.  1.
          1   -1    0    0  501    0  0.00000000000E+00 -0.00000000000E+00 -0.44586511469E+02  0.44586511754E+02  0.50400000000E-02 0. -1.
        -24    2    1    2    0    0 -0.35527136788E-14  0.35527136788E-14 -0.85817939779E+01  0.80591229335E+02  0.80133008542E+02 0.  0.
         66    2    3    3    0    0  0.31895161343E+02 -0.24151329625E+02 -0.26313069036E+01  0.40143639787E+02  0.19999998935E+01 0.  0.
         13    1    3    3    0    0 -0.31895161343E+02  0.24151329625E+02 -0.59504870743E+01  0.40447589548E+02  0.10566000000E+00 0. -1.
         13    1    4    4    0    0  0.12117463076E+02 -0.92185431331E+01 -0.70743944762E+00  0.15242246669E+02  0.10566000000E+00 0. -1.
        -13    1    4    4    0    0  0.14116025227E+02 -0.99708079181E+01 -0.92900076814E+00  0.17307610615E+02  0.10566000000E+00 0.  1.
         14    1    4    4    0    0  0.56616730402E+01 -0.49619785743E+01 -0.99486668788E+00  0.75937825036E+01  0.00000000000E+00 0. -1.
<mgrwt>
<rscale>  0 0.80133009E+02</rscale>
<asrwt>0</asrwt>
<pdfrwt beam="1">  1        1 0.68594633E-02 0.80133009E+02</pdfrwt>
<pdfrwt beam="2">  1       -2 0.55391874E-02 0.80133009E+02</pdfrwt>
<totfact> 0.12860936E+05</totfact>
</mgrwt>
</event>
<event>
 8    1  0.1372337E-020  0.7974739E+02  0.7818608E-02  0.1329770E+00
         -2   -1    0    0    0  501 -0.00000000000E+00  0.00000000000E+00  0.37800743215E+03  0.37800743216E+03  0.25500000000E-02 0.  1.
          1   -1    0    0  501    0  0.00000000000E+00 -0.00000000000E+00 -0.42060313725E+01  0.42060343921E+01  0.50400000000E-02 0. -1.
        -24    2    1    2    0    0  0.17763568394E-14 -0.71054273576E-14  0.37380140078E+03  0.38221346655E+03  0.79747393622E+02 0.  0.
         66    2    3    3    0    0  0.96083398879E+01 -0.38631200172E+02  0.19561418671E+03  0.19963366416E+03  0.19999997711E+01 0.  0.
         13    1    3    3    0    0 -0.96083398879E+01  0.38631200172E+02  0.17818721406E+03  0.18257980239E+03  0.10566000000E+00 0. -1.
         13    1    4    4    0    0  0.14023209726E+01 -0.54737106339E+01  0.25063104973E+02  0.25692380332E+02  0.10566000000E+00 0. -1.
        -13    1    4    4    0    0  0.58804491209E+01 -0.25620766275E+02  0.13126157628E+03  0.13386790473E+03  0.10566000000E+00 0.  1.
         14    1    4    4    0    0  0.23255697944E+01 -0.75367232634E+01  0.39289505460E+02  0.40073379090E+02  0.00000000000E+00 0. -1.
<mgrwt>
<rscale>  0 0.79747394E+02</rscale>
<asrwt>0</asrwt>
<pdfrwt beam="1">  1        1 0.64708195E-03 0.79747394E+02</pdfrwt>
<pdfrwt beam="2">  1       -2 0.58154993E-01 0.79747394E+02</pdfrwt>
<totfact> 0.61810020E+04</totfact>
</mgrwt>
</event>
<event>
 8    1  0.1372337E-020  0.8114558E+02  0.7818608E-02  0.1325832E+00
          1   -1    0    0  501    0  0.00000000000E+00  0.00000000000E+00  0.41618299634E+03  0.41618299637E+03  0.50400000000E-02 0. -1.
         -2   -1    0    0    0  501 -0.00000000000E+00 -0.00000000000E+00 -0.39553544958E+01  0.39553553178E+01  0.25500000000E-02 0.  1.
        -24    2    1    2    0    0  0.00000000000E+00  0.00000000000E+00  0.41222764184E+03  0.42013835168E+03  0.81145584347E+02 0.  0.
         66    2    3    3    0    0 -0.39943908083E+02 -0.30485001817E+01  0.17376511944E+03  0.17833430933E+03  0.20000008034E+01 0.  0.
         13    1    3    3    0    0  0.39943908083E+02  0.30485001817E+01  0.23846252240E+03  0.24180404236E+03  0.10566000000E+00 0. -1.
         13    1    4    4    0    0 -0.10821358498E+02 -0.10368563935E+01  0.49582377649E+02  0.50760222697E+02  0.10566000000E+00 0. -1.
        -13    1    4    4    0    0 -0.25798505412E+02 -0.13836504440E+01  0.11015776224E+03  0.11314690061E+03  0.10566000000E+00 0.  1.
        -14    1    4    4    0    0 -0.33240441726E+01 -0.62799334430E+00  0.14024979548E+02  0.14427186025E+02  0.00000000000E+00 0.  1.
<mgrwt>
<rscale>  0 0.81145584E+02</rscale>
<asrwt>0</asrwt>
<pdfrwt beam="1">  1        1 0.64028160E-01 0.81145584E+02</pdfrwt>
<pdfrwt beam="2">  1       -2 0.60851607E-03 0.81145584E+02</pdfrwt>
<totfact> 0.18413908E+05</totfact>
</mgrwt>
</event>
<event>
 8    1  0.1372337E-020  0.7695374E+02  0.7818608E-02  0.1337925E+00
         -2   -1    0    0    0  501 -0.00000000000E+00  0.00000000000E+00  0.43271181006E+03  0.43271181007E+03  0.25500000000E-02 0.  1.
          1   -1    0    0  501    0  0.00000000000E+00 -0.00000000000E+00 -0.34213735177E+01  0.34213772298E+01  0.50400000000E-02 0. -1.
        -24    2    1    2    0    0  0.00000000000E+00 -0.71054273576E-14  0.42929043654E+03  0.43613318730E+03  0.76953740361E+02 0.  0.
         66    2    3    3    0    0  0.18013676071E+02  0.17610585923E+02  0.37942370813E+03  0.38026434957E+03  0.20000006735E+01 0.  0.
         13    1    3    3    0    0 -0.18013676071E+02 -0.17610585923E+02  0.49866728413E+02  0.55868837725E+02  0.10566000000E+00 0. -1.
         13    1    4    4    0    0  0.12316410671E+01  0.13280404969E+01  0.26866683977E+02  0.26927875951E+02  0.10566000000E+00 0. -1.
        -13    1    4    4    0    0  0.15768306695E+02  0.14593838771E+02  0.32189873977E+03  0.32261498641E+03  0.10566000000E+00 0.  1.
         14    1    4    4    0    0  0.10137283086E+01  0.16887066548E+01  0.30658284380E+02  0.30721487210E+02  0.00000000000E+00 0. -1.
<mgrwt>
<rscale>  0 0.76953740E+02</rscale>
<asrwt>0</asrwt>
<pdfrwt beam="1">  1        1 0.52636599E-03 0.76953740E+02</pdfrwt>
<pdfrwt beam="2">  1       -2 0.66570979E-01 0.76953740E+02</pdfrwt>
<totfact> 0.61916395E+04</totfact>
</mgrwt>
</event>
<event>
 8    1  0.1372337E-020  0.7946242E+02  0.7818608E-02  0.1330584E+00
         -2   -1    0    0    0  501 -0.00000000000E+00  0.00000000000E+00  0.13513305806E+02  0.13513306046E+02  0.25500000000E-02 0.  1.
          1   -1    0    0  501    0  0.00000000000E+00 -0.00000000000E+00 -0.11681588885E+03  0.11681588896E+03  0.50400000000E-02 0. -1.
        -24    2    1    2    0    0 -0.71054273576E-14  0.35527136788E-14 -0.10330258305E+03  0.13032919501E+03  0.79462415060E+02 0.  0.
         66    2    3    3    0    0  0.32313420510E+02 -0.22628153348E+02 -0.59086993810E+02  0.71073647043E+02  0.19999993938E+01 0.  0.
         13    1    3    3    0    0 -0.32313420510E+02  0.22628153348E+02 -0.44215589238E+02  0.59255547965E+02  0.10566000000E+00 0. -1.
         13    1    4    4    0    0  0.21663099509E+01 -0.14745550349E+01 -0.33482989911E+01  0.42531731123E+01  0.10566000000E+00 0. -1.
        -13    1    4    4    0    0  0.14487318216E+02 -0.10873091168E+02 -0.26769996677E+02  0.32322598700E+02  0.10566000000E+00 0.  1.
        -14    1    4    4    0    0  0.15659792343E+02 -0.10280507145E+02 -0.28968698142E+02  0.34497875230E+02  0.00000000000E+00 0.  1.
<mgrwt>
<rscale>  0 0.79462415E+02</rscale>
<asrwt>0</asrwt>
<pdfrwt beam="1">  1        1 0.17971675E-01 0.79462415E+02</pdfrwt>
<pdfrwt beam="2">  1       -2 0.20789702E-02 0.79462415E+02</pdfrwt>
<totfact> 0.15371485E+05</totfact>
</mgrwt>
</event>
<event>
 8    1  0.1372337E-020  0.8101206E+02  0.7818608E-02  0.1326204E+00
         -2   -1    0    0    0  501 -0.00000000000E+00  0.00000000000E+00  0.14197140077E+02  0.14197140306E+02  0.25500000000E-02 0.  1.
          1   -1    0    0  501    0  0.00000000000E+00 -0.00000000000E+00 -0.11556824792E+03  0.11556824803E+03  0.50400000000E-02 0. -1.
        -24    2    1    2    0    0 -0.71054273576E-14  0.27755575616E-16 -0.10137110785E+03  0.12976538834E+03  0.81012063946E+02 0.  0.
         66    2    3    3    0    0  0.40406797223E+02 -0.14285567078E+00 -0.46791458730E+02  0.61856044863E+02  0.20000016217E+01 0.  0.
         13    1    3    3    0    0 -0.40406797223E+02  0.14285567078E+00 -0.54579649117E+02  0.67909343477E+02  0.10566000000E+00 0. -1.
         13    1    4    4    0    0  0.28540767152E+01  0.18445123930E+00 -0.30658162291E+01  0.41940635835E+01  0.10566000000E+00 0. -1.
        -13    1    4    4    0    0  0.23544907182E+02 -0.12034878697E+00 -0.28602608484E+02  0.37047233556E+02  0.10566000000E+00 0.  1.
         14    1    4    4    0    0  0.14007813326E+02 -0.20695812311E+00 -0.15123034017E+02  0.20614747724E+02  0.00000000000E+00 0. -1.
<mgrwt>
<rscale>  0 0.81012064E+02</rscale>
<asrwt>0</asrwt>
<pdfrwt beam="1">  1        1 0.17779730E-01 0.81012064E+02</pdfrwt>
<pdfrwt beam="2">  1       -2 0.21841755E-02 0.81012064E+02</pdfrwt>
<totfact> 0.14565597E+05</totfact>
</mgrwt>
</event>
<event>
 8    1  0.1372337E-020  0.7956073E+02  0.7818608E-02  0.1330303E+00
          1   -1    0    0  501    0  0.00000000000E+00  0.00000000000E+00  0.25807359750E+02  0.25807360242E+02  0.50400000000E-02 0. -1.
         -2   -1    0    0    0  501 -0.00000000000E+00 -0.00000000000E+00 -0.61318845578E+02  0.61318845631E+02  0.25500000000E-02 0.  1.
        -24    2    1    2    0    0  0.17763568394E-14  0.00000000000E+00 -0.35511485829E+02  0.87126205873E+02  0.79560732300E+02 0.  0.
         66    2    3    3    0    0 -0.95034534967E+01  0.37290450961E+01 -0.59842516412E+02  0.60740004575E+02  0.19999948863E+01 0.  0.
         13    1    3    3    0    0  0.95034534967E+01 -0.37290450961E+01  0.24331030583E+02  0.26386201299E+02  0.10566000000E+00 0. -1.
         13    1    4    4    0    0 -0.30630915790E+01  0.18336360296E+01 -0.24279803974E+02  0.24541083843E+02  0.10566000000E+00 0. -1.
        -13    1    4    4    0    0 -0.42199261533E+01  0.87107946385E+00 -0.23037836663E+02  0.23437568951E+02  0.10566000000E+00 0.  1.
         14    1    4    4    0    0 -0.22204357644E+01  0.10243296027E+01 -0.12524875774E+02  0.12761351781E+02  0.00000000000E+00 0. -1.
<mgrwt>
<rscale>  0 0.79560732E+02</rscale>
<asrwt>0</asrwt>
<pdfrwt beam="1">  1        1 0.39703631E-02 0.79560732E+02</pdfrwt>
<pdfrwt beam="2">  1       -2 0.94336686E-02 0.79560732E+02</pdfrwt>
<totfact> 0.11956237E+05</totfact>
</mgrwt>
</event>
<event>
 8    1  0.1372337E-020  0.7764957E+02  0.7818608E-02  0.1335857E+00
         -2   -1    0    0    0  501 -0.00000000000E+00  0.00000000000E+00  0.11667647055E+03  0.11667647058E+03  0.25500000000E-02 0.  1.
          1   -1    0    0  501    0  0.00000000000E+00 -0.00000000000E+00 -0.12919177513E+02  0.12919178496E+02  0.50400000000E-02 0. -1.
        -24    2    1    2    0    0 -0.35527136788E-14  0.00000000000E+00  0.10375729304E+03  0.12959564908E+03  0.77649574376E+02 0.  0.
         66    2    3    3    0    0  0.18400716049E+02 -0.34125984464E+02  0.49443095522E+02  0.62863255273E+02  0.20000005065E+01 0.  0.
         13    1    3    3    0    0 -0.18400716049E+02  0.34125984464E+02  0.54314197518E+02  0.66732393804E+02  0.10566000000E+00 0. -1.
         13    1    4    4    0    0  0.25482244114E+01 -0.48658498510E+01  0.74062991356E+01  0.92214084252E+01  0.10566000000E+00 0. -1.
        -13    1    4    4    0    0  0.77433069418E+01 -0.13938220758E+02  0.18806104301E+02  0.24655902403E+02  0.10566000000E+00 0.  1.
        -14    1    4    4    0    0  0.81091846953E+01 -0.15321913855E+02  0.23230692085E+02  0.28985944445E+02  0.00000000000E+00 0.  1.
<mgrwt>
<rscale>  0 0.77649574E+02</rscale>
<asrwt>0</asrwt>
<pdfrwt beam="1">  1        1 0.19875659E-02 0.77649574E+02</pdfrwt>
<pdfrwt beam="2">  1       -2 0.17950226E-01 0.77649574E+02</pdfrwt>
<totfact> 0.11003668E+05</totfact>
</mgrwt>
</event>
<event>
 8    1  0.1372337E-020  0.8052429E+02  0.7818608E-02  0.1327570E+00
         -2   -1    0    0    0  501 -0.00000000000E+00  0.00000000000E+00  0.31678804515E+03  0.31678804516E+03  0.25500000000E-02 0.  1.
          1   -1    0    0  501    0  0.00000000000E+00 -0.00000000000E+00 -0.51171122190E+01  0.51171147010E+01  0.50400000000E-02 0. -1.
        -24    2    1    2    0    0  0.00000000000E+00  0.71054273576E-14  0.31167093294E+03  0.32190515987E+03  0.80524291436E+02 0.  0.
         66    2    3    3    0    0 -0.87063467403E+01 -0.35861421281E+02  0.22004209290E+03  0.22312410146E+03  0.19999984445E+01 0.  0.
         13    1    3    3    0    0  0.87063467403E+01  0.35861421281E+02  0.91628840036E+02  0.98781058409E+02  0.10566000000E+00 0. -1.
         13    1    4    4    0    0 -0.27299888444E+01 -0.13775017908E+02  0.82258721296E+02  0.83448860691E+02  0.10566000000E+00 0. -1.
        -13    1    4    4    0    0 -0.30514933904E+01 -0.94420703287E+01  0.57734028182E+02  0.58580657884E+02  0.10566000000E+00 0.  1.
         14    1    4    4    0    0 -0.29248645055E+01 -0.12644333045E+02  0.80049343421E+02  0.81094582881E+02  0.00000000000E+00 0. -1.
<mgrwt>
<rscale>  0 0.80524291E+02</rscale>
<asrwt>0</asrwt>
<pdfrwt beam="1">  1        1 0.78724830E-03 0.80524291E+02</pdfrwt>
<pdfrwt beam="2">  1       -2 0.48736618E-01 0.80524291E+02</pdfrwt>
<totfact> 0.67038496E+04</totfact>
</mgrwt>
</event>
<event>
 8    1  0.1372337E-020  0.8011412E+02  0.7818608E-02  0.1328728E+00
          1   -1    0    0  501    0  0.00000000000E+00  0.00000000000E+00  0.53732188011E+01  0.53732211649E+01  0.50400000000E-02 0. -1.
         -2   -1    0    0    0  501 -0.00000000000E+00 -0.00000000000E+00 -0.29862314937E+03  0.29862314938E+03  0.25500000000E-02 0.  1.
        -24    2    1    2    0    0  0.00000000000E+00  0.71054273576E-14 -0.29324993057E+03  0.30399637054E+03  0.80114115649E+02 0.  0.
         66    2    3    3    0    0 -0.19302447843E+02 -0.34079601487E+02 -0.17813507805E+03  0.18240095877E+03  0.19999995743E+01 0.  0.
         13    1    3    3    0    0  0.19302447843E+02  0.34079601487E+02 -0.11511485252E+03  0.12159541178E+03  0.10566000000E+00 0. -1.
         13    1    4    4    0    0 -0.45368218693E+01 -0.72352023026E+01 -0.40921071170E+02  0.41802824483E+02  0.10566000000E+00 0. -1.
        -13    1    4    4    0    0 -0.12901283973E+02 -0.22708308913E+02 -0.11799308593E+03  0.12084903770E+03  0.10566000000E+00 0.  1.
        -14    1    4    4    0    0 -0.18643420007E+01 -0.41360902716E+01 -0.19220920948E+02  0.19749096585E+02  0.00000000000E+00 0.  1.
<mgrwt>
<rscale>  0 0.80114116E+02</rscale>
<asrwt>0</asrwt>
<pdfrwt beam="1">  1        1 0.82664947E-03 0.80114116E+02</pdfrwt>
<pdfrwt beam="2">  1       -2 0.45942010E-01 0.80114116E+02</pdfrwt>
<totfact> 0.70186497E+04</totfact>
</mgrwt>
</event>
<event>
 8    1  0.1372337E-020  0.8436023E+02  0.7818608E-02  0.1317114E+00
          1   -1    0    0  501    0  0.00000000000E+00  0.00000000000E+00  0.59773359329E+01  0.59773380577E+01  0.50400000000E-02 0. -1.
         -2   -1    0    0    0  501 -0.00000000000E+00 -0.00000000000E+00 -0.29765128689E+03  0.29765128690E+03  0.25500000000E-02 0.  1.
        -24    2    1    2    0    0  0.00000000000E+00 -0.35527136788E-14 -0.29167395096E+03  0.30362862496E+03  0.84360228943E+02 0.  0.
         66    2    3    3    0    0 -0.30766903105E+02  0.20282036937E+02 -0.21960935638E+03  0.22268864531E+03  0.19999984808E+01 0.  0.
         13    1    3    3    0    0  0.30766903105E+02 -0.20282036937E+02 -0.72064594579E+02  0.80939979645E+02  0.10566000000E+00 0. -1.
         13    1    4    4    0    0 -0.23642442777E+01  0.16144307439E+01 -0.20317288554E+02  0.20518270294E+02  0.10566000000E+00 0.  1.
        -13    1    4    4    0    0 -0.23364136123E+02  0.15096185368E+02 -0.16332213886E+03  0.16567410743E+03  0.10566000000E+00 0.  1.
         14    1    4    4    0    0 -0.50385227051E+01  0.35714208251E+01 -0.35969928967E+02  0.36496267585E+02  0.00000000000E+00 0. -1.
<mgrwt>
<rscale>  0 0.84360229E+02</rscale>
<asrwt>0</asrwt>
<pdfrwt beam="1">  1        1 0.91959054E-03 0.84360229E+02</pdfrwt>
<pdfrwt beam="2">  1       -2 0.45792494E-01 0.84360229E+02</pdfrwt>
<totfact> 0.61512402E+04</totfact>
</mgrwt>
</event>
<event>
 8    1  0.1372337E-020  0.8125768E+02  0.7818608E-02  0.1325520E+00
          1   -1    0    0  501    0  0.00000000000E+00  0.00000000000E+00  0.16385141757E+01  0.16385219271E+01  0.50400000000E-02 0. -1.
         -2   -1    0    0    0  501 -0.00000000000E+00 -0.00000000000E+00 -0.10074364020E+04  0.10074364020E+04  0.25500000000E-02 0.  1.
        -24    2    1    2    0    0  0.00000000000E+00  0.44408920985E-15 -0.10057978879E+04  0.10090749240E+04  0.81257682428E+02 0.  0.
         66    2    3    3    0    0  0.24755753753E+02  0.25633492524E+01 -0.90160857361E+03  0.90195423282E+03  0.19999987024E+01 0.  0.
         13    1    3    3    0    0 -0.24755753753E+02 -0.25633492524E+01 -0.10418931425E+03  0.10712069114E+03  0.10566000000E+00 0. -1.
         13    1    4    4    0    0  0.10783210611E+01 -0.32000405059E-01 -0.48593718286E+02  0.48605806455E+02  0.10566000000E+00 0. -1.
        -13    1    4    4    0    0  0.24362191694E+01 -0.77861804461E-01 -0.94736409032E+02  0.94767819362E+02  0.10566000000E+00 0.  1.
        -14    1    4    4    0    0  0.21241213523E+02  0.26732114620E+01 -0.75827844629E+03  0.75858060700E+03  0.00000000000E+00 0.  1.
<mgrwt>
<rscale>  0 0.81257682E+02</rscale>
<asrwt>0</asrwt>
<pdfrwt beam="1">  1        1 0.25208051E-03 0.81257682E+02</pdfrwt>
<pdfrwt beam="2">  1       -2 0.15498972E+00 0.81257682E+02</pdfrwt>
<totfact> 0.24833723E+04</totfact>
</mgrwt>
</event>
<event>
 8    1  0.1372337E-020  0.7947445E+02  0.7818608E-02  0.1330550E+00
         -2   -1    0    0    0  501 -0.00000000000E+00  0.00000000000E+00  0.17878398167E+03  0.17878398169E+03  0.25500000000E-02 0.  1.
          1   -1    0    0  501    0  0.00000000000E+00 -0.00000000000E+00 -0.88321506241E+01  0.88321520622E+01  0.50400000000E-02 0. -1.
        -24    2    1    2    0    0 -0.17763568394E-14  0.00000000000E+00  0.16995183105E+03  0.18761613375E+03  0.79474453554E+02 0.  0.
         66    2    3    3    0    0  0.12771967257E+02  0.81735579202E+01  0.17167477649E+03  0.17235474778E+03  0.20000006725E+01 0.  0.
         13    1    3    3    0    0 -0.12771967257E+02 -0.81735579202E+01 -0.17229454445E+01  0.15261385970E+02  0.10566000000E+00 0. -1.
         13    1    4    4    0    0  0.66025829665E+01  0.45748912066E+01  0.89980090382E+02  0.90337985148E+02  0.10566000000E+00 0. -1.
        -13    1    4    4    0    0  0.48034834006E+01  0.30574855331E+01  0.69738419477E+02  0.69970565138E+02  0.10566000000E+00 0.  1.
         14    1    4    4    0    0  0.13659008898E+01  0.54118118048E+00  0.11956266633E+02  0.12046197496E+02  0.00000000000E+00 0. -1.
<mgrwt>
<rscale>  0 0.79474454E+02</rscale>
<asrwt>0</asrwt>
<pdfrwt beam="1">  1        1 0.13587925E-02 0.79474454E+02</pdfrwt>
<pdfrwt beam="2">  1       -2 0.27505228E-01 0.79474454E+02</pdfrwt>
<totfact> 0.90397487E+04</totfact>
</mgrwt>
</event>
<event>
 8    1  0.1372337E-020  0.7840824E+02  0.7818608E-02  0.1333630E+00
         -2   -1    0    0    0  501 -0.00000000000E+00  0.00000000000E+00  0.66503572347E+02  0.66503572396E+02  0.25500000000E-02 0.  1.
          1   -1    0    0  501    0  0.00000000000E+00 -0.00000000000E+00 -0.23110981281E+02  0.23110981830E+02  0.50400000000E-02 0. -1.
        -24    2    1    2    0    0 -0.35527136788E-14 -0.71054273576E-14  0.43392591067E+02  0.89614554226E+02  0.78408235344E+02 0.  0.
         66    2    3    3    0    0 -0.17618661158E+02 -0.32272310905E+02  0.37173176440E+02  0.52323649779E+02  0.20000018579E+01 0.  0.
         13    1    3    3    0    0  0.17618661158E+02  0.32272310905E+02  0.62194146271E+01  0.37290904447E+02  0.10566000000E+00 0. -1.
         13    1    4    4    0    0 -0.77044997292E+01 -0.13281443189E+02  0.15501034468E+02  0.21818553638E+02  0.10566000000E+00 0. -1.
        -13    1    4    4    0    0 -0.65344159530E+01 -0.12983220493E+02  0.13819255814E+02  0.20056061466E+02  0.10566000000E+00 0.  1.
         14    1    4    4    0    0 -0.33797454761E+01 -0.60076472230E+01  0.78528861572E+01  0.10449034675E+02  0.00000000000E+00 0. -1.
<mgrwt>
<rscale>  0 0.78408235E+02</rscale>
<asrwt>0</asrwt>
<pdfrwt beam="1">  1        1 0.35555357E-02 0.78408235E+02</pdfrwt>
<pdfrwt beam="2">  1       -2 0.10231319E-01 0.78408235E+02</pdfrwt>
<totfact> 0.12215505E+05</totfact>
</mgrwt>
</event>
<event>
 8    1  0.1372337E-020  0.7695901E+02  0.7818608E-02  0.1337910E+00
         -2   -1    0    0    0  501 -0.00000000000E+00  0.00000000000E+00  0.26563361272E+02  0.26563361394E+02  0.25500000000E-02 0.  1.
          1   -1    0    0  501    0  0.00000000000E+00 -0.00000000000E+00 -0.55741142444E+02  0.55741142672E+02  0.50400000000E-02 0. -1.
        -24    2    1    2    0    0  0.00000000000E+00  0.00000000000E+00 -0.29177781172E+02  0.82304504066E+02  0.76959005162E+02 0.  0.
         66    2    3    3    0    0  0.26767070998E+02  0.14208712822E+02  0.10716163488E+02  0.32205585970E+02  0.19999994769E+01 0.  0.
         13    1    3    3    0    0 -0.26767070998E+02 -0.14208712822E+02 -0.39893944659E+02  0.50098918096E+02  0.10566000000E+00 0. -1.
         13    1    4    4    0    0  0.65326902438E+01  0.25528093784E+01  0.24240985415E+01  0.74216100220E+01  0.10566000000E+00 0. -1.
        -13    1    4    4    0    0  0.15819557927E+02  0.92949576027E+01  0.65954633230E+01  0.19497844761E+02  0.10566000000E+00 0.  1.
        -14    1    4    4    0    0  0.44148228275E+01  0.23609458406E+01  0.16966016231E+01  0.52861311872E+01  0.00000000000E+00 0.  1.
<mgrwt>
<rscale>  0 0.76959005E+02</rscale>
<asrwt>0</asrwt>
<pdfrwt beam="1">  1        1 0.85755604E-02 0.76959005E+02</pdfrwt>
<pdfrwt beam="2">  1       -2 0.40866710E-02 0.76959005E+02</pdfrwt>
<totfact> 0.14892745E+05</totfact>
</mgrwt>
</event>
<event>
 8    1  0.1372337E-020  0.8144212E+02  0.7818608E-02  0.1325008E+00
          1   -1    0    0  501    0  0.00000000000E+00  0.00000000000E+00  0.46858261599E+02  0.46858261870E+02  0.50400000000E-02 0. -1.
         -2   -1    0    0    0  501 -0.00000000000E+00 -0.00000000000E+00 -0.35387666472E+02  0.35387666563E+02  0.25500000000E-02 0.  1.
        -24    2    1    2    0    0  0.00000000000E+00  0.00000000000E+00  0.11470595127E+02  0.82245928433E+02  0.81442115587E+02 0.  0.
         66    2    3    3    0    0  0.13903943860E+02 -0.81057927153E+01 -0.32008990730E+02  0.35883129976E+02  0.19999997290E+01 0.  0.
         13    1    3    3    0    0 -0.13903943860E+02  0.81057927153E+01  0.43479585857E+02  0.46362798457E+02  0.10566000000E+00 0. -1.
         13    1    4    4    0    0  0.77827561565E+01 -0.42225170748E+01 -0.15664333385E+02  0.17993983668E+02  0.10566000000E+00 0. -1.
        -13    1    4    4    0    0  0.47400953584E+00 -0.17819351961E+00 -0.11654777239E+01  0.12751236532E+01  0.10566000000E+00 0.  1.
        -14    1    4    4    0    0  0.56471781681E+01 -0.37050821209E+01 -0.15179179622E+02  0.16614022655E+02  0.00000000000E+00 0.  1.
<mgrwt>
<rscale>  0 0.81442116E+02</rscale>
<asrwt>0</asrwt>
<pdfrwt beam="1">  1        1 0.72089633E-02 0.81442116E+02</pdfrwt>
<pdfrwt beam="2">  1       -2 0.54442564E-02 0.81442116E+02</pdfrwt>
<totfact> 0.12388658E+05</totfact>
</mgrwt>
</event>
<event>
 8    1  0.1372337E-020  0.7957524E+02  0.7818608E-02  0.1330261E+00
         -2   -1    0    0    0  501 -0.00000000000E+00  0.00000000000E+00  0.10036271441E+02  0.10036271765E+02  0.25500000000E-02 0.  1.
          1   -1    0    0  501    0  0.00000000000E+00 -0.00000000000E+00 -0.15773332798E+03  0.15773332806E+03  0.50400000000E-02 0. -1.
        -24    2    1    2    0    0 -0.35527136788E-14 -0.35527136788E-14 -0.14769705654E+03  0.16776959982E+03  0.79575235565E+02 0.  0.
         66    2    3    3    0    0 -0.25596833010E+02 -0.30242095180E+02 -0.80972012591E+02  0.90167893433E+02  0.20000005371E+01 0.  0.
         13    1    3    3    0    0  0.25596833010E+02  0.30242095180E+02 -0.66725043944E+02  0.77601706389E+02  0.10566000000E+00 0. -1.
         13    1    4    4    0    0 -0.36906663766E+01 -0.53465375045E+01 -0.12872169498E+02  0.14419098211E+02  0.10566000000E+00 0. -1.
        -13    1    4    4    0    0 -0.12400794441E+02 -0.14076607955E+02 -0.37644516684E+02  0.42060092661E+02  0.10566000000E+00 0.  1.
         14    1    4    4    0    0 -0.95053721925E+01 -0.10818949721E+02 -0.30455326409E+02  0.33688702561E+02  0.00000000000E+00 0. -1.
<mgrwt>
<rscale>  0 0.79575236E+02</rscale>
<asrwt>0</asrwt>
<pdfrwt beam="1">  1        1 0.24266664E-01 0.79575236E+02</pdfrwt>
<pdfrwt beam="2">  1       -2 0.15440419E-02 0.79575236E+02</pdfrwt>
<totfact> 0.16164290E+05</totfact>
</mgrwt>
</event>
<event>
 8    1  0.1506511E-020  0.8020058E+02  0.7818608E-02  0.1328483E+00
          1   -1    0    0  501    0  0.00000000000E+00  0.00000000000E+00  0.11740741857E+03  0.11740741868E+03  0.50400000000E-02 0. -1.
         -2   -1    0    0    0  501 -0.00000000000E+00 -0.00000000000E+00 -0.13696180404E+02  0.13696180641E+02  0.25500000000E-02 0.  1.
        -24    2    1    2    0    0  0.00000000000E+00  0.00000000000E+00  0.10371123817E+03  0.13110359932E+03  0.80200578754E+02 0.  0.
         66    2    3    3    0    0 -0.16999294945E+02  0.15678519460E+02 -0.16154212965E+01  0.23268037658E+02  0.19999973528E+01 0.  0.
         13    1    3    3    0    0  0.16999294945E+02 -0.15678519460E+02  0.10532665946E+03  0.10783556166E+03  0.10566000000E+00 0. -1.
         13    1    4    4    0    0 -0.54500748901E+01  0.50693103958E+01  0.33002648032E+00  0.74512620213E+01  0.10566000000E+00 0. -1.
        -13    1    4    4    0    0 -0.71106925425E+01  0.65875103004E+01 -0.88453058492E+00  0.97340021976E+01  0.10566000000E+00 0.  1.
         14    1    4    4    0    0 -0.44385275127E+01  0.40216987637E+01 -0.10609171919E+01  0.60827734394E+01  0.00000000000E+00 0. -1.
<mgrwt>
<rscale>  0 0.80200579E+02</rscale>
<asrwt>0</asrwt>
<pdfrwt beam="1">  1        1 0.18062679E-01 0.80200579E+02</pdfrwt>
<pdfrwt beam="2">  1       -2 0.21071048E-02 0.80200579E+02</pdfrwt>
<totfact> 0.15007179E+05</totfact>
</mgrwt>
</event>
<event>
 8    1  0.1372337E-020  0.8300660E+02  0.7818608E-02  0.1320729E+00
         -2   -1    0    0    0  501 -0.00000000000E+00  0.00000000000E+00  0.14494578225E+03  0.14494578227E+03  0.25500000000E-02 0.  1.
          1   -1    0    0  501    0  0.00000000000E+00 -0.00000000000E+00 -0.11883918260E+02  0.11883919329E+02  0.50400000000E-02 0. -1.
        -24    2    1    2    0    0  0.00000000000E+00  0.00000000000E+00  0.13306186399E+03  0.15682970160E+03  0.83006600074E+02 0.  0.
         66    2    3    3    0    0 -0.38334135250E+02 -0.72463158454E+01  0.93188967274E+02  0.10104552754E+03  0.19999990523E+01 0.  0.
         13    1    3    3    0    0  0.38334135250E+02  0.72463158454E+01  0.39872896714E+02  0.55784174056E+02  0.10566000000E+00 0. -1.
         13    1    4    4    0    0 -0.17909491118E+02 -0.42160266179E+01  0.44567585098E+02  0.48216237494E+02  0.10566000000E+00 0.  1.
        -13    1    4    4    0    0 -0.77718388083E+01 -0.10098730133E+01  0.19275014195E+02  0.20807658643E+02  0.10566000000E+00 0. -1.
        -14    1    4    4    0    0 -0.12652805324E+02 -0.20204162142E+01  0.29346367981E+02  0.32021631406E+02  0.00000000000E+00 0.  1.
<mgrwt>
<rscale>  0 0.83006600E+02</rscale>
<asrwt>0</asrwt>
<pdfrwt beam="1">  1        1 0.18282953E-02 0.83006600E+02</pdfrwt>
<pdfrwt beam="2">  1       -2 0.22299350E-01 0.83006600E+02</pdfrwt>
<totfact> 0.86906379E+04</totfact>
</mgrwt>
</event>
<event>
 8    1  0.1372337E-020  0.8005752E+02  0.7818608E-02  0.1328888E+00
         -2   -1    0    0    0  501 -0.00000000000E+00  0.00000000000E+00  0.27301697136E+02  0.27301697255E+02  0.25500000000E-02 0.  1.
          1   -1    0    0  501    0  0.00000000000E+00 -0.00000000000E+00 -0.58688721303E+02  0.58688721520E+02  0.50400000000E-02 0. -1.
        -24    2    1    2    0    0 -0.71054273576E-14  0.35527136788E-14 -0.31387024168E+02  0.85990418774E+02  0.80057522038E+02 0.  0.
         66    2    3    3    0    0  0.27691438843E+02 -0.13664408055E+02  0.11612975154E+02  0.33051369497E+02  0.20000002657E+01 0.  0.
         13    1    3    3    0    0 -0.27691438843E+02  0.13664408055E+02 -0.42999999322E+02  0.52939049277E+02  0.10566000000E+00 0. -1.
         13    1    4    4    0    0  0.62248580146E+01 -0.23520530958E+01  0.22843126731E+01  0.70363527123E+01  0.10566000000E+00 0. -1.
        -13    1    4    4    0    0  0.17367136276E+02 -0.87907516718E+01  0.77181902308E+01  0.20939827169E+02  0.10566000000E+00 0.  1.
         14    1    4    4    0    0  0.40994445518E+01 -0.25216032873E+01  0.16104722500E+01  0.50751896161E+01  0.00000000000E+00 0. -1.
<mgrwt>
<rscale>  0 0.80057522E+02</rscale>
<asrwt>0</asrwt>
<pdfrwt beam="1">  1        1 0.90290341E-02 0.80057522E+02</pdfrwt>
<pdfrwt beam="2">  1       -2 0.42002611E-02 0.80057522E+02</pdfrwt>
<totfact> 0.13464998E+05</totfact>
</mgrwt>
</event>
<event>
 8    1  0.1372337E-020  0.8046232E+02  0.7818608E-02  0.1327745E+00
         -2   -1    0    0    0  501 -0.00000000000E+00  0.00000000000E+00  0.40656372550E+02  0.40656372630E+02  0.25500000000E-02 0.  1.
          1   -1    0    0  501    0  0.00000000000E+00 -0.00000000000E+00 -0.39810390551E+02  0.39810390870E+02  0.50400000000E-02 0. -1.
        -24    2    1    2    0    0 -0.17763568394E-14 -0.35527136788E-14  0.84598199863E+00  0.80466763500E+02  0.80462316289E+02 0.  0.
         66    2    3    3    0    0  0.95097552659E+01  0.20287800862E+02  0.33809386641E+02  0.40609173022E+02  0.19999998613E+01 0.  0.
         13    1    3    3    0    0 -0.95097552659E+01 -0.20287800862E+02 -0.32963404642E+02  0.39857590478E+02  0.10566000000E+00 0. -1.
         13    1    4    4    0    0  0.45456503100E+01  0.11231885347E+02  0.18809206515E+02  0.22374440752E+02  0.10566000000E+00 0.  1.
        -13    1    4    4    0    0  0.27052808057E+01  0.54487452079E+01  0.81612415181E+01  0.10179606855E+02  0.10566000000E+00 0. -1.
        -14    1    4    4    0    0  0.22588241503E+01  0.36071703072E+01  0.68389386074E+01  0.80551254145E+01  0.00000000000E+00 0.  1.
<mgrwt>
<rscale>  0 0.80462316E+02</rscale>
<asrwt>0</asrwt>
<pdfrwt beam="1">  1        1 0.61246755E-02 0.80462316E+02</pdfrwt>
<pdfrwt beam="2">  1       -2 0.62548266E-02 0.80462316E+02</pdfrwt>
<totfact> 0.12483248E+05</totfact>
</mgrwt>
</event>
<event>
 8    1  0.1372337E-020  0.7898239E+02  0.7818608E-02  0.1331964E+00
          1   -1    0    0  501    0  0.00000000000E+00  0.00000000000E+00  0.75266097220E+01  0.75266114095E+01  0.50400000000E-02 0. -1.
         -2   -1    0    0    0  501 -0.00000000000E+00 -0.00000000000E+00 -0.20720542790E+03  0.20720542792E+03  0.25500000000E-02 0.  1.
        -24    2    1    2    0    0  0.00000000000E+00  0.22204460493E-15 -0.19967881818E+03  0.21473203933E+03  0.78982392239E+02 0.  0.
         66    2    3    3    0    0  0.36273825549E+02 -0.60585249112E+00 -0.14214365926E+03  0.14671393032E+03  0.20000011237E+01 0.  0.
         13    1    3    3    0    0 -0.36273825549E+02  0.60585249112E+00 -0.57535158922E+02  0.68018109011E+02  0.10566000000E+00 0. -1.
         13    1    4    4    0    0  0.38739650883E+01  0.10235423328E+00 -0.14205005065E+02  0.14724517473E+02  0.10566000000E+00 0. -1.
        -13    1    4    4    0    0  0.97514401517E+01  0.38680569719E+00 -0.40294476944E+02  0.41459573561E+02  0.10566000000E+00 0.  1.
        -14    1    4    4    0    0  0.22648420309E+02 -0.10950124216E+01 -0.87644177248E+02  0.90529839281E+02  0.00000000000E+00 0.  1.
<mgrwt>
<rscale>  0 0.78982392E+02</rscale>
<asrwt>0</asrwt>
<pdfrwt beam="1">  1        1 0.11579402E-02 0.78982392E+02</pdfrwt>
<pdfrwt beam="2">  1       -2 0.31877754E-01 0.78982392E+02</pdfrwt>
<totfact> 0.86662330E+04</totfact>
</mgrwt>
</event>
<event>
 8    1  0.1372337E-020  0.7938413E+02  0.7818608E-02  0.1330808E+00
         -2   -1    0    0    0  501 -0.00000000000E+00  0.00000000000E+00  0.32345580864E+01  0.32345590915E+01  0.25500000000E-02 0.  1.
          1   -1    0    0  501    0  0.00000000000E+00 -0.00000000000E+00 -0.48707112232E+03  0.48707112234E+03  0.50400000000E-02 0. -1.
        -24    2    1    2    0    0 -0.71054273576E-14 -0.35527136788E-14 -0.48383656423E+03  0.49030568144E+03  0.79384131668E+02 0.  0.
         66    2    3    3    0    0 -0.32405615835E+02 -0.22869950837E+02 -0.24543483069E+03  0.24862705949E+03  0.20000006754E+01 0.  0.
         13    1    3    3    0    0  0.32405615835E+02  0.22869950837E+02 -0.23840173354E+03  0.24167862195E+03  0.10566000000E+00 0. -1.
         13    1    4    4    0    0 -0.29716312076E+01 -0.18013108616E+01 -0.19546709318E+02  0.19853471285E+02  0.10566000000E+00 0. -1.
        -13    1    4    4    0    0 -0.22780414371E+01 -0.17533841899E+01 -0.20064698096E+02  0.20269856995E+02  0.10566000000E+00 0.  1.
        -14    1    4    4    0    0 -0.27155943190E+02 -0.19315255786E+02 -0.20582342328E+03  0.20850373120E+03  0.00000000000E+00 0.  1.
<mgrwt>
<rscale>  0 0.79384132E+02</rscale>
<asrwt>0</asrwt>
<pdfrwt beam="1">  1        1 0.74933961E-01 0.79384132E+02</pdfrwt>
<pdfrwt beam="2">  1       -2 0.49762478E-03 0.79384132E+02</pdfrwt>
<totfact> 0.19946041E+05</totfact>
</mgrwt>
</event>
<event>
 8    1  0.1372337E-020  0.8040798E+02  0.7818608E-02  0.1327898E+00
         -2   -1    0    0    0  501 -0.00000000000E+00  0.00000000000E+00  0.16343581660E+02  0.16343581858E+02  0.25500000000E-02 0.  1.
          1   -1    0    0  501    0  0.00000000000E+00 -0.00000000000E+00 -0.98898811539E+02  0.98898811668E+02  0.50400000000E-02 0. -1.
        -24    2    1    2    0    0  0.00000000000E+00  0.00000000000E+00 -0.82555229880E+02  0.11524239353E+03  0.80407980233E+02 0.  0.
         66    2    3    3    0    0  0.25037396107E+02  0.14822402142E+02 -0.15901621212E+01  0.29207934324E+02  0.20000007053E+01 0.  0.
         13    1    3    3    0    0 -0.25037396107E+02 -0.14822402142E+02 -0.80965067758E+02  0.86034459202E+02  0.10566000000E+00 0. -1.
         13    1    4    4    0    0  0.10115752275E+02  0.55072841098E+01 -0.41367462627E+00  0.11525663239E+02  0.10566000000E+00 0.  1.
        -13    1    4    4    0    0  0.85427692967E+01  0.60502292692E+01 -0.96707717728E+00  0.10513352642E+02  0.10566000000E+00 0. -1.
         14    1    4    4    0    0  0.63788745350E+01  0.32648887631E+01 -0.20941031763E+00  0.71689184435E+01  0.00000000000E+00 0. -1.
<mgrwt>
<rscale>  0 0.80407980E+02</rscale>
<asrwt>0</asrwt>
<pdfrwt beam="1">  1        1 0.15215201E-01 0.80407980E+02</pdfrwt>
<pdfrwt beam="2">  1       -2 0.25143973E-02 0.80407980E+02</pdfrwt>
<totfact> 0.14471342E+05</totfact>
</mgrwt>
</event>
<event>
 8    1  0.1372337E-020  0.8157230E+02  0.7818608E-02  0.1324648E+00
         -2   -1    0    0    0  501 -0.00000000000E+00  0.00000000000E+00  0.90262409095E+02  0.90262409131E+02  0.25500000000E-02 0.  1.
          1   -1    0    0  501    0  0.00000000000E+00 -0.00000000000E+00 -0.18429709112E+02  0.18429709801E+02  0.50400000000E-02 0. -1.
        -24    2    1    2    0    0  0.00000000000E+00  0.35527136788E-14  0.71832699983E+02  0.10869211893E+03  0.81572298798E+02 0.  0.
         66    2    3    3    0    0  0.19012412796E+02 -0.29154872643E+02  0.64204535909E+02  0.73059570745E+02  0.20000017349E+01 0.  0.
         13    1    3    3    0    0 -0.19012412796E+02  0.29154872643E+02  0.76281640737E+01  0.35632548187E+02  0.10566000000E+00 0. -1.
         13    1    4    4    0    0  0.47563921841E+00 -0.95447044023E+00  0.14858119364E+01  0.18319518643E+01  0.10566000000E+00 0. -1.
        -13    1    4    4    0    0  0.10444029286E+02 -0.16092754619E+02  0.36579751947E+02  0.41305494979E+02  0.10566000000E+00 0.  1.
         14    1    4    4    0    0  0.80927442908E+01 -0.12107647585E+02  0.26138972026E+02  0.29922123901E+02  0.00000000000E+00 0. -1.
<mgrwt>
<rscale>  0 0.81572299E+02</rscale>
<asrwt>0</asrwt>
<pdfrwt beam="1">  1        1 0.28353399E-02 0.81572299E+02</pdfrwt>
<pdfrwt beam="2">  1       -2 0.13886525E-01 0.81572299E+02</pdfrwt>
<totfact> 0.10349704E+05</totfact>
</mgrwt>
</event>
<event>
 8    1  0.1372337E-020  0.7891921E+02  0.7818608E-02  0.1332147E+00
         -2   -1    0    0    0  501 -0.00000000000E+00  0.00000000000E+00  0.11301132298E+02  0.11301132586E+02  0.25500000000E-02 0.  1.
          1   -1    0    0  501    0  0.00000000000E+00 -0.00000000000E+00 -0.13777915351E+03  0.13777915360E+03  0.50400000000E-02 0. -1.
        -24    2    1    2    0    0 -0.71054273576E-14  0.17763568394E-14 -0.12647802121E+03  0.14908028619E+03  0.78919211097E+02 0.  0.
         66    2    3    3    0    0 -0.32990067242E+02  0.14532090957E+02 -0.33082924866E+02  0.48969440674E+02  0.19999994944E+01 0.  0.
         13    1    3    3    0    0  0.32990067242E+02 -0.14532090957E+02 -0.93395096343E+02  0.10011084551E+03  0.10566000000E+00 0. -1.
         13    1    4    4    0    0 -0.57099555375E+01  0.32077031631E+01 -0.61100618899E+01  0.89575092608E+01  0.10566000000E+00 0. -1.
        -13    1    4    4    0    0 -0.25656327803E+02  0.10842885084E+02 -0.25228904492E+02  0.37580900723E+02  0.10566000000E+00 0.  1.
         14    1    4    4    0    0 -0.16237839008E+01  0.48150271019E+00 -0.17439584848E+01  0.24310306895E+01  0.00000000000E+00 0. -1.
<mgrwt>
<rscale>  0 0.78919211E+02</rscale>
<asrwt>0</asrwt>
<pdfrwt beam="1">  1        1 0.21196792E-01 0.78919211E+02</pdfrwt>
<pdfrwt beam="2">  1       -2 0.17386359E-02 0.78919211E+02</pdfrwt>
<totfact> 0.16121064E+05</totfact>
</mgrwt>
</event>
<event>
 8    1  0.1372337E-020  0.8035998E+02  0.7818608E-02  0.1328033E+00
         -2   -1    0    0    0  501 -0.00000000000E+00  0.00000000000E+00  0.19593311334E+03  0.19593311336E+03  0.25500000000E-02 0.  1.
          1   -1    0    0  501    0  0.00000000000E+00 -0.00000000000E+00 -0.82397076120E+01  0.82397091534E+01  0.50400000000E-02 0. -1.
        -24    2    1    2    0    0  0.17763568394E-14  0.00000000000E+00  0.18769340573E+03  0.20417282251E+03  0.80359983187E+02 0.  0.
         66    2    3    3    0    0 -0.81717588885E+01 -0.65014856614E+01  0.19241742228E+03  0.19271095287E+03  0.19999996041E+01 0.  0.
         13    1    3    3    0    0  0.81717588885E+01  0.65014856614E+01 -0.47240165577E+01  0.11461869639E+02  0.10566000000E+00 0. -1.
         13    1    4    4    0    0 -0.26914901206E+01 -0.32842891745E+01  0.73513176313E+02  0.73635785662E+02  0.10566000000E+00 0. -1.
        -13    1    4    4    0    0 -0.27541280787E+01 -0.18779208635E+01  0.64647264213E+02  0.64733235224E+02  0.10566000000E+00 0.  1.
         14    1    4    4    0    0 -0.27261406892E+01 -0.13392756235E+01  0.54256981758E+02  0.54341931984E+02  0.00000000000E+00 0. -1.
<mgrwt>
<rscale>  0 0.80359983E+02</rscale>
<asrwt>0</asrwt>
<pdfrwt beam="1">  1        1 0.12676475E-02 0.80359983E+02</pdfrwt>
<pdfrwt beam="2">  1       -2 0.30143555E-01 0.80359983E+02</pdfrwt>
<totfact> 0.84795028E+04</totfact>
</mgrwt>
</event>
<event>
 8    1  0.1372337E-020  0.8009239E+02  0.7818608E-02  0.1328789E+00
          1   -1    0    0  501    0  0.00000000000E+00  0.00000000000E+00  0.57608522943E+02  0.57608523164E+02  0.50400000000E-02 0. -1.
         -2   -1    0    0    0  501 -0.00000000000E+00 -0.00000000000E+00 -0.27837852374E+02  0.27837852491E+02  0.25500000000E-02 0.  1.
        -24    2    1    2    0    0  0.71054273576E-14  0.35527136788E-14  0.29770670570E+02  0.85446375654E+02  0.80092385945E+02 0.  0.
         66    2    3    3    0    0  0.34156726438E+02  0.19436646113E+02  0.68240164422E+01  0.39937856971E+02  0.20000114798E+01 0.  0.
         13    1    3    3    0    0 -0.34156726438E+02 -0.19436646113E+02  0.22946654127E+02  0.45508518684E+02  0.10566000000E+00 0. -1.
         13    1    4    4    0    0  0.10573217754E+02  0.61259480559E+01  0.27577971955E+01  0.12527441186E+02  0.10566000000E+00 0. -1.
        -13    1    4    4    0    0  0.72134587655E+00  0.42618051298E+00 -0.53329895745E-01  0.84615472382E+00  0.10566000000E+00 0.  1.
        -14    1    4    4    0    0  0.22862162807E+02  0.12884517545E+02  0.41195491425E+01  0.26564261061E+02  0.00000000000E+00 0.  1.
<mgrwt>
<rscale>  0 0.80092386E+02</rscale>
<asrwt>0</asrwt>
<pdfrwt beam="1">  1        1 0.88628497E-02 0.80092386E+02</pdfrwt>
<pdfrwt beam="2">  1       -2 0.42827465E-02 0.80092386E+02</pdfrwt>
<totfact> 0.13409733E+05</totfact>
</mgrwt>
</event>
<event>
 8    1  0.1372337E-020  0.7947375E+02  0.7818608E-02  0.1330552E+00
         -2   -1    0    0    0  501 -0.00000000000E+00  0.00000000000E+00  0.17719914671E+02  0.17719914855E+02  0.25500000000E-02 0.  1.
          1   -1    0    0  501    0  0.00000000000E+00 -0.00000000000E+00 -0.89109872522E+02  0.89109872665E+02  0.50400000000E-02 0. -1.
        -24    2    1    2    0    0  0.00000000000E+00  0.88817841970E-15 -0.71389957851E+02  0.10682978752E+03  0.79473753023E+02 0.  0.
         66    2    3    3    0    0  0.37414293098E+02 -0.70967536965E+01 -0.20579661079E+02  0.43332617007E+02  0.20000013712E+01 0.  0.
         13    1    3    3    0    0 -0.37414293098E+02  0.70967536965E+01 -0.50810296772E+02  0.63497170513E+02  0.10566000000E+00 0. -1.
         13    1    4    4    0    0  0.13696630190E+02 -0.30245991300E+01 -0.72961621757E+01  0.15811104484E+02  0.10566000000E+00 0. -1.
        -13    1    4    4    0    0  0.22672242415E+02 -0.41726619455E+01 -0.12690874241E+02  0.26315606336E+02  0.10566000000E+00 0.  1.
         14    1    4    4    0    0  0.10454204932E+01  0.10050737900E+00 -0.59262466262E+00  0.12059061869E+01  0.00000000000E+00 0. -1.
<mgrwt>
<rscale>  0 0.79473753E+02</rscale>
<asrwt>0</asrwt>
<pdfrwt beam="1">  1        1 0.13709211E-01 0.79473753E+02</pdfrwt>
<pdfrwt beam="2">  1       -2 0.27261408E-02 0.79473753E+02</pdfrwt>
<totfact> 0.14680540E+05</totfact>
</mgrwt>
</event>
<event>
 8    1  0.1372337E-020  0.7991048E+02  0.7818608E-02  0.1329306E+00
         -2   -1    0    0    0  501 -0.00000000000E+00  0.00000000000E+00  0.26317267629E+03  0.26317267630E+03  0.25500000000E-02 0.  1.
          1   -1    0    0  501    0  0.00000000000E+00 -0.00000000000E+00 -0.60660591794E+01  0.60660612732E+01  0.50400000000E-02 0. -1.
        -24    2    1    2    0    0  0.00000000000E+00  0.00000000000E+00  0.25710661711E+03  0.26923873758E+03  0.79910482724E+02 0.  0.
         66    2    3    3    0    0 -0.38848450336E+02  0.88340940737E+01  0.13765732736E+03  0.14332056058E+03  0.19999994443E+01 0.  0.
         13    1    3    3    0    0  0.38848450336E+02 -0.88340940737E+01  0.11944928975E+03  0.12591817699E+03  0.10566000000E+00 0. -1.
         13    1    4    4    0    0 -0.10971512145E+02  0.22575055883E+01  0.37713540884E+02  0.39341997157E+02  0.10566000000E+00 0. -1.
        -13    1    4    4    0    0 -0.15892973115E+02  0.45110953254E+01  0.56907075031E+02  0.59256754283E+02  0.10566000000E+00 0.  1.
         14    1    4    4    0    0 -0.11983965076E+02  0.20654931600E+01  0.43036711447E+02  0.44721809144E+02  0.00000000000E+00 0. -1.
<mgrwt>
<rscale>  0 0.79910483E+02</rscale>
<asrwt>0</asrwt>
<pdfrwt beam="1">  1        1 0.93324007E-03 0.79910483E+02</pdfrwt>
<pdfrwt beam="2">  1       -2 0.40488103E-01 0.79910483E+02</pdfrwt>
<totfact> 0.75432503E+04</totfact>
</mgrwt>
</event>
<event>
 8    1  0.1372337E-020  0.8064200E+02  0.7818608E-02  0.1327239E+00
          1   -1    0    0  501    0  0.00000000000E+00  0.00000000000E+00  0.52059462139E+02  0.52059462383E+02  0.50400000000E-02 0. -1.
         -2   -1    0    0    0  501 -0.00000000000E+00 -0.00000000000E+00 -0.31229345531E+02  0.31229345635E+02  0.25500000000E-02 0.  1.
        -24    2    1    2    0    0  0.00000000000E+00  0.00000000000E+00  0.20830116608E+02  0.83288808019E+02  0.80641997639E+02 0.  0.
         66    2    3    3    0    0  0.38965579314E+02 -0.99838381185E+01  0.79373908733E+01  0.41048697510E+02  0.19999996443E+01 0.  0.
         13    1    3    3    0    0 -0.38965579314E+02  0.99838381185E+01  0.12892725735E+02  0.42240110508E+02  0.10566000000E+00 0. -1.
         13    1    4    4    0    0  0.16006449898E+02 -0.44413535329E+01  0.25636320559E+01  0.16808195409E+02  0.10566000000E+00 0. -1.
        -13    1    4    4    0    0  0.12979257033E+02 -0.26787659355E+01  0.28771025576E+01  0.13561924024E+02  0.10566000000E+00 0.  1.
         14    1    4    4    0    0  0.99798723829E+01 -0.28637186500E+01  0.24966562597E+01  0.10678578078E+02  0.00000000000E+00 0. -1.
<mgrwt>
<rscale>  0 0.80641998E+02</rscale>
<asrwt>0</asrwt>
<pdfrwt beam="1">  1        1 0.80091480E-02 0.80641998E+02</pdfrwt>
<pdfrwt beam="2">  1       -2 0.48045147E-02 0.80641998E+02</pdfrwt>
<totfact> 0.12950052E+05</totfact>
</mgrwt>
</event>
<event>
 8    1  0.1372337E-020  0.8136875E+02  0.7818608E-02  0.1325211E+00
         -2   -1    0    0    0  501 -0.00000000000E+00  0.00000000000E+00  0.34718312298E+02  0.34718312392E+02  0.25500000000E-02 0.  1.
          1   -1    0    0  501    0  0.00000000000E+00 -0.00000000000E+00 -0.47675660569E+02  0.47675660835E+02  0.50400000000E-02 0. -1.
        -24    2    1    2    0    0  0.00000000000E+00  0.00000000000E+00 -0.12957348271E+02  0.82393973227E+02  0.81368752908E+02 0.  0.
         66    2    3    3    0    0  0.34102119987E+01 -0.33325387372E+02  0.16851255161E+02  0.37552307424E+02  0.20000007447E+01 0.  0.
         13    1    3    3    0    0 -0.34102119987E+01  0.33325387372E+02 -0.29808603431E+02  0.44841665803E+02  0.10566000000E+00 0. -1.
         13    1    4    4    0    0  0.70202094289E+00 -0.37524294461E+01  0.18316781327E+01  0.42355364442E+01  0.10566000000E+00 0. -1.
        -13    1    4    4    0    0  0.15775871083E+01 -0.18764823340E+02  0.86780841220E+01  0.20734697590E+02  0.10566000000E+00 0.  1.
        -14    1    4    4    0    0  0.11306039475E+01 -0.10808134586E+02  0.63414929060E+01  0.12582073390E+02  0.00000000000E+00 0.  1.
<mgrwt>
<rscale>  0 0.81368753E+02</rscale>
<asrwt>0</asrwt>
<pdfrwt beam="1">  1        1 0.73347171E-02 0.81368753E+02</pdfrwt>
<pdfrwt beam="2">  1       -2 0.53412788E-02 0.81368753E+02</pdfrwt>
<totfact> 0.12454511E+05</totfact>
</mgrwt>
</event>
<event>
 8    1  0.1372337E-020  0.8243146E+02  0.7818608E-02  0.1322290E+00
         -2   -1    0    0    0  501 -0.00000000000E+00  0.00000000000E+00  0.71391398754E+01  0.71391403308E+01  0.25500000000E-02 0.  1.
          1   -1    0    0  501    0  0.00000000000E+00 -0.00000000000E+00 -0.23794689279E+03  0.23794689284E+03  0.50400000000E-02 0. -1.
        -24    2    1    2    0    0  0.00000000000E+00  0.00000000000E+00 -0.23080775291E+03  0.24508603317E+03  0.82431455474E+02 0.  0.
         66    2    3    3    0    0  0.33213180416E+02 -0.11871496250E+02 -0.17873070575E+03  0.18218867408E+03  0.20000013497E+01 0.  0.
         13    1    3    3    0    0 -0.33213180416E+02  0.11871496250E+02 -0.52077047158E+02  0.62897359097E+02  0.10566000000E+00 0. -1.
         13    1    4    4    0    0  0.73423998567E+01 -0.33433033364E+01 -0.43287151403E+02  0.44032682787E+02  0.10566000000E+00 0. -1.
        -13    1    4    4    0    0  0.40307459362E+01 -0.13476668852E+01 -0.21400192533E+02  0.21818398734E+02  0.10566000000E+00 0.  1.
         14    1    4    4    0    0  0.21840034623E+02 -0.71805260287E+01 -0.11404336182E+03  0.11633759255E+03  0.00000000000E+00 0. -1.
<mgrwt>
<rscale>  0 0.82431455E+02</rscale>
<asrwt>0</asrwt>
<pdfrwt beam="1">  1        1 0.36607208E-01 0.82431455E+02</pdfrwt>
<pdfrwt beam="2">  1       -2 0.10983294E-02 0.82431455E+02</pdfrwt>
<totfact> 0.15932326E+05</totfact>
</mgrwt>
</event>
<event>
 8    1  0.1372337E-020  0.8231633E+02  0.7818608E-02  0.1322604E+00
          1   -1    0    0  501    0  0.00000000000E+00  0.00000000000E+00  0.22362460180E+03  0.22362460186E+03  0.50400000000E-02 0. -1.
         -2   -1    0    0    0  501 -0.00000000000E+00 -0.00000000000E+00 -0.75751700033E+01  0.75751704325E+01  0.25500000000E-02 0.  1.
        -24    2    1    2    0    0 -0.22204460493E-15  0.00000000000E+00  0.21604943180E+03  0.23119977229E+03  0.82316327220E+02 0.  0.
         66    2    3    3    0    0 -0.14729678856E+01  0.37096627409E+02  0.58345417752E+02  0.69184660002E+02  0.20000018699E+01 0.  0.
         13    1    3    3    0    0  0.14729678856E+01 -0.37096627409E+02  0.15770401404E+03  0.16201511229E+03  0.10566000000E+00 0. -1.
         13    1    4    4    0    0 -0.27424479400E+00  0.15590724695E+02  0.22862931071E+02  0.27674368790E+02  0.10566000000E+00 0. -1.
        -13    1    4    4    0    0 -0.44953112742E+00  0.90584526049E+01  0.14615584291E+02  0.17201282220E+02  0.10566000000E+00 0.  1.
         14    1    4    4    0    0 -0.74919196422E+00  0.12447450109E+02  0.20866902390E+02  0.24309008992E+02  0.00000000000E+00 0. -1.
<mgrwt>
<rscale>  0 0.82316327E+02</rscale>
<asrwt>0</asrwt>
<pdfrwt beam="1">  1        1 0.34403785E-01 0.82316327E+02</pdfrwt>
<pdfrwt beam="2">  1       -2 0.11654108E-02 0.82316327E+02</pdfrwt>
<totfact> 0.15797548E+05</totfact>
</mgrwt>
</event>
<event>
 8    1  0.1372337E-020  0.7853680E+02  0.7818608E-02  0.1333256E+00
          1   -1    0    0  501    0  0.00000000000E+00  0.00000000000E+00  0.71099585591E+02  0.71099585770E+02  0.50400000000E-02 0. -1.
         -2   -1    0    0    0  501 -0.00000000000E+00 -0.00000000000E+00 -0.21687993256E+02  0.21687993406E+02  0.25500000000E-02 0.  1.
        -24    2    1    2    0    0  0.00000000000E+00 -0.35527136788E-14  0.49411592335E+02  0.92787579176E+02  0.78536802789E+02 0.  0.
         66    2    3    3    0    0  0.20445797940E+02  0.30421568988E+02  0.81603450724E+01  0.37604437930E+02  0.20000018177E+01 0.  0.
         13    1    3    3    0    0 -0.20445797940E+02 -0.30421568988E+02  0.41251247262E+02  0.55183141246E+02  0.10566000000E+00 0. -1.
         13    1    4    4    0    0  0.42927967310E+01  0.76753114228E+01  0.23041197312E+01  0.90916797668E+01  0.10566000000E+00 0. -1.
        -13    1    4    4    0    0  0.11921550046E+02  0.17120026769E+02  0.45553547608E+01  0.21353713801E+02  0.10566000000E+00 0.  1.
        -14    1    4    4    0    0  0.42314511628E+01  0.56262307954E+01  0.13008705803E+01  0.71590443617E+01  0.00000000000E+00 0.  1.
<mgrwt>
<rscale>  0 0.78536803E+02</rscale>
<asrwt>0</asrwt>
<pdfrwt beam="1">  1        1 0.10938398E-01 0.78536803E+02</pdfrwt>
<pdfrwt beam="2">  1       -2 0.33366144E-02 0.78536803E+02</pdfrwt>
<totfact> 0.14624301E+05</totfact>
</mgrwt>
</event>
<event>
 8    1  0.1372337E-020  0.7920857E+02  0.7818608E-02  0.1331313E+00
         -2   -1    0    0    0  501 -0.00000000000E+00  0.00000000000E+00  0.59213136047E+02  0.59213136102E+02  0.25500000000E-02 0.  1.
          1   -1    0    0  501    0  0.00000000000E+00 -0.00000000000E+00 -0.26489040980E+02  0.26489041459E+02  0.50400000000E-02 0. -1.
        -24    2    1    2    0    0  0.71054273576E-14  0.35527136788E-14  0.32724095067E+02  0.85702177561E+02  0.79208565451E+02 0.  0.
         66    2    3    3    0    0  0.20876113802E+02  0.26781377472E+02  0.38372614790E+02  0.51278766256E+02  0.19999990369E+01 0.  0.
         13    1    3    3    0    0 -0.20876113802E+02 -0.26781377472E+02 -0.56485197234E+01  0.34423411305E+02  0.10566000000E+00 0. -1.
         13    1    4    4    0    0  0.10746717994E+01  0.15542638448E+01  0.15662333934E+01  0.24566047004E+01  0.10566000000E+00 0. -1.
        -13    1    4    4    0    0  0.27731374885E+01  0.36959188743E+01  0.50505942133E+01  0.68461502904E+01  0.10566000000E+00 0.  1.
        -14    1    4    4    0    0  0.17028304514E+02  0.21531194753E+02  0.31755787184E+02  0.41976011266E+02  0.00000000000E+00 0.  1.
<mgrwt>
<rscale>  0 0.79208565E+02</rscale>
<asrwt>0</asrwt>
<pdfrwt beam="1">  1        1 0.40752372E-02 0.79208565E+02</pdfrwt>
<pdfrwt beam="2">  1       -2 0.91097132E-02 0.79208565E+02</pdfrwt>
<totfact> 0.12170113E+05</totfact>
</mgrwt>
</event>
<event>
 8    1  0.1372337E-020  0.7942577E+02  0.7818608E-02  0.1330689E+00
         -2   -1    0    0    0  501 -0.00000000000E+00  0.00000000000E+00  0.22772096172E+03  0.22772096174E+03  0.25500000000E-02 0.  1.
          1   -1    0    0  501    0  0.00000000000E+00 -0.00000000000E+00 -0.69256386608E+01  0.69256404947E+01  0.50400000000E-02 0. -1.
        -24    2    1    2    0    0  0.00000000000E+00  0.00000000000E+00  0.22079532306E+03  0.23464660223E+03  0.79425771969E+02 0.  0.
         66    2    3    3    0    0  0.32976054747E+01 -0.20133553079E+02  0.21103805012E+03  0.21203134851E+03  0.19999981100E+01 0.  0.
         13    1    3    3    0    0 -0.32976054747E+01  0.20133553079E+02  0.97572729412E+01  0.22615253718E+02  0.10566000000E+00 0. -1.
         13    1    4    4    0    0  0.32639307225E+00 -0.13759832323E+01  0.19001441227E+02  0.19054285477E+02  0.10566000000E+00 0. -1.
        -13    1    4    4    0    0  0.20804638072E+01 -0.11582671869E+02  0.12415323660E+03  0.12470975880E+03  0.10566000000E+00 0.  1.
         14    1    4    4    0    0  0.89074859523E+00 -0.71748979771E+01  0.67883372293E+02  0.68267304238E+02  0.00000000000E+00 0. -1.
<mgrwt>
<rscale>  0 0.79425772E+02</rscale>
<asrwt>0</asrwt>
<pdfrwt beam="1">  1        1 0.10654830E-02 0.79425772E+02</pdfrwt>
<pdfrwt beam="2">  1       -2 0.35033994E-01 0.79425772E+02</pdfrwt>
<totfact> 0.82016906E+04</totfact>
</mgrwt>
</event>
<event>
 8    1  0.1372337E-020  0.8076270E+02  0.7818608E-02  0.1326901E+00
         -2   -1    0    0    0  501 -0.00000000000E+00  0.00000000000E+00  0.64615270030E+02  0.64615270081E+02  0.25500000000E-02 0.  1.
          1   -1    0    0  501    0  0.00000000000E+00 -0.00000000000E+00 -0.25236347888E+02  0.25236348391E+02  0.50400000000E-02 0. -1.
        -24    2    1    2    0    0  0.00000000000E+00  0.71054273576E-14  0.39378922143E+02  0.89851618472E+02  0.80762700753E+02 0.  0.
         66    2    3    3    0    0  0.79753179987E+01 -0.39559549677E+02  0.20025520783E+02  0.45095289577E+02  0.19999978938E+01 0.  0.
         13    1    3    3    0    0 -0.79753179987E+01  0.39559549677E+02  0.19353401360E+02  0.44756328894E+02  0.10566000000E+00 0. -1.
         13    1    4    4    0    0  0.63715491927E+01 -0.34432493821E+02  0.17055479096E+02  0.38949888332E+02  0.10566000000E+00 0.  1.
        -13    1    4    4    0    0  0.32514939806E+00 -0.99890474508E+00  0.66012269227E+00  0.12451742148E+01  0.10566000000E+00 0.  1.
        -14    1    4    4    0    0  0.12786194080E+01 -0.41281511118E+01  0.23099189949E+01  0.49002270310E+01  0.00000000000E+00 0.  1.
<mgrwt>
<rscale>  0 0.80762701E+02</rscale>
<asrwt>0</asrwt>
<pdfrwt beam="1">  1        1 0.38825151E-02 0.80762701E+02</pdfrwt>
<pdfrwt beam="2">  1       -2 0.99408107E-02 0.80762701E+02</pdfrwt>
<totfact> 0.11396232E+05</totfact>
</mgrwt>
</event>
<event>
 8    1  0.1372337E-020  0.7982185E+02  0.7818608E-02  0.1329558E+00
         -2   -1    0    0    0  501 -0.00000000000E+00  0.00000000000E+00  0.17352357214E+03  0.17352357215E+03  0.25500000000E-02 0.  1.
          1   -1    0    0  501    0  0.00000000000E+00 -0.00000000000E+00 -0.91796276354E+01  0.91796290190E+01  0.50400000000E-02 0. -1.
        -24    2    1    2    0    0 -0.35527136788E-14  0.00000000000E+00  0.16434394450E+03  0.18270320117E+03  0.79821849296E+02 0.  0.
         66    2    3    3    0    0  0.20711387741E+02 -0.33807588379E+02  0.92190549950E+02  0.10037435979E+03  0.19999973253E+01 0.  0.
         13    1    3    3    0    0 -0.20711387741E+02  0.33807588379E+02  0.72153394550E+02  0.82328841382E+02  0.10566000000E+00 0. -1.
         13    1    4    4    0    0  0.30424813251E+01 -0.40653690052E+01  0.12567189449E+02  0.13554679356E+02  0.10566000000E+00 0. -1.
        -13    1    4    4    0    0  0.13389113908E+02 -0.22995779791E+02  0.62087671551E+02  0.67549717854E+02  0.10566000000E+00 0.  1.
        -14    1    4    4    0    0  0.42797925082E+01 -0.67464395823E+01  0.17535688950E+02  0.19269962581E+02  0.00000000000E+00 0.  1.
<mgrwt>
<rscale>  0 0.79821849E+02</rscale>
<asrwt>0</asrwt>
<pdfrwt beam="1">  1        1 0.14122507E-02 0.79821849E+02</pdfrwt>
<pdfrwt beam="2">  1       -2 0.26695931E-01 0.79821849E+02</pdfrwt>
<totfact> 0.90378120E+04</totfact>
</mgrwt>
</event>
<event>
 8    1  0.1372337E-020  0.7767112E+02  0.7818608E-02  0.1335793E+00
          1   -1    0    0  501    0  0.00000000000E+00  0.00000000000E+00  0.98608186449E+01  0.98608199329E+01  0.50400000000E-02 0. -1.
         -2   -1    0    0    0  501 -0.00000000000E+00 -0.00000000000E+00 -0.15294883360E+03  0.15294883362E+03  0.25500000000E-02 0.  1.
        -24    2    1    2    0    0  0.00000000000E+00  0.17763568394E-14 -0.14308801496E+03  0.16280965355E+03  0.77671122476E+02 0.  0.
         66    2    3    3    0    0 -0.31604270974E+02  0.15622205312E+02 -0.10560521197E+03  0.11135234186E+03  0.20000002675E+01 0.  0.
         13    1    3    3    0    0  0.31604270974E+02 -0.15622205312E+02 -0.37482802987E+02  0.51457311691E+02  0.10566000000E+00 0. -1.
         13    1    4    4    0    0 -0.52018776806E+01  0.27753253845E+01 -0.16555119763E+02  0.17573989780E+02  0.10566000000E+00 0. -1.
        -13    1    4    4    0    0 -0.16096838652E+02  0.70628648236E+01 -0.52361168379E+02  0.55233100512E+02  0.10566000000E+00 0.  1.
        -14    1    4    4    0    0 -0.10305554641E+02  0.57840151044E+01 -0.36688923826E+02  0.38545251571E+02  0.00000000000E+00 0.  1.
<mgrwt>
<rscale>  0 0.77671122E+02</rscale>
<asrwt>0</asrwt>
<pdfrwt beam="1">  1        1 0.15170492E-02 0.77671122E+02</pdfrwt>
<pdfrwt beam="2">  1       -2 0.23530588E-01 0.77671122E+02</pdfrwt>
<totfact> 0.10131681E+05</totfact>
</mgrwt>
</event>
<event>
 8    1  0.1372337E-020  0.7965197E+02  0.7818608E-02  0.1330042E+00
          1   -1    0    0  501    0  0.00000000000E+00  0.00000000000E+00  0.27905588895E+01  0.27905634408E+01  0.50400000000E-02 0. -1.
         -2   -1    0    0    0  501 -0.00000000000E+00 -0.00000000000E+00 -0.56838352934E+03  0.56838352934E+03  0.25500000000E-02 0.  1.
        -24    2    1    2    0    0  0.00000000000E+00  0.00000000000E+00 -0.56559297045E+03  0.57117409278E+03  0.79651968259E+02 0.  0.
         66    2    3    3    0    0  0.36186410515E+01 -0.23017345176E+02 -0.51436260077E+03  0.51489394812E+03  0.19999992740E+01 0.  0.
         13    1    3    3    0    0 -0.36186410515E+01  0.23017345176E+02 -0.51230369672E+02  0.56280144659E+02  0.10566000000E+00 0. -1.
         13    1    4    4    0    0  0.25053498908E+01 -0.14254860369E+02 -0.30159514847E+03  0.30194225038E+03  0.10566000000E+00 0.  1.
        -13    1    4    4    0    0  0.29360399947E+00 -0.14923970774E+01 -0.32154681698E+02  0.32190808804E+02  0.10566000000E+00 0. -1.
        -14    1    4    4    0    0  0.81968716131E+00 -0.72700877300E+01 -0.18061277061E+03  0.18076088894E+03  0.00000000000E+00 0.  1.
<mgrwt>
<rscale>  0 0.79651968E+02</rscale>
<asrwt>0</asrwt>
<pdfrwt beam="1">  1        1 0.42931756E-03 0.79651968E+02</pdfrwt>
<pdfrwt beam="2">  1       -2 0.87443528E-01 0.79651968E+02</pdfrwt>
<totfact> 0.46007904E+04</totfact>
</mgrwt>
</event>
<event>
 8    1  0.1615445E-020  0.8031099E+02  0.7818608E-02  0.1328171E+00
         -2   -1    0    0    0  501 -0.00000000000E+00  0.00000000000E+00  0.12981616089E+02  0.12981616339E+02  0.25500000000E-02 0.  1.
          1   -1    0    0  501    0  0.00000000000E+00 -0.00000000000E+00 -0.12421132050E+03  0.12421132061E+03  0.50400000000E-02 0. -1.
        -24    2    1    2    0    0  0.00000000000E+00  0.00000000000E+00 -0.11122970442E+03  0.13719293695E+03  0.80310988061E+02 0.  0.
         66    2    3    3    0    0 -0.38493831305E+02 -0.23611545950E+01 -0.36695239226E+02  0.53271856371E+02  0.19999999756E+01 0.  0.
         13    1    3    3    0    0  0.38493831305E+02  0.23611545950E+01 -0.74534465189E+02  0.83921080574E+02  0.10566000000E+00 0. -1.
         13    1    4    4    0    0 -0.12817760755E+02 -0.95861016811E+00 -0.11756171655E+02  0.17419318593E+02  0.10566000000E+00 0. -1.
        -13    1    4    4    0    0 -0.23558507339E+02 -0.13446823165E+01 -0.22285709743E+02  0.32457286722E+02  0.10566000000E+00 0.  1.
         14    1    4    4    0    0 -0.21175632106E+01 -0.57862110352E-01 -0.26533578269E+01  0.33952510558E+01  0.00000000000E+00 0. -1.
<mgrwt>
<rscale>  0 0.80310988E+02</rscale>
<asrwt>0</asrwt>
<pdfrwt beam="1">  1        1 0.19109433E-01 0.80310988E+02</pdfrwt>
<pdfrwt beam="2">  1       -2 0.19971718E-02 0.80310988E+02</pdfrwt>
<totfact> 0.15100690E+05</totfact>
</mgrwt>
</event>
<event>
 8    1  0.1372337E-020  0.8011520E+02  0.7818608E-02  0.1328725E+00
         -2   -1    0    0    0  501 -0.00000000000E+00  0.00000000000E+00  0.95436288879E+01  0.95436292286E+01  0.25500000000E-02 0.  1.
          1   -1    0    0  501    0  0.00000000000E+00 -0.00000000000E+00 -0.16813428481E+03  0.16813428489E+03  0.50400000000E-02 0. -1.
        -24    2    1    2    0    0  0.00000000000E+00 -0.71054273576E-14 -0.15859065593E+03  0.17767791412E+03  0.80115198423E+02 0.  0.
         66    2    3    3    0    0  0.18727457796E+02  0.34109563170E+02 -0.58489649755E+02  0.70279578118E+02  0.19999991903E+01 0.  0.
         13    1    3    3    0    0 -0.18727457796E+02 -0.34109563170E+02 -0.10010100617E+03  0.10739833600E+03  0.10566000000E+00 0. -1.
         13    1    4    4    0    0  0.37723397418E+01  0.58338799927E+01 -0.11054179579E+02  0.13056444887E+02  0.10566000000E+00 0. -1.
        -13    1    4    4    0    0  0.57935632401E+01  0.11352480421E+02 -0.18020476895E+02  0.22072447492E+02  0.10566000000E+00 0.  1.
        -14    1    4    4    0    0  0.91615548143E+01  0.16923202757E+02 -0.29414993282E+02  0.35150685739E+02  0.00000000000E+00 0.  1.
<mgrwt>
<rscale>  0 0.80115198E+02</rscale>
<asrwt>0</asrwt>
<pdfrwt beam="1">  1        1 0.25866811E-01 0.80115198E+02</pdfrwt>
<pdfrwt beam="2">  1       -2 0.14682508E-02 0.80115198E+02</pdfrwt>
<totfact> 0.16066481E+05</totfact>
</mgrwt>
</event>
<event>
 8    1  0.1372337E-020  0.7927955E+02  0.7818608E-02  0.1331108E+00
         -2   -1    0    0    0  501 -0.00000000000E+00  0.00000000000E+00  0.59420188367E+02  0.59420188422E+02  0.25500000000E-02 0.  1.
          1   -1    0    0  501    0  0.00000000000E+00 -0.00000000000E+00 -0.26444075177E+02  0.26444075658E+02  0.50400000000E-02 0. -1.
        -24    2    1    2    0    0  0.00000000000E+00  0.00000000000E+00  0.32976113190E+02  0.85864264079E+02  0.79279554772E+02 0.  0.
         66    2    3    3    0    0  0.57404957599E+01  0.36517523385E+02  0.31923021154E+02  0.48883147646E+02  0.20000096133E+01 0.  0.
         13    1    3    3    0    0 -0.57404957599E+01 -0.36517523385E+02  0.10530920353E+01  0.36981116433E+02  0.10566000000E+00 0. -1.
         13    1    4    4    0    0  0.67001447505E-01  0.66049028197E+00  0.50793964647E+00  0.84255761026E+00  0.10566000000E+00 0.  1.
        -13    1    4    4    0    0  0.16356106965E+01  0.14274885780E+02  0.11648185415E+02  0.18496999051E+02  0.10566000000E+00 0.  1.
        -14    1    4    4    0    0  0.40378836159E+01  0.21582147323E+02  0.19766896093E+02  0.29543590985E+02  0.00000000000E+00 0.  1.
<mgrwt>
<rscale>  0 0.79279555E+02</rscale>
<asrwt>0</asrwt>
<pdfrwt beam="1">  1        1 0.40683193E-02 0.79279555E+02</pdfrwt>
<pdfrwt beam="2">  1       -2 0.91415674E-02 0.79279555E+02</pdfrwt>
<totfact> 0.12134751E+05</totfact>
</mgrwt>
</event>
<event>
 8    1  0.1372337E-020  0.8068284E+02  0.7818608E-02  0.1327125E+00
         -2   -1    0    0    0  501 -0.00000000000E+00  0.00000000000E+00  0.10882339841E+02  0.10882340140E+02  0.25500000000E-02 0.  1.
          1   -1    0    0  501    0  0.00000000000E+00 -0.00000000000E+00 -0.14954780894E+03  0.14954780902E+03  0.50400000000E-02 0. -1.
        -24    2    1    2    0    0  0.88817841970E-15 -0.71054273576E-14 -0.13866546909E+03  0.16043014916E+03  0.80682838575E+02 0.  0.
         66    2    3    3    0    0 -0.79609569871E+01 -0.34330731716E+02 -0.30438556277E+02  0.46609888231E+02  0.19999990867E+01 0.  0.
         13    1    3    3    0    0  0.79609569871E+01  0.34330731716E+02 -0.10822691282E+03  0.11382026093E+03  0.10566000000E+00 0. -1.
         13    1    4    4    0    0 -0.48811357646E-01 -0.55506687481E+00 -0.75652623416E+00  0.94550397287E+00  0.10566000000E+00 0. -1.
        -13    1    4    4    0    0 -0.40814019949E+01 -0.15626119421E+02 -0.14039272538E+02  0.21399667937E+02  0.10566000000E+00 0.  1.
         14    1    4    4    0    0 -0.38307436346E+01 -0.18149545419E+02 -0.15642757506E+02  0.24264716320E+02  0.00000000000E+00 0. -1.
<mgrwt>
<rscale>  0 0.80682839E+02</rscale>
<asrwt>0</asrwt>
<pdfrwt beam="1">  1        1 0.23007354E-01 0.80682839E+02</pdfrwt>
<pdfrwt beam="2">  1       -2 0.16742063E-02 0.80682839E+02</pdfrwt>
<totfact> 0.15425126E+05</totfact>
</mgrwt>
</event>
<event>
 8    1  0.1372337E-020  0.7684169E+02  0.7818608E-02  0.1338261E+00
         -2   -1    0    0    0  501 -0.00000000000E+00  0.00000000000E+00  0.10244098219E+02  0.10244098536E+02  0.25500000000E-02 0.  1.
          1   -1    0    0  501    0  0.00000000000E+00 -0.00000000000E+00 -0.14409868817E+03  0.14409868826E+03  0.50400000000E-02 0. -1.
        -24    2    1    2    0    0 -0.17763568394E-14  0.00000000000E+00 -0.13385458995E+03  0.15434278679E+03  0.76841685201E+02 0.  0.
         66    2    3    3    0    0 -0.15750134978E+02 -0.34169486610E+02 -0.51605129845E+02  0.63896087469E+02  0.20000001340E+01 0.  0.
         13    1    3    3    0    0  0.15750134978E+02  0.34169486610E+02 -0.82249460103E+02  0.90446699322E+02  0.10566000000E+00 0. -1.
         13    1    4    4    0    0 -0.53735478585E+01 -0.12287485409E+02 -0.19847727350E+02  0.23954138667E+02  0.10566000000E+00 0. -1.
        -13    1    4    4    0    0 -0.62671690999E+01 -0.13741559833E+02 -0.20050419518E+02  0.25102556882E+02  0.10566000000E+00 0.  1.
         14    1    4    4    0    0 -0.41094180191E+01 -0.81404413687E+01 -0.11706982978E+02  0.14839391920E+02  0.00000000000E+00 0. -1.
<mgrwt>
<rscale>  0 0.76841685E+02</rscale>
<asrwt>0</asrwt>
<pdfrwt beam="1">  1        1 0.22169028E-01 0.76841685E+02</pdfrwt>
<pdfrwt beam="2">  1       -2 0.15760152E-02 0.76841685E+02</pdfrwt>
<totfact> 0.17450700E+05</totfact>
</mgrwt>
</event>
<event>
 8    1  0.1372337E-020  0.8039056E+02  0.7818608E-02  0.1327947E+00
         -2   -1    0    0    0  501 -0.00000000000E+00  0.00000000000E+00  0.30684120462E+03  0.30684120463E+03  0.25500000000E-02 0.  1.
          1   -1    0    0  501    0  0.00000000000E+00 -0.00000000000E+00 -0.52654608268E+01  0.52654632389E+01  0.50400000000E-02 0. -1.
        -24    2    1    2    0    0 -0.71054273576E-14  0.00000000000E+00  0.30157574379E+03  0.31210666787E+03  0.80390564647E+02 0.  0.
         66    2    3    3    0    0 -0.36973511451E+02  0.40051822890E+01  0.20983352785E+03  0.21311309543E+03  0.19999999061E+01 0.  0.
         13    1    3    3    0    0  0.36973511451E+02 -0.40051822890E+01  0.91742215944E+02  0.98993572440E+02  0.10566000000E+00 0. -1.
         13    1    4    4    0    0 -0.12619945155E+02  0.13417572768E+01  0.67570713997E+02  0.68752279107E+02  0.10566000000E+00 0. -1.
        -13    1    4    4    0    0 -0.20654357553E+02  0.23361013370E+01  0.12281318578E+03  0.12455982346E+03  0.10566000000E+00 0.  1.
         14    1    4    4    0    0 -0.36992087427E+01  0.32732367522E+00  0.19449628077E+02  0.19800992866E+02  0.00000000000E+00 0. -1.
<mgrwt>
<rscale>  0 0.80390565E+02</rscale>
<asrwt>0</asrwt>
<pdfrwt beam="1">  1        1 0.81007091E-03 0.80390565E+02</pdfrwt>
<pdfrwt beam="2">  1       -2 0.47206350E-01 0.80390565E+02</pdfrwt>
<totfact> 0.68538384E+04</totfact>
</mgrwt>
</event>
<event>
 8    1  0.1372337E-020  0.7946732E+02  0.7818608E-02  0.1330570E+00
          1   -1    0    0  501    0  0.00000000000E+00  0.00000000000E+00  0.41131627109E+02  0.41131627418E+02  0.50400000000E-02 0. -1.
         -2   -1    0    0    0  501 -0.00000000000E+00 -0.00000000000E+00 -0.38383209072E+02  0.38383209157E+02  0.25500000000E-02 0.  1.
        -24    2    1    2    0    0  0.00000000000E+00 -0.17763568394E-14  0.27484180364E+01  0.79514836575E+02  0.79467323057E+02 0.  0.
         66    2    3    3    0    0  0.32261995809E+02  0.12771043115E+02 -0.17945092527E+02  0.39114731881E+02  0.19999971195E+01 0.  0.
         13    1    3    3    0    0 -0.32261995809E+02 -0.12771043115E+02  0.20693510563E+02  0.40400104694E+02  0.10566000000E+00 0. -1.
         13    1    4    4    0    0  0.60957091506E+01  0.17212124653E+01 -0.35476379154E+01  0.72606570786E+01  0.10566000000E+00 0. -1.
        -13    1    4    4    0    0  0.25449489692E+02  0.10871796867E+02 -0.13969937562E+02  0.31000690512E+02  0.10566000000E+00 0.  1.
        -14    1    4    4    0    0  0.71679696611E+00  0.17803378249E+00 -0.42751705001E+00  0.85338428998E+00  0.00000000000E+00 0.  1.
<mgrwt>
<rscale>  0 0.79467323E+02</rscale>
<asrwt>0</asrwt>
<pdfrwt beam="1">  1        1 0.63279427E-02 0.79467323E+02</pdfrwt>
<pdfrwt beam="2">  1       -2 0.59051091E-02 0.79467323E+02</pdfrwt>
<totfact> 0.12996784E+05</totfact>
</mgrwt>
</event>
<event>
 8    1  0.1372337E-020  0.8030836E+02  0.7818608E-02  0.1328179E+00
         -2   -1    0    0    0  501 -0.00000000000E+00  0.00000000000E+00  0.90727284864E+01  0.90727288448E+01  0.25500000000E-02 0.  1.
          1   -1    0    0  501    0  0.00000000000E+00 -0.00000000000E+00 -0.17771479029E+03  0.17771479036E+03  0.50400000000E-02 0. -1.
        -24    2    1    2    0    0  0.00000000000E+00  0.00000000000E+00 -0.16864206180E+03  0.18678751920E+03  0.80308357733E+02 0.  0.
         66    2    3    3    0    0  0.10430146109E+01 -0.38832879524E+02 -0.10777951111E+03  0.11458404524E+03  0.19999992747E+01 0.  0.
         13    1    3    3    0    0 -0.10430146109E+01  0.38832879524E+02 -0.60862550688E+02  0.72203473960E+02  0.10566000000E+00 0. -1.
         13    1    4    4    0    0  0.92317629246E+00 -0.34254589017E+02 -0.93773125739E+02  0.99838065877E+02  0.10566000000E+00 0. -1.
        -13    1    4    4    0    0 -0.27818962507E-01 -0.27876247499E+01 -0.77559265362E+01  0.82424017198E+01  0.10566000000E+00 0.  1.
         14    1    4    4    0    0  0.14765728095E+00 -0.17906657564E+01 -0.62504588364E+01  0.65035776454E+01  0.00000000000E+00 0. -1.
<mgrwt>
<rscale>  0 0.80308358E+02</rscale>
<asrwt>0</asrwt>
<pdfrwt beam="1">  1        1 0.27340735E-01 0.80308358E+02</pdfrwt>
<pdfrwt beam="2">  1       -2 0.13958045E-02 0.80308358E+02</pdfrwt>
<totfact> 0.16132409E+05</totfact>
</mgrwt>
</event>
<event>
 8    1  0.1372337E-020  0.8106449E+02  0.7818608E-02  0.1326057E+00
          1   -1    0    0  501    0  0.00000000000E+00  0.00000000000E+00  0.19035517048E+01  0.19035583770E+01  0.50400000000E-02 0. -1.
         -2   -1    0    0    0  501 -0.00000000000E+00 -0.00000000000E+00 -0.86304977218E+03  0.86304977219E+03  0.25500000000E-02 0.  1.
        -24    2    1    2    0    0  0.00000000000E+00  0.00000000000E+00 -0.86114622048E+03  0.86495333056E+03  0.81064486734E+02 0.  0.
         66    2    3    3    0    0  0.25238957360E+02 -0.84568888653E+01 -0.75663197666E+03  0.75710268261E+03  0.19999954483E+01 0.  0.
         13    1    3    3    0    0 -0.25238957360E+02  0.84568888653E+01 -0.10451424382E+03  0.10785064795E+03  0.10566000000E+00 0. -1.
         13    1    4    4    0    0  0.56275830522E+01 -0.11297780236E+01 -0.15381327425E+03  0.15392037094E+03  0.10566000000E+00 0. -1.
        -13    1    4    4    0    0  0.59884140809E+01 -0.20501782662E+01 -0.17967991571E+03  0.17979140026E+03  0.10566000000E+00 0.  1.
        -14    1    4    4    0    0  0.13622960227E+02 -0.52769325755E+01 -0.42313878670E+03  0.42339091142E+03  0.00000000000E+00 0.  1.
<mgrwt>
<rscale>  0 0.81064487E+02</rscale>
<asrwt>0</asrwt>
<pdfrwt beam="1">  1        1 0.29285531E-03 0.81064487E+02</pdfrwt>
<pdfrwt beam="2">  1       -2 0.13277658E+00 0.81064487E+02</pdfrwt>
<totfact> 0.29683374E+04</totfact>
</mgrwt>
</event>
<event>
 8    1  0.1372337E-020  0.7900392E+02  0.7818608E-02  0.1331902E+00
         -2   -1    0    0    0  501 -0.00000000000E+00  0.00000000000E+00  0.67512947715E+01  0.67512952530E+01  0.25500000000E-02 0.  1.
          1   -1    0    0  501    0  0.00000000000E+00 -0.00000000000E+00 -0.23112675072E+03  0.23112675077E+03  0.50400000000E-02 0. -1.
        -24    2    1    2    0    0  0.00000000000E+00  0.35527136788E-14 -0.22437545594E+03  0.23787804602E+03  0.79003921104E+02 0.  0.
         66    2    3    3    0    0 -0.16915375788E+02  0.29886135951E+02 -0.53635316917E+02  0.63718586622E+02  0.20000000389E+01 0.  0.
         13    1    3    3    0    0  0.16915375788E+02 -0.29886135951E+02 -0.17074013903E+03  0.17415945940E+03  0.10566000000E+00 0. -1.
         13    1    4    4    0    0 -0.10435928259E+02  0.16513815367E+02 -0.30329255501E+02  0.36076163874E+02  0.10566000000E+00 0. -1.
        -13    1    4    4    0    0 -0.50162883431E+01  0.10062203552E+02 -0.17761497984E+02  0.21021252668E+02  0.10566000000E+00 0.  1.
         14    1    4    4    0    0 -0.14631591855E+01  0.33101170322E+01 -0.55445634318E+01  0.66211700792E+01  0.00000000000E+00 0. -1.
<mgrwt>
<rscale>  0 0.79003921E+02</rscale>
<asrwt>0</asrwt>
<pdfrwt beam="1">  1        1 0.35557956E-01 0.79003921E+02</pdfrwt>
<pdfrwt beam="2">  1       -2 0.10386610E-02 0.79003921E+02</pdfrwt>
<totfact> 0.17728774E+05</totfact>
</mgrwt>
</event>
<event>
 8    1  0.1372337E-020  0.8033280E+02  0.7818608E-02  0.1328110E+00
          1   -1    0    0  501    0  0.00000000000E+00  0.00000000000E+00  0.73960293233E+02  0.73960293405E+02  0.50400000000E-02 0. -1.
         -2   -1    0    0    0  501 -0.00000000000E+00 -0.00000000000E+00 -0.21813594397E+02  0.21813594546E+02  0.25500000000E-02 0.  1.
        -24    2    1    2    0    0  0.00000000000E+00  0.00000000000E+00  0.52146698836E+02  0.95773887951E+02  0.80332804095E+02 0.  0.
         66    2    3    3    0    0 -0.16041964892E+02 -0.35735092478E+02  0.15628278420E+02  0.42220665212E+02  0.20000031535E+01 0.  0.
         13    1    3    3    0    0  0.16041964892E+02  0.35735092478E+02  0.36518420416E+02  0.53553222739E+02  0.10566000000E+00 0. -1.
         13    1    4    4    0    0 -0.81318953128E+01 -0.16656635944E+02  0.77566299660E+01  0.20093474434E+02  0.10566000000E+00 0.  1.
        -13    1    4    4    0    0 -0.39873823290E+01 -0.10858948478E+02  0.46134873818E+01  0.12454373117E+02  0.10566000000E+00 0. -1.
        -14    1    4    4    0    0 -0.39226872499E+01 -0.82195080560E+01  0.32581610726E+01  0.96728176618E+01  0.00000000000E+00 0.  1.
<mgrwt>
<rscale>  0 0.80332804E+02</rscale>
<asrwt>0</asrwt>
<pdfrwt beam="1">  1        1 0.11378507E-01 0.80332804E+02</pdfrwt>
<pdfrwt beam="2">  1       -2 0.33559377E-02 0.80332804E+02</pdfrwt>
<totfact> 0.13834501E+05</totfact>
</mgrwt>
</event>
<event>
 8    1  0.1372337E-020  0.7899264E+02  0.7818608E-02  0.1331935E+00
          1   -1    0    0  501    0  0.00000000000E+00  0.00000000000E+00  0.21542792280E+03  0.21542792285E+03  0.50400000000E-02 0. -1.
         -2   -1    0    0    0  501 -0.00000000000E+00 -0.00000000000E+00 -0.72412123118E+01  0.72412127608E+01  0.25500000000E-02 0.  1.
        -24    2    1    2    0    0  0.00000000000E+00  0.17763568394E-14  0.20818671048E+03  0.22266913562E+03  0.78992642275E+02 0.  0.
         66    2    3    3    0    0  0.36037444791E+02  0.12122856548E+02  0.13403094233E+03  0.13933396782E+03  0.20000017423E+01 0.  0.
         13    1    3    3    0    0 -0.36037444791E+02 -0.12122856548E+02  0.74155768150E+02  0.83335167798E+02  0.10566000000E+00 0. -1.
         13    1    4    4    0    0  0.75471832579E+01  0.24552935098E+01  0.27395364640E+02  0.28522019724E+02  0.10566000000E+00 0. -1.
        -13    1    4    4    0    0  0.26416123625E+02  0.88640228204E+01  0.96981284443E+02  0.10090472330E+03  0.10566000000E+00 0.  1.
         14    1    4    4    0    0  0.20741379080E+01  0.80354021739E+00  0.96542932513E+01  0.99072247943E+01  0.00000000000E+00 0. -1.
<mgrwt>
<rscale>  0 0.78992642E+02</rscale>
<asrwt>0</asrwt>
<pdfrwt beam="1">  1        1 0.33142755E-01 0.78992642E+02</pdfrwt>
<pdfrwt beam="2">  1       -2 0.11140328E-02 0.78992642E+02</pdfrwt>
<totfact> 0.17494372E+05</totfact>
</mgrwt>
</event>
<event>
 8    1  0.1372337E-020  0.8576447E+02  0.7818608E-02  0.1313445E+00
          1   -1    0    0  501    0  0.00000000000E+00  0.00000000000E+00  0.58476846479E+02  0.58476846696E+02  0.50400000000E-02 0. -1.
         -2   -1    0    0    0  501 -0.00000000000E+00 -0.00000000000E+00 -0.31446393508E+02  0.31446393611E+02  0.25500000000E-02 0.  1.
        -24    2    1    2    0    0  0.17763568394E-14  0.00000000000E+00  0.27030452971E+02  0.89923240308E+02  0.85764466766E+02 0.  0.
         66    2    3    3    0    0 -0.13491605370E+02 -0.29893117968E+02 -0.15406267818E+02  0.36290150217E+02  0.19999993398E+01 0.  0.
         13    1    3    3    0    0  0.13491605370E+02  0.29893117968E+02  0.42436720789E+02  0.53633090091E+02  0.10566000000E+00 0. -1.
         13    1    4    4    0    0 -0.62869060266E+01 -0.16002594174E+02 -0.81029924400E+01  0.19007310651E+02  0.10566000000E+00 0. -1.
        -13    1    4    4    0    0 -0.44685390152E+01 -0.91218442386E+01 -0.49999818243E+01  0.11321963855E+02  0.10566000000E+00 0.  1.
        -14    1    4    4    0    0 -0.27361603279E+01 -0.47686795561E+01 -0.23032935535E+01  0.59608757110E+01  0.00000000000E+00 0.  1.
<mgrwt>
<rscale>  0 0.85764467E+02</rscale>
<asrwt>0</asrwt>
<pdfrwt beam="1">  1        1 0.89964379E-02 0.85764467E+02</pdfrwt>
<pdfrwt beam="2">  1       -2 0.48379067E-02 0.85764467E+02</pdfrwt>
<totfact> 0.11115848E+05</totfact>
</mgrwt>
</event>
<event>
 8    1  0.1372337E-020  0.7682167E+02  0.7818608E-02  0.1338321E+00
         -2   -1    0    0    0  501 -0.00000000000E+00  0.00000000000E+00  0.29203559958E+02  0.29203560069E+02  0.25500000000E-02 0.  1.
          1   -1    0    0  501    0  0.00000000000E+00 -0.00000000000E+00 -0.50520975348E+02  0.50520975599E+02  0.50400000000E-02 0. -1.
        -24    2    1    2    0    0  0.00000000000E+00 -0.35527136788E-14 -0.21317415390E+02  0.79724535668E+02  0.76821672649E+02 0.  0.
         66    2    3    3    0    0  0.89426042372E+01 -0.21618069915E+02  0.20915506380E+02  0.31444705898E+02  0.20000011179E+01 0.  0.
         13    1    3    3    0    0 -0.89426042372E+01  0.21618069915E+02 -0.42232921770E+02  0.48279829770E+02  0.10566000000E+00 0. -1.
         13    1    4    4    0    0  0.69105121676E+01 -0.17284755433E+02  0.15675430733E+02  0.24336150918E+02  0.10566000000E+00 0. -1.
        -13    1    4    4    0    0  0.66735362500E+00 -0.10712690756E+01  0.14424682095E+01  0.19195980996E+01  0.10566000000E+00 0.  1.
         14    1    4    4    0    0  0.13647384446E+01 -0.32620454062E+01  0.37976074372E+01  0.51889568799E+01  0.00000000000E+00 0. -1.
<mgrwt>
<rscale>  0 0.76821673E+02</rscale>
<asrwt>0</asrwt>
<pdfrwt beam="1">  1        1 0.77724578E-02 0.76821673E+02</pdfrwt>
<pdfrwt beam="2">  1       -2 0.44928554E-02 0.76821673E+02</pdfrwt>
<totfact> 0.14745115E+05</totfact>
</mgrwt>
</event>
<event>
 8    1  0.1372337E-020  0.8935962E+02  0.7818608E-02  0.1304410E+00
         -2   -1    0    0    0  501 -0.00000000000E+00  0.00000000000E+00  0.32085681165E+02  0.32085681266E+02  0.25500000000E-02 0.  1.
          1   -1    0    0  501    0  0.00000000000E+00 -0.00000000000E+00 -0.62217331125E+02  0.62217331329E+02  0.50400000000E-02 0. -1.
        -24    2    1    2    0    0  0.00000000000E+00  0.00000000000E+00 -0.30131649960E+02  0.94303012595E+02  0.89359620944E+02 0.  0.
         66    2    3    3    0    0 -0.26957371765E+02  0.32492382038E+01  0.22342519139E+02  0.35219960642E+02  0.20000061938E+01 0.  0.
         13    1    3    3    0    0  0.26957371765E+02 -0.32492382038E+01 -0.52474169099E+02  0.59083051953E+02  0.10566000000E+00 0. -1.
         13    1    4    4    0    0 -0.17535786429E+01  0.34912307501E+00  0.18503524434E+01  0.25752462366E+01  0.10566000000E+00 0. -1.
        -13    1    4    4    0    0 -0.10622053356E+02  0.18563903531E+01  0.91287488568E+01  0.14128673765E+02  0.10566000000E+00 0.  1.
        -14    1    4    4    0    0 -0.14581739766E+02  0.10437247757E+01  0.11363417839E+02  0.18516040641E+02  0.00000000000E+00 0.  1.
<mgrwt>
<rscale>  0 0.89359621E+02</rscale>
<asrwt>0</asrwt>
<pdfrwt beam="1">  1        1 0.95718971E-02 0.89359621E+02</pdfrwt>
<pdfrwt beam="2">  1       -2 0.49362587E-02 0.89359621E+02</pdfrwt>
<totfact> 0.10014046E+05</totfact>
</mgrwt>
</event>
<event>
 8    1  0.1372337E-020  0.8086296E+02  0.7818608E-02  0.1326620E+00
         -2   -1    0    0    0  501 -0.00000000000E+00  0.00000000000E+00  0.18602897615E+02  0.18602897789E+02  0.25500000000E-02 0.  1.
          1   -1    0    0  501    0  0.00000000000E+00 -0.00000000000E+00 -0.87873657327E+02  0.87873657471E+02  0.50400000000E-02 0. -1.
        -24    2    1    2    0    0  0.00000000000E+00 -0.35527136788E-14 -0.69270759712E+02  0.10647655526E+03  0.80862962282E+02 0.  0.
         66    2    3    3    0    0  0.25379871925E+02 -0.29852158956E+02 -0.21660589106E+02  0.44815961666E+02  0.20000015868E+01 0.  0.
         13    1    3    3    0    0 -0.25379871925E+02  0.29852158956E+02 -0.47610170606E+02  0.61660593595E+02  0.10566000000E+00 0. -1.
         13    1    4    4    0    0  0.70994605049E+01 -0.80239822491E+01 -0.50818055677E+01  0.11858437606E+02  0.10566000000E+00 0. -1.
        -13    1    4    4    0    0  0.17044839685E+02 -0.20365231484E+02 -0.15217260941E+02  0.30607930474E+02  0.10566000000E+00 0.  1.
        -14    1    4    4    0    0  0.12355717349E+01 -0.14629452230E+01 -0.13615225969E+01  0.23495935860E+01  0.00000000000E+00 0.  1.
<mgrwt>
<rscale>  0 0.80862962E+02</rscale>
<asrwt>0</asrwt>
<pdfrwt beam="1">  1        1 0.13519024E-01 0.80862962E+02</pdfrwt>
<pdfrwt beam="2">  1       -2 0.28619843E-02 0.80862962E+02</pdfrwt>
<totfact> 0.13973892E+05</totfact>
</mgrwt>
</event>
<event>
 8    1  0.1372337E-020  0.7894549E+02  0.7818608E-02  0.1332071E+00
          1   -1    0    0  501    0  0.00000000000E+00  0.00000000000E+00  0.24106455998E+02  0.24106456525E+02  0.50400000000E-02 0. -1.
         -2   -1    0    0    0  501 -0.00000000000E+00 -0.00000000000E+00 -0.64634040322E+02  0.64634040372E+02  0.25500000000E-02 0.  1.
        -24    2    1    2    0    0 -0.17763568394E-14 -0.17347234760E-17 -0.40527584324E+02  0.88740496897E+02  0.78945491944E+02 0.  0.
         66    2    3    3    0    0 -0.15886198877E+02  0.99529630551E-02 -0.60863756874E+02  0.62934635317E+02  0.20000019478E+01 0.  0.
         13    1    3    3    0    0  0.15886198877E+02 -0.99529630551E-02  0.20336172551E+02  0.25805861580E+02  0.10566000000E+00 0. -1.
         13    1    4    4    0    0 -0.35052944139E+01 -0.73213601605E+00 -0.13291606825E+02  0.13765939419E+02  0.10566000000E+00 0. -1.
        -13    1    4    4    0    0 -0.25246667761E+01 -0.10380911894E+00 -0.90665329991E+01  0.94126459258E+01  0.10566000000E+00 0. -1.
        -14    1    4    4    0    0 -0.98562376872E+01  0.84589809804E+00 -0.38505617050E+02  0.39756049972E+02  0.00000000000E+00 0.  1.
<mgrwt>
<rscale>  0 0.78945492E+02</rscale>
<asrwt>0</asrwt>
<pdfrwt beam="1">  1        1 0.37086856E-02 0.78945492E+02</pdfrwt>
<pdfrwt beam="2">  1       -2 0.99436984E-02 0.78945492E+02</pdfrwt>
<totfact> 0.12072221E+05</totfact>
</mgrwt>
</event>
<event>
 8    1  0.1372337E-020  0.8108268E+02  0.7818608E-02  0.1326007E+00
          1   -1    0    0  501    0  0.00000000000E+00  0.00000000000E+00  0.25155225190E+02  0.25155225695E+02  0.50400000000E-02 0. -1.
         -2   -1    0    0    0  501 -0.00000000000E+00 -0.00000000000E+00 -0.65338324531E+02  0.65338324581E+02  0.25500000000E-02 0.  1.
        -24    2    1    2    0    0 -0.71054273576E-14  0.00000000000E+00 -0.40183099341E+02  0.90493550276E+02  0.81082681066E+02 0.  0.
         66    2    3    3    0    0 -0.37897806757E+02  0.45088207088E+01 -0.49227070867E+01  0.38533184158E+02  0.20000037908E+01 0.  0.
         13    1    3    3    0    0  0.37897806757E+02 -0.45088207088E+01 -0.35260392254E+02  0.51960366118E+02  0.10566000000E+00 0. -1.
         13    1    4    4    0    0 -0.15479677718E+02  0.21561898471E+01 -0.13138437399E+01  0.15684607942E+02  0.10566000000E+00 0. -1.
        -13    1    4    4    0    0 -0.98502537956E+01  0.12256233817E+01 -0.11530771317E+01  0.99935180701E+01  0.10566000000E+00 0.  1.
         14    1    4    4    0    0 -0.12567875243E+02  0.11270074799E+01 -0.24557862152E+01  0.12855058146E+02  0.00000000000E+00 0. -1.
<mgrwt>
<rscale>  0 0.81082681E+02</rscale>
<asrwt>0</asrwt>
<pdfrwt beam="1">  1        1 0.38700347E-02 0.81082681E+02</pdfrwt>
<pdfrwt beam="2">  1       -2 0.10052050E-01 0.81082681E+02</pdfrwt>
<totfact> 0.11258168E+05</totfact>
</mgrwt>
</event>
<event>
 8    1  0.1372337E-020  0.8260795E+02  0.7818608E-02  0.1321809E+00
         -2   -1    0    0    0  501 -0.00000000000E+00  0.00000000000E+00  0.25776405928E+03  0.25776405929E+03  0.25500000000E-02 0.  1.
          1   -1    0    0  501    0  0.00000000000E+00 -0.00000000000E+00 -0.66185250887E+01  0.66185270077E+01  0.50400000000E-02 0. -1.
        -24    2    1    2    0    0 -0.88817841970E-15  0.71054273576E-14  0.25114553419E+03  0.26438258630E+03  0.82607945106E+02 0.  0.
         66    2    3    3    0    0 -0.66713651812E+01  0.33518960751E+02  0.19974092302E+03  0.20265355701E+03  0.19999993351E+01 0.  0.
         13    1    3    3    0    0  0.66713651812E+01 -0.33518960751E+02  0.51404611171E+02  0.61729029288E+02  0.10566000000E+00 0. -1.
         13    1    4    4    0    0 -0.92179662742E+00  0.81590069435E+01  0.45655741555E+02  0.46388328319E+02  0.10566000000E+00 0. -1.
        -13    1    4    4    0    0 -0.36769029324E+01  0.16469151350E+02  0.98250925848E+02  0.99689558909E+02  0.10566000000E+00 0.  1.
        -14    1    4    4    0    0 -0.20726656214E+01  0.88908024578E+01  0.55834255618E+02  0.56575669784E+02  0.00000000000E+00 0.  1.
<mgrwt>
<rscale>  0 0.82607945E+02</rscale>
<asrwt>0</asrwt>
<pdfrwt beam="1">  1        1 0.10182348E-02 0.82607945E+02</pdfrwt>
<pdfrwt beam="2">  1       -2 0.39656010E-01 0.82607945E+02</pdfrwt>
<totfact> 0.69938128E+04</totfact>
</mgrwt>
</event>
<event>
 8    1  0.1372337E-020  0.7515394E+02  0.7818608E-02  0.1343395E+00
         -2   -1    0    0    0  501 -0.00000000000E+00  0.00000000000E+00  0.11041145854E+02  0.11041146148E+02  0.25500000000E-02 0.  1.
          1   -1    0    0  501    0  0.00000000000E+00 -0.00000000000E+00 -0.12788787444E+03  0.12788787454E+03  0.50400000000E-02 0. -1.
        -24    2    1    2    0    0  0.00000000000E+00 -0.17763568394E-14 -0.11684672859E+03  0.13892902069E+03  0.75153940736E+02 0.  0.
         66    2    3    3    0    0  0.32766387500E+02 -0.90399867770E+01 -0.28964287040E+02  0.44702208119E+02  0.19999940711E+01 0.  0.
         13    1    3    3    0    0 -0.32766387500E+02  0.90399867770E+01 -0.87882441550E+02  0.94226812572E+02  0.10566000000E+00 0. -1.
         13    1    4    4    0    0  0.65424105198E+01 -0.13136666747E+01 -0.62502744441E+01  0.91436289407E+01  0.10566000000E+00 0. -1.
        -13    1    4    4    0    0  0.21430104577E+02 -0.67126761161E+01 -0.18500872454E+02  0.29096440477E+02  0.10566000000E+00 0.  1.
        -14    1    4    4    0    0  0.47938724030E+01 -0.10136439863E+01 -0.42131401424E+01  0.64621387022E+01  0.00000000000E+00 0.  1.
<mgrwt>
<rscale>  0 0.75153941E+02</rscale>
<asrwt>0</asrwt>
<pdfrwt beam="1">  1        1 0.19675057E-01 0.75153941E+02</pdfrwt>
<pdfrwt beam="2">  1       -2 0.16986379E-02 0.75153941E+02</pdfrwt>
<totfact> 0.18125768E+05</totfact>
</mgrwt>
</event>
<event>
 8    1  0.1372337E-020  0.8039028E+02  0.7818608E-02  0.1327948E+00
         -2   -1    0    0    0  501 -0.00000000000E+00  0.00000000000E+00  0.44007117617E+02  0.44007117691E+02  0.25500000000E-02 0.  1.
          1   -1    0    0  501    0  0.00000000000E+00 -0.00000000000E+00 -0.36713358822E+02  0.36713359168E+02  0.50400000000E-02 0. -1.
        -24    2    1    2    0    0  0.35527136788E-14  0.00000000000E+00  0.72937587948E+01  0.80720476859E+02  0.80390275947E+02 0.  0.
         66    2    3    3    0    0  0.16788504765E+02 -0.24641381340E+02  0.30677953805E+02  0.42827425954E+02  0.19999994049E+01 0.  0.
         13    1    3    3    0    0 -0.16788504765E+02  0.24641381340E+02 -0.23384195010E+02  0.37893050905E+02  0.10566000000E+00 0. -1.
         13    1    4    4    0    0  0.25624535990E+01 -0.29601959822E+01  0.47199269861E+01  0.61333354294E+01  0.10566000000E+00 0. -1.
        -13    1    4    4    0    0  0.81032432594E+01 -0.12273624678E+02  0.14445008242E+02  0.20614893674E+02  0.10566000000E+00 0.  1.
         14    1    4    4    0    0  0.61228079063E+01 -0.94075606791E+01  0.11513018577E+02  0.16079196850E+02  0.00000000000E+00 0. -1.
<mgrwt>
<rscale>  0 0.80390276E+02</rscale>
<asrwt>0</asrwt>
<pdfrwt beam="1">  1        1 0.56482091E-02 0.80390276E+02</pdfrwt>
<pdfrwt beam="2">  1       -2 0.67703258E-02 0.80390276E+02</pdfrwt>
<totfact> 0.12348528E+05</totfact>
</mgrwt>
</event>
<event>
 8    1  0.1372337E-020  0.8177391E+02  0.7818608E-02  0.1324091E+00
         -2   -1    0    0    0  501 -0.00000000000E+00  0.00000000000E+00  0.71456783338E+01  0.71456787888E+01  0.25500000000E-02 0.  1.
          1   -1    0    0  501    0  0.00000000000E+00 -0.00000000000E+00 -0.23395162771E+03  0.23395162776E+03  0.50400000000E-02 0. -1.
        -24    2    1    2    0    0 -0.35527136788E-14 -0.35527136788E-14 -0.22680594938E+03  0.24109730655E+03  0.81773911211E+02 0.  0.
         66    2    3    3    0    0  0.28034379192E+02  0.29628859099E+02 -0.10628341531E+03  0.11385938732E+03  0.20000008625E+01 0.  0.
         13    1    3    3    0    0 -0.28034379192E+02 -0.29628859099E+02 -0.12052253406E+03  0.12723791923E+03  0.10566000000E+00 0. -1.
         13    1    4    4    0    0  0.10071878274E+02  0.11327210928E+02 -0.38033757862E+02  0.40942964481E+02  0.10566000000E+00 0. -1.
        -13    1    4    4    0    0  0.12929709620E+02  0.12971438636E+02 -0.47387149859E+02  0.50803432432E+02  0.10566000000E+00 0.  1.
         14    1    4    4    0    0  0.50327912988E+01  0.53302095349E+01 -0.20862507591E+02  0.22112990411E+02  0.00000000000E+00 0. -1.
<mgrwt>
<rscale>  0 0.81773911E+02</rscale>
<asrwt>0</asrwt>
<pdfrwt beam="1">  1        1 0.35992552E-01 0.81773911E+02</pdfrwt>
<pdfrwt beam="2">  1       -2 0.10993353E-02 0.81773911E+02</pdfrwt>
<totfact> 0.16220593E+05</totfact>
</mgrwt>
</event>
<event>
 8    1  0.1372337E-020  0.8025268E+02  0.7818608E-02  0.1328336E+00
          1   -1    0    0  501    0  0.00000000000E+00  0.00000000000E+00  0.69369862643E+01  0.69369880952E+01  0.50400000000E-02 0. -1.
         -2   -1    0    0    0  501 -0.00000000000E+00 -0.00000000000E+00 -0.23210700042E+03  0.23210700044E+03  0.25500000000E-02 0.  1.
        -24    2    1    2    0    0  0.00000000000E+00  0.00000000000E+00 -0.22517001416E+03  0.23904398853E+03  0.80252683302E+02 0.  0.
         66    2    3    3    0    0 -0.33750039837E+02  0.21637155776E+02 -0.11545945899E+03  0.12223795796E+03  0.19999990846E+01 0.  0.
         13    1    3    3    0    0  0.33750039837E+02 -0.21637155776E+02 -0.10971055516E+03  0.11680603057E+03  0.10566000000E+00 0. -1.
         13    1    4    4    0    0 -0.18012878768E+02  0.10816915276E+02 -0.62511356651E+02  0.65948088160E+02  0.10566000000E+00 0. -1.
        -13    1    4    4    0    0 -0.33435511600E+01  0.24981863449E+01 -0.11185295055E+02  0.11939106284E+02  0.10566000000E+00 0.  1.
         14    1    4    4    0    0 -0.12393609909E+02  0.83220541553E+01 -0.41762807290E+02  0.44350763518E+02  0.00000000000E+00 0. -1.
<mgrwt>
<rscale>  0 0.80252683E+02</rscale>
<asrwt>0</asrwt>
<pdfrwt beam="1">  1        1 0.10672290E-02 0.80252683E+02</pdfrwt>
<pdfrwt beam="2">  1       -2 0.35708764E-01 0.80252683E+02</pdfrwt>
<totfact> 0.79172611E+04</totfact>
</mgrwt>
</event>
<event>
 8    1  0.1372337E-020  0.8118248E+02  0.7818608E-02  0.1325729E+00
         -2   -1    0    0    0  501 -0.00000000000E+00  0.00000000000E+00  0.20763178314E+02  0.20763178470E+02  0.25500000000E-02 0.  1.
          1   -1    0    0  501    0  0.00000000000E+00 -0.00000000000E+00 -0.79354360722E+02  0.79354360882E+02  0.50400000000E-02 0. -1.
        -24    2    1    2    0    0  0.00000000000E+00  0.00000000000E+00 -0.58591182408E+02  0.10011753935E+03  0.81182479821E+02 0.  0.
         66    2    3    3    0    0  0.34787348358E+02 -0.72171073949E+01 -0.51658031034E+01  0.35957360403E+02  0.20000001362E+01 0.  0.
         13    1    3    3    0    0 -0.34787348358E+02  0.72171073949E+01 -0.53425379305E+02  0.64160178949E+02  0.10566000000E+00 0. -1.
         13    1    4    4    0    0  0.16621457464E+02 -0.30572733792E+01 -0.28115025617E+01  0.17132877150E+02  0.10566000000E+00 0. -1.
        -13    1    4    4    0    0  0.14033391864E+02 -0.37273296418E+01 -0.19218112690E+01  0.14646965421E+02  0.10566000000E+00 0.  1.
        -14    1    4    4    0    0  0.41324990296E+01 -0.43250437396E+00 -0.43248927273E+00  0.41775178317E+01  0.00000000000E+00 0.  1.
<mgrwt>
<rscale>  0 0.81182480E+02</rscale>
<asrwt>0</asrwt>
<pdfrwt beam="1">  1        1 0.12208363E-01 0.81182480E+02</pdfrwt>
<pdfrwt beam="2">  1       -2 0.31943352E-02 0.81182480E+02</pdfrwt>
<totfact> 0.13595775E+05</totfact>
</mgrwt>
</event>
<event>
 8    1  0.1372337E-020  0.7949996E+02  0.7818608E-02  0.1330476E+00
          1   -1    0    0  501    0  0.00000000000E+00  0.00000000000E+00  0.13707658803E+02  0.13707659729E+02  0.50400000000E-02 0. -1.
         -2   -1    0    0    0  501 -0.00000000000E+00 -0.00000000000E+00 -0.11526846916E+03  0.11526846919E+03  0.25500000000E-02 0.  1.
        -24    2    1    2    0    0 -0.35527136788E-14  0.71054273576E-14 -0.10156081036E+03  0.12897612892E+03  0.79499959938E+02 0.  0.
         66    2    3    3    0    0  0.16792147409E+02 -0.33846516787E+02 -0.70714633284E+02  0.80200512906E+02  0.19999991679E+01 0.  0.
         13    1    3    3    0    0 -0.16792147409E+02  0.33846516787E+02 -0.30846177073E+02  0.48775616011E+02  0.10566000000E+00 0. -1.
         13    1    4    4    0    0  0.56786342473E+01 -0.10409832857E+02 -0.22968898051E+02  0.25849428403E+02  0.10566000000E+00 0. -1.
        -13    1    4    4    0    0  0.10648604421E+02 -0.22902807957E+02 -0.46582859628E+02  0.52989672235E+02  0.10566000000E+00 0.  1.
        -14    1    4    4    0    0  0.46490874026E+00 -0.53387597329E+00 -0.11628756051E+01  0.13614122684E+01  0.00000000000E+00 0.  1.
<mgrwt>
<rscale>  0 0.79499960E+02</rscale>
<asrwt>0</asrwt>
<pdfrwt beam="1">  1        1 0.21088707E-02 0.79499960E+02</pdfrwt>
<pdfrwt beam="2">  1       -2 0.17733610E-01 0.79499960E+02</pdfrwt>
<totfact> 0.10393434E+05</totfact>
</mgrwt>
</event>
<event>
 8    1  0.1372337E-020  0.8212642E+02  0.7818608E-02  0.1323123E+00
          1   -1    0    0  501    0  0.00000000000E+00  0.00000000000E+00  0.22448332128E+01  0.22448388706E+01  0.50400000000E-02 0. -1.
         -2   -1    0    0    0  501 -0.00000000000E+00 -0.00000000000E+00 -0.75114048043E+03  0.75114048044E+03  0.25500000000E-02 0.  1.
        -24    2    1    2    0    0  0.17763568394E-14 -0.17763568394E-14 -0.74889564722E+03  0.75338531931E+03  0.82126420374E+02 0.  0.
         66    2    3    3    0    0 -0.14294676055E+02  0.13196000034E+02 -0.70614950369E+03  0.70642026708E+03  0.19999984003E+01 0.  0.
         13    1    3    3    0    0  0.14294676055E+02 -0.13196000034E+02 -0.42746143531E+02  0.46965052233E+02  0.10566000000E+00 0. -1.
         13    1    4    4    0    0 -0.53816982396E+01  0.43720366425E+01 -0.28218496051E+03  0.28227015514E+03  0.10566000000E+00 0. -1.
        -13    1    4    4    0    0 -0.15918388715E+01  0.15897465845E+01 -0.74429146582E+02  0.74463214208E+02  0.10566000000E+00 0.  1.
         14    1    4    4    0    0 -0.73211389438E+01  0.72342168073E+01 -0.34953539660E+03  0.34968689773E+03  0.00000000000E+00 0. -1.
<mgrwt>
<rscale>  0 0.82126420E+02</rscale>
<asrwt>0</asrwt>
<pdfrwt beam="1">  1        1 0.34535999E-03 0.82126420E+02</pdfrwt>
<pdfrwt beam="2">  1       -2 0.11555987E+00 0.82126420E+02</pdfrwt>
<totfact> 0.33059809E+04</totfact>
</mgrwt>
</event>
<event>
 8    1  0.1372337E-020  0.8151380E+02  0.7818608E-02  0.1324810E+00
         -2   -1    0    0    0  501 -0.00000000000E+00  0.00000000000E+00  0.16935540165E+02  0.16935540357E+02  0.25500000000E-02 0.  1.
          1   -1    0    0  501    0  0.00000000000E+00 -0.00000000000E+00 -0.98085153258E+02  0.98085153388E+02  0.50400000000E-02 0. -1.
        -24    2    1    2    0    0 -0.35527136788E-14  0.00000000000E+00 -0.81149613093E+02  0.11502069374E+03  0.81513804256E+02 0.  0.
         66    2    3    3    0    0  0.21286362365E+02 -0.28770865360E+02 -0.13156059802E+02  0.38183161448E+02  0.19999980754E+01 0.  0.
         13    1    3    3    0    0 -0.21286362365E+02  0.28770865360E+02 -0.67993553291E+02  0.76837532297E+02  0.10566000000E+00 0. -1.
         13    1    4    4    0    0  0.86710281629E+01 -0.13057302399E+02 -0.51787147602E+01  0.16507880722E+02  0.10566000000E+00 0. -1.
        -13    1    4    4    0    0  0.10728048915E+02 -0.13541719644E+02 -0.68241277515E+01  0.18575496980E+02  0.10566000000E+00 0.  1.
         14    1    4    4    0    0  0.18872852874E+01 -0.21718433172E+01 -0.11532172906E+01  0.30997837457E+01  0.00000000000E+00 0. -1.
<mgrwt>
<rscale>  0 0.81513804E+02</rscale>
<asrwt>0</asrwt>
<pdfrwt beam="1">  1        1 0.15090023E-01 0.81513804E+02</pdfrwt>
<pdfrwt beam="2">  1       -2 0.26054678E-02 0.81513804E+02</pdfrwt>
<totfact> 0.13926385E+05</totfact>
</mgrwt>
</event>
<event>
 8    1  0.1372337E-020  0.8053278E+02  0.7818608E-02  0.1327546E+00
         -2   -1    0    0    0  501 -0.00000000000E+00  0.00000000000E+00  0.56943697831E+02  0.56943697888E+02  0.25500000000E-02 0.  1.
          1   -1    0    0  501    0  0.00000000000E+00 -0.00000000000E+00 -0.28473425134E+02  0.28473425580E+02  0.50400000000E-02 0. -1.
        -24    2    1    2    0    0 -0.17763568394E-14 -0.35527136788E-14  0.28470272697E+02  0.85417123469E+02  0.80532779377E+02 0.  0.
         66    2    3    3    0    0  0.11618363618E+02  0.23006063670E+02  0.47023168448E+02  0.53660447895E+02  0.19999896769E+01 0.  0.
         13    1    3    3    0    0 -0.11618363618E+02 -0.23006063670E+02 -0.18552895750E+02  0.31756675574E+02  0.10566000000E+00 0. -1.
         13    1    4    4    0    0  0.44599219718E+01  0.10419338956E+02  0.19468468426E+02  0.22527448928E+02  0.10566000000E+00 0. -1.
        -13    1    4    4    0    0  0.28946399791E+01  0.45670616460E+01  0.10144993552E+02  0.11496479935E+02  0.10566000000E+00 0.  1.
         14    1    4    4    0    0  0.42638016671E+01  0.80196630671E+01  0.17409706469E+02  0.19636519032E+02  0.00000000000E+00 0. -1.
<mgrwt>
<rscale>  0 0.80532779E+02</rscale>
<asrwt>0</asrwt>
<pdfrwt beam="1">  1        1 0.43805270E-02 0.80532779E+02</pdfrwt>
<pdfrwt beam="2">  1       -2 0.87605689E-02 0.80532779E+02</pdfrwt>
<totfact> 0.11754814E+05</totfact>
</mgrwt>
</event>
<event>
 8    1  0.1372337E-020  0.7912737E+02  0.7818608E-02  0.1331546E+00
          1   -1    0    0  501    0  0.00000000000E+00  0.00000000000E+00  0.10474935827E+03  0.10474935840E+03  0.50400000000E-02 0. -1.
         -2   -1    0    0    0  501 -0.00000000000E+00 -0.00000000000E+00 -0.14943147432E+02  0.14943147649E+02  0.25500000000E-02 0.  1.
        -24    2    1    2    0    0  0.35527136788E-14  0.00000000000E+00  0.89806210842E+02  0.11969250604E+03  0.79127368826E+02 0.  0.
         66    2    3    3    0    0 -0.17430476589E+02  0.18262877953E+02 -0.10969511875E+01  0.25348718457E+02  0.20000000659E+01 0.  0.
         13    1    3    3    0    0  0.17430476589E+02 -0.18262877953E+02  0.90903162030E+02  0.94343787587E+02  0.10566000000E+00 0. -1.
         13    1    4    4    0    0 -0.87973916318E+01  0.93353600426E+01  0.16476797185E+00  0.12828926657E+02  0.10566000000E+00 0.  1.
        -13    1    4    4    0    0 -0.29927567374E+01  0.24752770566E+01 -0.32517461830E+00  0.38987808305E+01  0.10566000000E+00 0. -1.
        -14    1    4    4    0    0 -0.56403282202E+01  0.64522408538E+01 -0.93654454101E+00  0.86210109700E+01  0.00000000000E+00 0.  1.
<mgrwt>
<rscale>  0 0.79127369E+02</rscale>
<asrwt>0</asrwt>
<pdfrwt beam="1">  1        1 0.16115286E-01 0.79127369E+02</pdfrwt>
<pdfrwt beam="2">  1       -2 0.22989458E-02 0.79127369E+02</pdfrwt>
<totfact> 0.15259604E+05</totfact>
</mgrwt>
</event>
<event>
 8    1  0.1372337E-020  0.7940186E+02  0.7818608E-02  0.1330757E+00
         -2   -1    0    0    0  501 -0.00000000000E+00  0.00000000000E+00  0.93922190972E+01  0.93922194433E+01  0.25500000000E-02 0.  1.
          1   -1    0    0  501    0  0.00000000000E+00 -0.00000000000E+00 -0.16781591244E+03  0.16781591252E+03  0.50400000000E-02 0. -1.
        -24    2    1    2    0    0  0.71054273576E-14  0.00000000000E+00 -0.15842369334E+03  0.17720813196E+03  0.79401860306E+02 0.  0.
         66    2    3    3    0    0 -0.39207320764E+02 -0.14701917534E+01 -0.92424487990E+02  0.10042739390E+03  0.20000001462E+01 0.  0.
         13    1    3    3    0    0  0.39207320764E+02  0.14701917534E+01 -0.65999205352E+02  0.76780738056E+02  0.10566000000E+00 0. -1.
         13    1    4    4    0    0 -0.68084865405E+00  0.89603865713E-01 -0.20239985122E+01  0.21399340540E+01  0.10566000000E+00 0. -1.
        -13    1    4    4    0    0 -0.38382099214E+02 -0.15008233438E+01 -0.90152598256E+02  0.97994592438E+02  0.10566000000E+00 0.  1.
        -14    1    4    4    0    0 -0.14437289507E+00 -0.58972275349E-01 -0.24789122213E+00  0.29286741044E+00  0.00000000000E+00 0.  1.
<mgrwt>
<rscale>  0 0.79401860E+02</rscale>
<asrwt>0</asrwt>
<pdfrwt beam="1">  1        1 0.25817831E-01 0.79401860E+02</pdfrwt>
<pdfrwt beam="2">  1       -2 0.14449569E-02 0.79401860E+02</pdfrwt>
<totfact> 0.16448030E+05</totfact>
</mgrwt>
</event>
<event>
 8    1  0.1372337E-020  0.8867742E+02  0.7818608E-02  0.1306086E+00
         -2   -1    0    0    0  501 -0.00000000000E+00  0.00000000000E+00  0.15391270256E+02  0.15391270467E+02  0.25500000000E-02 0.  1.
          1   -1    0    0  501    0  0.00000000000E+00 -0.00000000000E+00 -0.12772961800E+03  0.12772961810E+03  0.50400000000E-02 0. -1.
        -24    2    1    2    0    0  0.00000000000E+00  0.00000000000E+00 -0.11233834774E+03  0.14312088856E+03  0.88677417475E+02 0.  0.
         66    2    3    3    0    0 -0.37113595413E+02  0.17880564230E+02 -0.29836255622E+02  0.50905163713E+02  0.20000003451E+01 0.  0.
         13    1    3    3    0    0  0.37113595413E+02 -0.17880564230E+02 -0.82502092119E+02  0.92215724851E+02  0.10566000000E+00 0. -1.
         13    1    4    4    0    0 -0.18156693340E+02  0.88961049202E+01 -0.13683759414E+02  0.24414393941E+02  0.10566000000E+00 0. -1.
        -13    1    4    4    0    0 -0.25166163813E+01  0.11418779412E+01 -0.17885337377E+01  0.32935179079E+01  0.10566000000E+00 0.  1.
        -14    1    4    4    0    0 -0.16440285692E+02  0.78425813682E+01 -0.14363962470E+02  0.23197251863E+02  0.00000000000E+00 0.  1.
<mgrwt>
<rscale>  0 0.88677417E+02</rscale>
<asrwt>0</asrwt>
<pdfrwt beam="1">  1        1 0.19650710E-01 0.88677417E+02</pdfrwt>
<pdfrwt beam="2">  1       -2 0.23678878E-02 0.88677417E+02</pdfrwt>
<totfact> 0.11611803E+05</totfact>
</mgrwt>
</event>
<event>
 8    1  0.1372337E-020  0.8193549E+02  0.7818608E-02  0.1323647E+00
          1   -1    0    0  501    0  0.00000000000E+00  0.00000000000E+00  0.11430411728E+02  0.11430412839E+02  0.50400000000E-02 0. -1.
         -2   -1    0    0    0  501 -0.00000000000E+00 -0.00000000000E+00 -0.14683251448E+03  0.14683251450E+03  0.25500000000E-02 0.  1.
        -24    2    1    2    0    0  0.35527136788E-14  0.00000000000E+00 -0.13540210275E+03  0.15826292734E+03  0.81935491340E+02 0.  0.
         66    2    3    3    0    0  0.28480595392E+02  0.13527810947E+02 -0.11819168074E+03  0.12234140492E+03  0.19999949802E+01 0.  0.
         13    1    3    3    0    0 -0.28480595392E+02 -0.13527810947E+02 -0.17210422013E+02  0.35921522418E+02  0.10566000000E+00 0. -1.
         13    1    4    4    0    0  0.13024491864E+02  0.62659718966E+01 -0.56173786314E+02  0.58003493214E+02  0.10566000000E+00 0.  1.
        -13    1    4    4    0    0  0.11479756247E+02  0.55880294426E+01 -0.44390831911E+02  0.46190561788E+02  0.10566000000E+00 0. -1.
         14    1    4    4    0    0  0.39763472815E+01  0.16738096075E+01 -0.17627062513E+02  0.18147349921E+02  0.00000000000E+00 0. -1.
<mgrwt>
<rscale>  0 0.81935491E+02</rscale>
<asrwt>0</asrwt>
<pdfrwt beam="1">  1        1 0.17585251E-02 0.81935491E+02</pdfrwt>
<pdfrwt beam="2">  1       -2 0.22589616E-01 0.81935491E+02</pdfrwt>
<totfact> 0.89489459E+04</totfact>
</mgrwt>
</event>
<event>
 8    1  0.1372337E-020  0.8084663E+02  0.7818608E-02  0.1326666E+00
         -2   -1    0    0    0  501 -0.00000000000E+00  0.00000000000E+00  0.10944294344E+02  0.10944294641E+02  0.25500000000E-02 0.  1.
          1   -1    0    0  501    0  0.00000000000E+00 -0.00000000000E+00 -0.14930560339E+03  0.14930560347E+03  0.50400000000E-02 0. -1.
        -24    2    1    2    0    0 -0.88817841970E-15  0.00000000000E+00 -0.13836130904E+03  0.16024989811E+03  0.80846632613E+02 0.  0.
         66    2    3    3    0    0  0.70719514014E+01  0.33143483626E+02 -0.25636526756E+02  0.42540974453E+02  0.19999999477E+01 0.  0.
         13    1    3    3    0    0 -0.70719514014E+01 -0.33143483626E+02 -0.11272478229E+03  0.11770892366E+03  0.10566000000E+00 0. -1.
         13    1    4    4    0    0  0.92514258880E+00  0.54047457408E+01 -0.35188270315E+01  0.65161701210E+01  0.10566000000E+00 0. -1.
        -13    1    4    4    0    0  0.55036626106E+01  0.23254860661E+02 -0.18265835525E+02  0.30078742626E+02  0.10566000000E+00 0.  1.
         14    1    4    4    0    0  0.64314620205E+00  0.44838772239E+01 -0.38518641995E+01  0.59460617057E+01  0.00000000000E+00 0. -1.
<mgrwt>
<rscale>  0 0.80846633E+02</rscale>
<asrwt>0</asrwt>
<pdfrwt beam="1">  1        1 0.22970092E-01 0.80846633E+02</pdfrwt>
<pdfrwt beam="2">  1       -2 0.16837377E-02 0.80846633E+02</pdfrwt>
<totfact> 0.15337061E+05</totfact>
</mgrwt>
</event>
<event>
 8    1  0.1372337E-020  0.8014258E+02  0.7818608E-02  0.1328647E+00
         -2   -1    0    0    0  501 -0.00000000000E+00  0.00000000000E+00  0.19739488398E+03  0.19739488399E+03  0.25500000000E-02 0.  1.
          1   -1    0    0  501    0  0.00000000000E+00 -0.00000000000E+00 -0.81344978040E+01  0.81344993654E+01  0.50400000000E-02 0. -1.
        -24    2    1    2    0    0  0.14210854715E-13  0.35527136788E-14  0.18926038617E+03  0.20552938336E+03  0.80142583247E+02 0.  0.
         66    2    3    3    0    0  0.34869217904E+02  0.18364530073E+02  0.11292884351E+03  0.11962458785E+03  0.19999999718E+01 0.  0.
         13    1    3    3    0    0 -0.34869217904E+02 -0.18364530073E+02  0.76331542666E+02  0.85904795511E+02  0.10566000000E+00 0. -1.
         13    1    4    4    0    0  0.17330758584E+02  0.83084516381E+01  0.55582429758E+02  0.58811590895E+02  0.10566000000E+00 0. -1.
        -13    1    4    4    0    0  0.11407699862E+02  0.69458436110E+01  0.37047516189E+02  0.39381594424E+02  0.10566000000E+00 0.  1.
        -14    1    4    4    0    0  0.61307594579E+01  0.31102348239E+01  0.20298897561E+02  0.21431402529E+02  0.00000000000E+00 0.  1.
<mgrwt>
<rscale>  0 0.80142583E+02</rscale>
<asrwt>0</asrwt>
<pdfrwt beam="1">  1        1 0.12514613E-02 0.80142583E+02</pdfrwt>
<pdfrwt beam="2">  1       -2 0.30368445E-01 0.80142583E+02</pdfrwt>
<totfact> 0.85135694E+04</totfact>
</mgrwt>
</event>
<event>
 8    1  0.1372337E-020  0.8441020E+02  0.7818608E-02  0.1316982E+00
          1   -1    0    0  501    0  0.00000000000E+00  0.00000000000E+00  0.32745340295E+03  0.32745340299E+03  0.50400000000E-02 0. -1.
         -2   -1    0    0    0  501 -0.00000000000E+00 -0.00000000000E+00 -0.54397671542E+01  0.54397677519E+01  0.25500000000E-02 0.  1.
        -24    2    1    2    0    0  0.00000000000E+00  0.00000000000E+00  0.32201363580E+03  0.33289317074E+03  0.84410197769E+02 0.  0.
         66    2    3    3    0    0  0.11256102869E+02  0.36918429794E+02  0.22820977820E+03  0.23145922586E+03  0.20000148368E+01 0.  0.
         13    1    3    3    0    0 -0.11256102869E+02 -0.36918429794E+02  0.93803857599E+02  0.10143394488E+03  0.10566000000E+00 0. -1.
         13    1    4    4    0    0  0.46381165726E+01  0.13395056079E+02  0.79819165394E+02  0.81068181063E+02  0.10566000000E+00 0. -1.
        -13    1    4    4    0    0  0.34343264920E+01  0.11015146327E+02  0.71031550791E+02  0.71962632101E+02  0.10566000000E+00 0.  1.
         14    1    4    4    0    0  0.31836598046E+01  0.12508227388E+02  0.77359062015E+02  0.78428412696E+02  0.00000000000E+00 0. -1.
<mgrwt>
<rscale>  0 0.84410198E+02</rscale>
<asrwt>0</asrwt>
<pdfrwt beam="1">  1        1 0.50377460E-01 0.84410198E+02</pdfrwt>
<pdfrwt beam="2">  1       -2 0.83688708E-03 0.84410198E+02</pdfrwt>
<totfact> 0.15917432E+05</totfact>
</mgrwt>
</event>
<event>
 8    1  0.1372337E-020  0.7683573E+02  0.7818608E-02  0.1338279E+00
          1   -1    0    0  501    0  0.00000000000E+00  0.00000000000E+00  0.44081835800E+01  0.44081864612E+01  0.50400000000E-02 0. -1.
         -2   -1    0    0    0  501 -0.00000000000E+00 -0.00000000000E+00 -0.33481633770E+03  0.33481633771E+03  0.25500000000E-02 0.  1.
        -24    2    1    2    0    0  0.00000000000E+00 -0.35527136788E-14 -0.33040815412E+03  0.33922452417E+03  0.76835730555E+02 0.  0.
         66    2    3    3    0    0  0.16613918546E+02  0.31208577291E+02 -0.23138200516E+03  0.23407611987E+03  0.19999983915E+01 0.  0.
         13    1    3    3    0    0 -0.16613918546E+02 -0.31208577291E+02 -0.99026148956E+02  0.10514840430E+03  0.10566000000E+00 0. -1.
         13    1    4    4    0    0  0.71979584870E+01  0.14201329704E+02 -0.10988761685E+03  0.11103507497E+03  0.10566000000E+00 0. -1.
        -13    1    4    4    0    0  0.61256911055E+01  0.11053299331E+02 -0.80586975588E+02  0.81571878219E+02  0.10566000000E+00 0.  1.
         14    1    4    4    0    0  0.32902689536E+01  0.59539482559E+01 -0.40907412723E+02  0.41469166682E+02  0.00000000000E+00 0. -1.
<mgrwt>
<rscale>  0 0.76835731E+02</rscale>
<asrwt>0</asrwt>
<pdfrwt beam="1">  1        1 0.67818257E-03 0.76835731E+02</pdfrwt>
<pdfrwt beam="2">  1       -2 0.51510186E-01 0.76835731E+02</pdfrwt>
<totfact> 0.73286761E+04</totfact>
</mgrwt>
</event>
<event>
 8    1  0.1372337E-020  0.8589188E+02  0.7818608E-02  0.1313117E+00
          1   -1    0    0  501    0  0.00000000000E+00  0.00000000000E+00  0.54148806959E+02  0.54148807194E+02  0.50400000000E-02 0. -1.
         -2   -1    0    0    0  501 -0.00000000000E+00 -0.00000000000E+00 -0.34060838792E+02  0.34060838888E+02  0.25500000000E-02 0.  1.
        -24    2    1    2    0    0  0.00000000000E+00  0.00000000000E+00  0.20087968167E+02  0.88209646081E+02  0.85891880855E+02 0.  0.
         66    2    3    3    0    0 -0.83691838227E+01 -0.37313434669E+02 -0.99705477834E+01  0.39569526943E+02  0.19999986772E+01 0.  0.
         13    1    3    3    0    0  0.83691838227E+01  0.37313434669E+02  0.30058515950E+02  0.48640119139E+02  0.10566000000E+00 0. -1.
         13    1    4    4    0    0 -0.11782860759E+01 -0.80400967677E+01 -0.23286716211E+01  0.84537204629E+01  0.10566000000E+00 0. -1.
        -13    1    4    4    0    0 -0.34673084011E+01 -0.12010460318E+02 -0.33218427368E+01  0.12935191834E+02  0.10566000000E+00 0.  1.
        -14    1    4    4    0    0 -0.37235893457E+01 -0.17262877584E+02 -0.43200334255E+01  0.18180614646E+02  0.00000000000E+00 0.  1.
<mgrwt>
<rscale>  0 0.85891881E+02</rscale>
<asrwt>0</asrwt>
<pdfrwt beam="1">  1        1 0.83305857E-02 0.85891881E+02</pdfrwt>
<pdfrwt beam="2">  1       -2 0.52401291E-02 0.85891881E+02</pdfrwt>
<totfact> 0.10928966E+05</totfact>
</mgrwt>
</event>
<event>
 8    1  0.1372337E-020  0.7346422E+02  0.7818608E-02  0.1348694E+00
         -2   -1    0    0    0  501 -0.00000000000E+00  0.00000000000E+00  0.27015318364E+02  0.27015318485E+02  0.25500000000E-02 0.  1.
          1   -1    0    0  501    0  0.00000000000E+00 -0.00000000000E+00 -0.49943806914E+02  0.49943807168E+02  0.50400000000E-02 0. -1.
        -24    2    1    2    0    0  0.00000000000E+00  0.00000000000E+00 -0.22928488550E+02  0.76959125653E+02  0.73464218733E+02 0.  0.
         66    2    3    3    0    0  0.17902580273E+02 -0.31803237927E+02 -0.73758249354E+01  0.37287412398E+02  0.20000016954E+01 0.  0.
         13    1    3    3    0    0 -0.17902580273E+02  0.31803237927E+02 -0.15552663614E+02  0.39671713255E+02  0.10566000000E+00 0. -1.
         13    1    4    4    0    0  0.42887152562E+01 -0.78293254484E+01 -0.24884346576E+01  0.92679494283E+01  0.10566000000E+00 0. -1.
        -13    1    4    4    0    0  0.98137319522E+01 -0.17252577325E+02 -0.39957331242E+01  0.20246920912E+02  0.10566000000E+00 0.  1.
         14    1    4    4    0    0  0.38001330641E+01 -0.67213351538E+01 -0.89165715361E+00  0.77725420574E+01  0.00000000000E+00 0. -1.
<mgrwt>
<rscale>  0 0.73464219E+02</rscale>
<asrwt>0</asrwt>
<pdfrwt beam="1">  1        1 0.76836626E-02 0.73464219E+02</pdfrwt>
<pdfrwt beam="2">  1       -2 0.41562029E-02 0.73464219E+02</pdfrwt>
<totfact> 0.16643327E+05</totfact>
</mgrwt>
</event>
<event>
 8    1  0.1372337E-020  0.8733592E+02  0.7818608E-02  0.1309434E+00
         -2   -1    0    0    0  501 -0.00000000000E+00  0.00000000000E+00  0.31847242807E+02  0.31847242909E+02  0.25500000000E-02 0.  1.
          1   -1    0    0  501    0  0.00000000000E+00 -0.00000000000E+00 -0.59876158598E+02  0.59876158810E+02  0.50400000000E-02 0. -1.
        -24    2    1    2    0    0  0.00000000000E+00  0.71054273576E-14 -0.28028915792E+02  0.91723401719E+02  0.87335916452E+02 0.  0.
         66    2    3    3    0    0  0.24124235789E+02  0.35935604763E+02 -0.81236916141E+01  0.44083339212E+02  0.19999971474E+01 0.  0.
         13    1    3    3    0    0 -0.24124235789E+02 -0.35935604763E+02 -0.19905224177E+02  0.47640062507E+02  0.10566000000E+00 0. -1.
         13    1    4    4    0    0  0.59027704758E+01  0.86900732132E+01 -0.17576558768E+01  0.10651788111E+02  0.10566000000E+00 0. -1.
        -13    1    4    4    0    0  0.16799951777E+02  0.24358615585E+02 -0.60035552426E+01  0.30193283567E+02  0.10566000000E+00 0.  1.
         14    1    4    4    0    0  0.14215135360E+01  0.28869159642E+01 -0.36248049474E+00  0.32382675347E+01  0.00000000000E+00 0. -1.
<mgrwt>
<rscale>  0 0.87335916E+02</rscale>
<asrwt>0</asrwt>
<pdfrwt beam="1">  1        1 0.92117168E-02 0.87335916E+02</pdfrwt>
<pdfrwt beam="2">  1       -2 0.48995758E-02 0.87335916E+02</pdfrwt>
<totfact> 0.10607815E+05</totfact>
</mgrwt>
</event>
<event>
 8    1  0.1372337E-020  0.8081982E+02  0.7818608E-02  0.1326741E+00
          1   -1    0    0  501    0  0.00000000000E+00  0.00000000000E+00  0.74192863194E+02  0.74192863366E+02  0.50400000000E-02 0. -1.
         -2   -1    0    0    0  501 -0.00000000000E+00 -0.00000000000E+00 -0.22009674344E+02  0.22009674492E+02  0.25500000000E-02 0.  1.
        -24    2    1    2    0    0  0.00000000000E+00  0.00000000000E+00  0.52183188850E+02  0.96202537858E+02  0.80819818681E+02 0.  0.
         66    2    3    3    0    0 -0.60713665687E+01 -0.39823153373E+02  0.29518360318E+02  0.49980782666E+02  0.20000008548E+01 0.  0.
         13    1    3    3    0    0  0.60713665687E+01  0.39823153373E+02  0.22664828532E+02  0.46221755192E+02  0.10566000000E+00 0. -1.
         13    1    4    4    0    0 -0.11766119978E+01 -0.57834759973E+01  0.49469059737E+01  0.77016915773E+01  0.10566000000E+00 0. -1.
        -13    1    4    4    0    0 -0.33657909462E+01 -0.20468183521E+02  0.14456069221E+02  0.25283674311E+02  0.10566000000E+00 0.  1.
        -14    1    4    4    0    0 -0.15289636248E+01 -0.13571493855E+02  0.10115385124E+02  0.16995416777E+02  0.00000000000E+00 0.  1.
<mgrwt>
<rscale>  0 0.80819819E+02</rscale>
<asrwt>0</asrwt>
<pdfrwt beam="1">  1        1 0.11414287E-01 0.80819819E+02</pdfrwt>
<pdfrwt beam="2">  1       -2 0.33861038E-02 0.80819819E+02</pdfrwt>
<totfact> 0.13614548E+05</totfact>
</mgrwt>
</event>
<event>
 8    1  0.1372337E-020  0.7197015E+02  0.7818608E-02  0.1353519E+00
          1   -1    0    0  501    0  0.00000000000E+00  0.00000000000E+00  0.72758285373E+02  0.72758285547E+02  0.50400000000E-02 0. -1.
         -2   -1    0    0    0  501 -0.00000000000E+00 -0.00000000000E+00 -0.17797638678E+02  0.17797638860E+02  0.25500000000E-02 0.  1.
        -24    2    1    2    0    0  0.35527136788E-14 -0.17763568394E-14  0.54960646695E+02  0.90555924408E+02  0.71970151870E+02 0.  0.
         66    2    3    3    0    0  0.23854854980E+02 -0.13922229307E+02  0.56469455748E+02  0.62894213618E+02  0.20000248092E+01 0.  0.
         13    1    3    3    0    0 -0.23854854980E+02  0.13922229307E+02 -0.15088090528E+01  0.27661710789E+02  0.10566000000E+00 0. -1.
         13    1    4    4    0    0  0.10129000592E+02 -0.53479206754E+01  0.23678100995E+02  0.26303241993E+02  0.10566000000E+00 0. -1.
        -13    1    4    4    0    0  0.79139387231E+01 -0.42248123995E+01  0.17643066599E+02  0.19793140958E+02  0.10566000000E+00 0.  1.
        -14    1    4    4    0    0  0.58119156647E+01 -0.43494962324E+01  0.15148288153E+02  0.16797830668E+02  0.00000000000E+00 0.  1.
<mgrwt>
<rscale>  0 0.71970152E+02</rscale>
<asrwt>0</asrwt>
<pdfrwt beam="1">  1        1 0.11193582E-01 0.71970152E+02</pdfrwt>
<pdfrwt beam="2">  1       -2 0.27380983E-02 0.71970152E+02</pdfrwt>
<totfact> 0.18589164E+05</totfact>
</mgrwt>
</event>
<event>
 8    1  0.1372337E-020  0.8054586E+02  0.7818608E-02  0.1327509E+00
         -2   -1    0    0    0  501 -0.00000000000E+00  0.00000000000E+00  0.47087298514E+01  0.47087305419E+01  0.25500000000E-02 0.  1.
          1   -1    0    0  501    0  0.00000000000E+00 -0.00000000000E+00 -0.34444719069E+03  0.34444719073E+03  0.50400000000E-02 0. -1.
        -24    2    1    2    0    0  0.00000000000E+00  0.00000000000E+00 -0.33973846084E+03  0.34915592127E+03  0.80545860130E+02 0.  0.
         66    2    3    3    0    0  0.10330876440E+02 -0.36729178462E+02 -0.22551153758E+03  0.22872519131E+03  0.19999993173E+01 0.  0.
         13    1    3    3    0    0 -0.10330876440E+02  0.36729178462E+02 -0.11422692326E+03  0.12043072996E+03  0.10566000000E+00 0. -1.
         13    1    4    4    0    0  0.32002540500E+01 -0.12232718287E+02 -0.70663566623E+02  0.71786014199E+02  0.10566000000E+00 0. -1.
        -13    1    4    4    0    0  0.41289147345E+01 -0.14941101388E+02 -0.96866322180E+02  0.98098827640E+02  0.10566000000E+00 0.  1.
        -14    1    4    4    0    0  0.30017076554E+01 -0.95553587865E+01 -0.57981648781E+02  0.58840349470E+02  0.00000000000E+00 0.  1.
<mgrwt>
<rscale>  0 0.80545860E+02</rscale>
<asrwt>0</asrwt>
<pdfrwt beam="1">  1        1 0.52991856E-01 0.80545860E+02</pdfrwt>
<pdfrwt beam="2">  1       -2 0.72442030E-03 0.80545860E+02</pdfrwt>
<totfact> 0.18181860E+05</totfact>
</mgrwt>
</event>
<event>
 8    1  0.1372337E-020  0.7803831E+02  0.7818608E-02  0.1334712E+00
         -2   -1    0    0    0  501 -0.00000000000E+00  0.00000000000E+00  0.25919439783E+02  0.25919439908E+02  0.25500000000E-02 0.  1.
          1   -1    0    0  501    0  0.00000000000E+00 -0.00000000000E+00 -0.58739486478E+02  0.58739486695E+02  0.50400000000E-02 0. -1.
        -24    2    1    2    0    0  0.00000000000E+00  0.00000000000E+00 -0.32820046695E+02  0.84658926603E+02  0.78038313593E+02 0.  0.
         66    2    3    3    0    0 -0.33302598231E+02 -0.10742241859E+02  0.22444594910E+01  0.35121167598E+02  0.20000014814E+01 0.  0.
         13    1    3    3    0    0  0.33302598231E+02  0.10742241859E+02 -0.35064506186E+02  0.49537759005E+02  0.10566000000E+00 0. -1.
         13    1    4    4    0    0 -0.10437002483E+02 -0.26414265924E+01  0.33878377989E+00  0.10771912261E+02  0.10566000000E+00 0. -1.
        -13    1    4    4    0    0 -0.20546268743E+02 -0.69904562982E+01  0.17018523449E+01  0.21769775009E+02  0.10566000000E+00 0.  1.
         14    1    4    4    0    0 -0.23193270050E+01 -0.11103589683E+01  0.20382336618E+00  0.25794803273E+01  0.00000000000E+00 0. -1.
<mgrwt>
<rscale>  0 0.78038314E+02</rscale>
<asrwt>0</asrwt>
<pdfrwt beam="1">  1        1 0.90368440E-02 0.78038314E+02</pdfrwt>
<pdfrwt beam="2">  1       -2 0.39876062E-02 0.78038314E+02</pdfrwt>
<totfact> 0.14448289E+05</totfact>
</mgrwt>
</event>
<event>
 8    1  0.1372337E-020  0.7722322E+02  0.7818608E-02  0.1337121E+00
         -2   -1    0    0    0  501 -0.00000000000E+00  0.00000000000E+00  0.80348173692E+02  0.80348173733E+02  0.25500000000E-02 0.  1.
          1   -1    0    0  501    0  0.00000000000E+00 -0.00000000000E+00 -0.18554951311E+02  0.18554951995E+02  0.50400000000E-02 0. -1.
        -24    2    1    2    0    0 -0.35527136788E-14  0.00000000000E+00  0.61793222382E+02  0.98903125728E+02  0.77223221549E+02 0.  0.
         66    2    3    3    0    0  0.28804685979E+02  0.24285907997E+02  0.41581825818E+02  0.56147693597E+02  0.19999990635E+01 0.  0.
         13    1    3    3    0    0 -0.28804685979E+02 -0.24285907997E+02  0.20211396563E+02  0.42755432131E+02  0.10566000000E+00 0. -1.
         13    1    4    4    0    0  0.20982111949E+02  0.17769902198E+02  0.29637382990E+02  0.40427763733E+02  0.10566000000E+00 0. -1.
        -13    1    4    4    0    0  0.77984918049E+01  0.63880886459E+01  0.11710561436E+02  0.15452267282E+02  0.10566000000E+00 0.  1.
         14    1    4    4    0    0  0.24082225680E-01  0.12791715344E+00  0.23388139285E+00  0.26766258173E+00  0.00000000000E+00 0. -1.
<mgrwt>
<rscale>  0 0.77223222E+02</rscale>
<asrwt>0</asrwt>
<pdfrwt beam="1">  1        1 0.28546079E-02 0.77223222E+02</pdfrwt>
<pdfrwt beam="2">  1       -2 0.12361258E-01 0.77223222E+02</pdfrwt>
<totfact> 0.12216797E+05</totfact>
</mgrwt>
</event>
<event>
 8    1  0.1372337E-020  0.7960468E+02  0.7818608E-02  0.1330177E+00
          1   -1    0    0  501    0  0.00000000000E+00  0.00000000000E+00  0.29662763752E+02  0.29662764180E+02  0.50400000000E-02 0. -1.
         -2   -1    0    0    0  501 -0.00000000000E+00 -0.00000000000E+00 -0.53407904534E+02  0.53407904595E+02  0.25500000000E-02 0.  1.
        -24    2    1    2    0    0 -0.17763568394E-14  0.71054273576E-14 -0.23745140782E+02  0.83070668775E+02  0.79604675114E+02 0.  0.
         66    2    3    3    0    0  0.10034372399E+02 -0.33868526865E+02 -0.30964431226E+02  0.47016611306E+02  0.19999990213E+01 0.  0.
         13    1    3    3    0    0 -0.10034372399E+02  0.33868526865E+02  0.72192904440E+01  0.36054057469E+02  0.10566000000E+00 0. -1.
         13    1    4    4    0    0  0.24485100574E+01 -0.63713195565E+01 -0.63678522721E+01  0.93353961344E+01  0.10566000000E+00 0. -1.
        -13    1    4    4    0    0  0.16053274215E+01 -0.48247920836E+01 -0.48138750988E+01  0.70028745728E+01  0.10566000000E+00 0.  1.
        -14    1    4    4    0    0  0.59805349197E+01 -0.22672415225E+02 -0.19782703855E+02  0.30678340599E+02  0.00000000000E+00 0.  1.
<mgrwt>
<rscale>  0 0.79604675E+02</rscale>
<asrwt>0</asrwt>
<pdfrwt beam="1">  1        1 0.45635022E-02 0.79604675E+02</pdfrwt>
<pdfrwt beam="2">  1       -2 0.82166007E-02 0.79604675E+02</pdfrwt>
<totfact> 0.12243712E+05</totfact>
</mgrwt>
</event>
<event>
 8    1  0.1372337E-020  0.8031680E+02  0.7818608E-02  0.1328155E+00
         -2   -1    0    0    0  501 -0.00000000000E+00  0.00000000000E+00  0.81106557771E+01  0.81106561780E+01  0.25500000000E-02 0.  1.
          1   -1    0    0  501    0  0.00000000000E+00 -0.00000000000E+00 -0.19883684792E+03  0.19883684798E+03  0.50400000000E-02 0. -1.
        -24    2    1    2    0    0  0.00000000000E+00  0.00000000000E+00 -0.19072619214E+03  0.20694750416E+03  0.80316804652E+02 0.  0.
         66    2    3    3    0    0 -0.25668928156E+01  0.39883255673E+02 -0.10486441816E+03  0.11223996266E+03  0.20000000096E+01 0.  0.
         13    1    3    3    0    0  0.25668928156E+01 -0.39883255673E+02 -0.85861773980E+02  0.94707541499E+02  0.10566000000E+00 0. -1.
         13    1    4    4    0    0 -0.11384512572E+01  0.11000939502E+02 -0.27573144277E+02  0.29708688806E+02  0.10566000000E+00 0. -1.
        -13    1    4    4    0    0 -0.12935040772E+01  0.22076983928E+02 -0.60287512012E+02  0.64215742935E+02  0.10566000000E+00 0.  1.
         14    1    4    4    0    0 -0.13493748125E+00  0.68053322434E+01 -0.17003761873E+02  0.18315530921E+02  0.00000000000E+00 0. -1.
<mgrwt>
<rscale>  0 0.80316805E+02</rscale>
<asrwt>0</asrwt>
<pdfrwt beam="1">  1        1 0.30590281E-01 0.80316805E+02</pdfrwt>
<pdfrwt beam="2">  1       -2 0.12477934E-02 0.80316805E+02</pdfrwt>
<totfact> 0.16481155E+05</totfact>
</mgrwt>
</event>
<event>
 8    1  0.1894522E-020  0.8120632E+02  0.7818608E-02  0.1325663E+00
         -2   -1    0    0    0  501 -0.00000000000E+00  0.00000000000E+00  0.12168520063E+02  0.12168520330E+02  0.25500000000E-02 0.  1.
          1   -1    0    0  501    0  0.00000000000E+00 -0.00000000000E+00 -0.13548207704E+03  0.13548207714E+03  0.50400000000E-02 0. -1.
        -24    2    1    2    0    0  0.00000000000E+00  0.17763568394E-14 -0.12331355698E+03  0.14765059747E+03  0.81206315007E+02 0.  0.
         66    2    3    3    0    0 -0.16493976871E+02 -0.12647898987E+02  0.16725258306E+01  0.20947982330E+02  0.19999998120E+01 0.  0.
         13    1    3    3    0    0  0.16493976871E+02  0.12647898987E+02 -0.12498608281E+03  0.12670261514E+03  0.10566000000E+00 0. -1.
         13    1    4    4    0    0 -0.37353990642E+01 -0.23083172116E+01  0.22960461979E+00  0.43983425100E+01  0.10566000000E+00 0. -1.
        -13    1    4    4    0    0 -0.11241795436E+02 -0.85863278305E+01  0.15370288435E+01  0.14229427674E+02  0.10566000000E+00 0.  1.
         14    1    4    4    0    0 -0.15167823709E+01 -0.17532539448E+01 -0.94107632681E-01  0.23202121460E+01  0.00000000000E+00 0. -1.
<mgrwt>
<rscale>  0 0.81206315E+02</rscale>
<asrwt>0</asrwt>
<pdfrwt beam="1">  1        1 0.20843395E-01 0.81206315E+02</pdfrwt>
<pdfrwt beam="2">  1       -2 0.18720801E-02 0.81206315E+02</pdfrwt>
<totfact> 0.14888126E+05</totfact>
</mgrwt>
</event>
<event>
 8    1  0.1372337E-020  0.7920594E+02  0.7818608E-02  0.1331320E+00
         -2   -1    0    0    0  501 -0.00000000000E+00  0.00000000000E+00  0.17678570284E+02  0.17678570468E+02  0.25500000000E-02 0.  1.
          1   -1    0    0  501    0  0.00000000000E+00 -0.00000000000E+00 -0.88717304507E+02  0.88717304650E+02  0.50400000000E-02 0. -1.
        -24    2    1    2    0    0  0.00000000000E+00  0.55511151231E-16 -0.71038734223E+02  0.10639587512E+03  0.79205937164E+02 0.  0.
         66    2    3    3    0    0  0.39084590543E+02  0.40577331536E+00 -0.43889805732E+02  0.58805483733E+02  0.20000000206E+01 0.  0.
         13    1    3    3    0    0 -0.39084590543E+02 -0.40577331536E+00 -0.27148928492E+02  0.47590391385E+02  0.10566000000E+00 0. -1.
         13    1    4    4    0    0  0.63048363743E+01  0.27893667300E+00 -0.67223134094E+01  0.92211403299E+01  0.10566000000E+00 0. -1.
        -13    1    4    4    0    0  0.30933431946E+02  0.26916950370E+00 -0.34512064941E+02  0.46346989705E+02  0.10566000000E+00 0.  1.
        -14    1    4    4    0    0  0.18463222223E+01 -0.14233286135E+00 -0.26554273815E+01  0.32373536987E+01  0.00000000000E+00 0.  1.
<mgrwt>
<rscale>  0 0.79205937E+02</rscale>
<asrwt>0</asrwt>
<pdfrwt beam="1">  1        1 0.13648816E-01 0.79205937E+02</pdfrwt>
<pdfrwt beam="2">  1       -2 0.27197801E-02 0.79205937E+02</pdfrwt>
<totfact> 0.14804766E+05</totfact>
</mgrwt>
</event>
<event>
 8    1  0.1372337E-020  0.7776563E+02  0.7818608E-02  0.1335515E+00
          1   -1    0    0  501    0  0.00000000000E+00  0.00000000000E+00  0.10584669684E+03  0.10584669696E+03  0.50400000000E-02 0. -1.
         -2   -1    0    0    0  501 -0.00000000000E+00 -0.00000000000E+00 -0.14283612332E+02  0.14283612560E+02  0.25500000000E-02 0.  1.
        -24    2    1    2    0    0  0.00000000000E+00  0.00000000000E+00  0.91563084505E+02  0.12013030952E+03  0.77765627501E+02 0.  0.
         66    2    3    3    0    0 -0.17189019941E+02 -0.18377715530E+02  0.73245152296E-01  0.25242983159E+02  0.19999998210E+01 0.  0.
         13    1    3    3    0    0  0.17189019941E+02  0.18377715530E+02  0.91489839352E+02  0.94887326358E+02  0.10566000000E+00 0. -1.
         13    1    4    4    0    0 -0.75904495578E+01 -0.88217616663E+01  0.69048482227E+00  0.11658745075E+02  0.10566000000E+00 0. -1.
        -13    1    4    4    0    0 -0.35375644499E+01 -0.37611394446E+01  0.12527912583E+00  0.51659840354E+01  0.10566000000E+00 0.  1.
        -14    1    4    4    0    0 -0.60610059328E+01 -0.57948144190E+01 -0.74251879580E+00  0.84182540488E+01  0.00000000000E+00 0.  1.
<mgrwt>
<rscale>  0 0.77765628E+02</rscale>
<asrwt>0</asrwt>
<pdfrwt beam="1">  1        1 0.16284106E-01 0.77765628E+02</pdfrwt>
<pdfrwt beam="2">  1       -2 0.21974790E-02 0.77765628E+02</pdfrwt>
<totfact> 0.16017570E+05</totfact>
</mgrwt>
</event>
<event>
 8    1  0.1372337E-020  0.7965705E+02  0.7818608E-02  0.1330028E+00
          1   -1    0    0  501    0  0.00000000000E+00  0.00000000000E+00  0.28499002347E+02  0.28499002793E+02  0.50400000000E-02 0. -1.
         -2   -1    0    0    0  501 -0.00000000000E+00 -0.00000000000E+00 -0.55661994803E+02  0.55661994862E+02  0.25500000000E-02 0.  1.
        -24    2    1    2    0    0 -0.88817841970E-15  0.00000000000E+00 -0.27162992456E+02  0.84160997655E+02  0.79657048446E+02 0.  0.
         66    2    3    3    0    0  0.76912051935E+01 -0.31443915201E+02 -0.38060598175E+02  0.50004835474E+02  0.19999992112E+01 0.  0.
         13    1    3    3    0    0 -0.76912051935E+01  0.31443915201E+02  0.10897605719E+02  0.34156162181E+02  0.10566000000E+00 0. -1.
         13    1    4    4    0    0  0.57678917204E+00 -0.21400950019E+01 -0.33793564538E+01  0.40427597558E+01  0.10566000000E+00 0. -1.
        -13    1    4    4    0    0  0.11797630303E+01 -0.47069931284E+01 -0.52711971137E+01  0.71654942722E+01  0.10566000000E+00 0.  1.
        -14    1    4    4    0    0  0.59346529911E+01 -0.24596827071E+02 -0.29410044607E+02  0.38796581446E+02  0.00000000000E+00 0.  1.
<mgrwt>
<rscale>  0 0.79657048E+02</rscale>
<asrwt>0</asrwt>
<pdfrwt beam="1">  1        1 0.43844620E-02 0.79657048E+02</pdfrwt>
<pdfrwt beam="2">  1       -2 0.85633838E-02 0.79657048E+02</pdfrwt>
<totfact> 0.12133690E+05</totfact>
</mgrwt>
</event>
<event>
 8    1  0.1372337E-020  0.8119880E+02  0.7818608E-02  0.1325683E+00
         -2   -1    0    0    0  501 -0.00000000000E+00  0.00000000000E+00  0.12066136081E+02  0.12066136351E+02  0.25500000000E-02 0.  1.
          1   -1    0    0  501    0  0.00000000000E+00 -0.00000000000E+00 -0.13660637556E+03  0.13660637565E+03  0.50400000000E-02 0. -1.
        -24    2    1    2    0    0  0.00000000000E+00 -0.35527136788E-14 -0.12454023947E+03  0.14867251200E+03  0.81198796641E+02 0.  0.
         66    2    3    3    0    0  0.30571802687E+02  0.11275494753E+02 -0.18040182466E+02  0.37299062703E+02  0.19999984179E+01 0.  0.
         13    1    3    3    0    0 -0.30571802687E+02 -0.11275494753E+02 -0.10650005701E+03  0.11137344930E+03  0.10566000000E+00 0. -1.
         13    1    4    4    0    0  0.48237289989E+01  0.13578520300E+01 -0.28451967981E+01  0.57635433932E+01  0.10566000000E+00 0. -1.
        -13    1    4    4    0    0  0.10844397774E+02  0.47745101265E+01 -0.70814747710E+01  0.13804179041E+02  0.10566000000E+00 0.  1.
         14    1    4    4    0    0  0.14903675914E+02  0.51431325964E+01 -0.81135108973E+01  0.17731340269E+02  0.00000000000E+00 0. -1.
<mgrwt>
<rscale>  0 0.81198797E+02</rscale>
<asrwt>0</asrwt>
<pdfrwt beam="1">  1        1 0.21016364E-01 0.81198797E+02</pdfrwt>
<pdfrwt beam="2">  1       -2 0.18563287E-02 0.81198797E+02</pdfrwt>
<totfact> 0.14914215E+05</totfact>
</mgrwt>
</event>
<event>
 8    1  0.1372337E-020  0.7806022E+02  0.7818608E-02  0.1334648E+00
          1   -1    0    0  501    0  0.00000000000E+00  0.00000000000E+00  0.39214331288E+02  0.39214331612E+02  0.50400000000E-02 0. -1.
         -2   -1    0    0    0  501 -0.00000000000E+00 -0.00000000000E+00 -0.38846752287E+02  0.38846752370E+02  0.25500000000E-02 0.  1.
        -24    2    1    2    0    0  0.44408920985E-15  0.00000000000E+00  0.36757900149E+00  0.78061083982E+02  0.78060218538E+02 0.  0.
         66    2    3    3    0    0 -0.21923550592E+01  0.30381166305E+02 -0.24178683932E+02  0.38941371882E+02  0.20000001430E+01 0.  0.
         13    1    3    3    0    0  0.21923550592E+01 -0.30381166305E+02  0.24546262934E+02  0.39119712101E+02  0.10566000000E+00 0. -1.
         13    1    4    4    0    0 -0.60023254970E+00  0.62224716874E+01 -0.42678916356E+01  0.75700393700E+01  0.10566000000E+00 0. -1.
        -13    1    4    4    0    0 -0.88729883022E+00  0.20076792043E+02 -0.16291986918E+02  0.25870927307E+02  0.10566000000E+00 0.  1.
         14    1    4    4    0    0 -0.70482367931E+00  0.40819025752E+01 -0.36188053784E+01  0.55004052050E+01  0.00000000000E+00 0. -1.
<mgrwt>
<rscale>  0 0.78060219E+02</rscale>
<asrwt>0</asrwt>
<pdfrwt beam="1">  1        1 0.60329741E-02 0.78060219E+02</pdfrwt>
<pdfrwt beam="2">  1       -2 0.59764235E-02 0.78060219E+02</pdfrwt>
<totfact> 0.13561836E+05</totfact>
</mgrwt>
</event>
<event>
 8    1  0.1372337E-020  0.8055261E+02  0.7818608E-02  0.1327490E+00
          1   -1    0    0  501    0  0.00000000000E+00  0.00000000000E+00  0.25075108815E+02  0.25075109321E+02  0.50400000000E-02 0. -1.
         -2   -1    0    0    0  501 -0.00000000000E+00 -0.00000000000E+00 -0.64692873757E+02  0.64692873807E+02  0.25500000000E-02 0.  1.
        -24    2    1    2    0    0  0.00000000000E+00  0.00000000000E+00 -0.39617764943E+02  0.89767983129E+02  0.80552613216E+02 0.  0.
         66    2    3    3    0    0 -0.39228652850E+02  0.10495497532E+01 -0.98418944792E+01  0.40507427052E+02  0.20000000702E+01 0.  0.
         13    1    3    3    0    0  0.39228652850E+02 -0.10495497532E+01 -0.29775870463E+02  0.49260556077E+02  0.10566000000E+00 0. -1.
         13    1    4    4    0    0 -0.68990171910E+01 -0.26997902698E+00 -0.19205216253E+01  0.71672096541E+01  0.10566000000E+00 0. -1.
        -13    1    4    4    0    0 -0.96158600805E+01  0.78008837290E+00 -0.18642288913E+01  0.98264854527E+01  0.10566000000E+00 0.  1.
        -14    1    4    4    0    0 -0.22713775579E+02  0.53944040725E+00 -0.60571439626E+01  0.23513731945E+02  0.00000000000E+00 0.  1.
<mgrwt>
<rscale>  0 0.80552613E+02</rscale>
<asrwt>0</asrwt>
<pdfrwt beam="1">  1        1 0.38577091E-02 0.80552613E+02</pdfrwt>
<pdfrwt beam="2">  1       -2 0.99527498E-02 0.80552613E+02</pdfrwt>
<totfact> 0.11469064E+05</totfact>
</mgrwt>
</event>
<event>
 8    1  0.1372337E-020  0.7861480E+02  0.7818608E-02  0.1333029E+00
         -2   -1    0    0    0  501 -0.00000000000E+00  0.00000000000E+00  0.18024798868E+03  0.18024798870E+03  0.25500000000E-02 0.  1.
          1   -1    0    0  501    0  0.00000000000E+00 -0.00000000000E+00 -0.85719210718E+01  0.85719225535E+01  0.50400000000E-02 0. -1.
        -24    2    1    2    0    0  0.71054273576E-14 -0.35527136788E-14  0.17167606761E+03  0.18881991125E+03  0.78614799470E+02 0.  0.
         66    2    3    3    0    0  0.34813695495E+02 -0.16315999279E+02  0.10523702209E+03  0.11205818147E+03  0.19999970778E+01 0.  0.
         13    1    3    3    0    0 -0.34813695495E+02  0.16315999279E+02  0.66439045517E+02  0.76761729786E+02  0.10566000000E+00 0. -1.
         13    1    4    4    0    0  0.44066476253E+01 -0.23671271154E+01  0.13264765858E+02  0.14176988798E+02  0.10566000000E+00 0. -1.
        -13    1    4    4    0    0  0.20468015552E+02 -0.90415891995E+01  0.59431925039E+02  0.63504762607E+02  0.10566000000E+00 0.  1.
        -14    1    4    4    0    0  0.99390323175E+01 -0.49072829639E+01  0.32540331198E+02  0.34376430064E+02  0.00000000000E+00 0.  1.
<mgrwt>
<rscale>  0 0.78614799E+02</rscale>
<asrwt>0</asrwt>
<pdfrwt beam="1">  1        1 0.13187572E-02 0.78614799E+02</pdfrwt>
<pdfrwt beam="2">  1       -2 0.27730461E-01 0.78614799E+02</pdfrwt>
<totfact> 0.92681811E+04</totfact>
</mgrwt>
</event>
<event>
 8    1  0.1372337E-020  0.7953293E+02  0.7818608E-02  0.1330382E+00
         -2   -1    0    0    0  501 -0.00000000000E+00  0.00000000000E+00  0.16056515704E+03  0.16056515706E+03  0.25500000000E-02 0.  1.
          1   -1    0    0  501    0  0.00000000000E+00 -0.00000000000E+00 -0.98487837143E+01  0.98487850039E+01  0.50400000000E-02 0. -1.
        -24    2    1    2    0    0 -0.35527136788E-14  0.71054273576E-14  0.15071637333E+03  0.17041394207E+03  0.79532926901E+02 0.  0.
         66    2    3    3    0    0  0.21442465823E+02 -0.33045589099E+02  0.86657627464E+02  0.95212051231E+02  0.20000006231E+01 0.  0.
         13    1    3    3    0    0 -0.21442465823E+02  0.33045589099E+02  0.64058745864E+02  0.75201890836E+02  0.10566000000E+00 0. -1.
         13    1    4    4    0    0  0.22078249151E+01 -0.30624561688E+01  0.75269125045E+01  0.84213243927E+01  0.10566000000E+00 0. -1.
        -13    1    4    4    0    0  0.19029220127E+02 -0.29732940351E+02  0.78037259797E+02  0.85650359259E+02  0.10566000000E+00 0.  1.
        -14    1    4    4    0    0  0.20542078100E+00 -0.25019258000E+00  0.10934551620E+01  0.11403675792E+01  0.00000000000E+00 0.  1.
<mgrwt>
<rscale>  0 0.79532927E+02</rscale>
<asrwt>0</asrwt>
<pdfrwt beam="1">  1        1 0.15151977E-02 0.79532927E+02</pdfrwt>
<pdfrwt beam="2">  1       -2 0.24702331E-01 0.79532927E+02</pdfrwt>
<totfact> 0.93772242E+04</totfact>
</mgrwt>
</event>
<event>
 8    1  0.1372337E-020  0.8026203E+02  0.7818608E-02  0.1328309E+00
          1   -1    0    0  501    0  0.00000000000E+00  0.00000000000E+00  0.39266310744E+03  0.39266310747E+03  0.50400000000E-02 0. -1.
         -2   -1    0    0    0  501 -0.00000000000E+00 -0.00000000000E+00 -0.41014761689E+01  0.41014769616E+01  0.25500000000E-02 0.  1.
        -24    2    1    2    0    0 -0.88817841970E-15  0.71054273576E-14  0.38856163127E+03  0.39676458443E+03  0.80262034393E+02 0.  0.
         66    2    3    3    0    0  0.57367629382E+01  0.37780001765E+02  0.25459145498E+03  0.25745105931E+03  0.20000024109E+01 0.  0.
         13    1    3    3    0    0 -0.57367629382E+01 -0.37780001765E+02  0.13397017629E+03  0.13931352512E+03  0.10566000000E+00 0. -1.
         13    1    4    4    0    0  0.45555919200E+00  0.62913179063E+01  0.45449542603E+02  0.45885295053E+02  0.10566000000E+00 0. -1.
        -13    1    4    4    0    0  0.40164621808E+01  0.25101871795E+02  0.16718173907E+03  0.16910346235E+03  0.10566000000E+00 0.  1.
         14    1    4    4    0    0  0.12647415655E+01  0.63868120636E+01  0.41960173304E+02  0.42462301907E+02  0.00000000000E+00 0. -1.
<mgrwt>
<rscale>  0 0.80262034E+02</rscale>
<asrwt>0</asrwt>
<pdfrwt beam="1">  1        1 0.60409705E-01 0.80262034E+02</pdfrwt>
<pdfrwt beam="2">  1       -2 0.63099643E-03 0.80262034E+02</pdfrwt>
<totfact> 0.18773627E+05</totfact>
</mgrwt>
</event>
<event>
 8    1  0.1372337E-020  0.7966598E+02  0.7818608E-02  0.1330002E+00
         -2   -1    0    0    0  501 -0.00000000000E+00  0.00000000000E+00  0.19029161144E+02  0.19029161314E+02  0.25500000000E-02 0.  1.
          1   -1    0    0  501    0  0.00000000000E+00 -0.00000000000E+00 -0.83380817392E+02  0.83380817544E+02  0.50400000000E-02 0. -1.
        -24    2    1    2    0    0  0.35527136788E-14  0.00000000000E+00 -0.64351656248E+02  0.10240997886E+03  0.79665978359E+02 0.  0.
         66    2    3    3    0    0 -0.27865831967E+02  0.28427637491E+02 -0.31985198258E+02  0.51104677657E+02  0.20000015634E+01 0.  0.
         13    1    3    3    0    0  0.27865831967E+02 -0.28427637491E+02 -0.32366457991E+02  0.51305301202E+02  0.10566000000E+00 0. -1.
         13    1    4    4    0    0 -0.21135040096E+01  0.23270026374E+01 -0.21817702842E+01  0.38279401879E+01  0.10566000000E+00 0. -1.
        -13    1    4    4    0    0 -0.20780959211E+02  0.21555303550E+02 -0.23686323113E+02  0.38177643242E+02  0.10566000000E+00 0.  1.
         14    1    4    4    0    0 -0.49713687457E+01  0.45453313044E+01 -0.61171048604E+01  0.90990942267E+01  0.00000000000E+00 0. -1.
<mgrwt>
<rscale>  0 0.79665978E+02</rscale>
<asrwt>0</asrwt>
<pdfrwt beam="1">  1        1 0.12827818E-01 0.79665978E+02</pdfrwt>
<pdfrwt beam="2">  1       -2 0.29275633E-02 0.79665978E+02</pdfrwt>
<totfact> 0.14427733E+05</totfact>
</mgrwt>
</event>
<event>
 8    1  0.1372337E-020  0.7774856E+02  0.7818608E-02  0.1335565E+00
         -2   -1    0    0    0  501 -0.00000000000E+00  0.00000000000E+00  0.11967705899E+03  0.11967705901E+03  0.25500000000E-02 0.  1.
          1   -1    0    0  501    0  0.00000000000E+00 -0.00000000000E+00 -0.12627395181E+02  0.12627396187E+02  0.50400000000E-02 0. -1.
        -24    2    1    2    0    0  0.17763568394E-14  0.00000000000E+00  0.10704966380E+03  0.13230445520E+03  0.77748558474E+02 0.  0.
         66    2    3    3    0    0 -0.10368586060E+02  0.10293040531E+02  0.11481532862E+03  0.11575842926E+03  0.19999993902E+01 0.  0.
         13    1    3    3    0    0  0.10368586060E+02 -0.10293040531E+02 -0.77656648193E+01  0.16546025939E+02  0.10566000000E+00 0. -1.
         13    1    4    4    0    0 -0.26926993024E+01  0.29562494560E+01  0.38013397077E+02  0.38223285596E+02  0.10566000000E+00 0. -1.
        -13    1    4    4    0    0 -0.36149299281E+01  0.34124483291E+01  0.38229238603E+02  0.38551243432E+02  0.10566000000E+00 0.  1.
        -14    1    4    4    0    0 -0.40609568290E+01  0.39243427457E+01  0.38572692944E+02  0.38983900232E+02  0.00000000000E+00 0.  1.
<mgrwt>
<rscale>  0 0.77748558E+02</rscale>
<asrwt>0</asrwt>
<pdfrwt beam="1">  1        1 0.19426763E-02 0.77748558E+02</pdfrwt>
<pdfrwt beam="2">  1       -2 0.18411855E-01 0.77748558E+02</pdfrwt>
<totfact> 0.10891109E+05</totfact>
</mgrwt>
</event>
<event>
 8    1  0.1372337E-020  0.8131122E+02  0.7818608E-02  0.1325371E+00
          1   -1    0    0  501    0  0.00000000000E+00  0.00000000000E+00  0.54408601482E+02  0.54408601716E+02  0.50400000000E-02 0. -1.
         -2   -1    0    0    0  501 -0.00000000000E+00 -0.00000000000E+00 -0.30378995977E+02  0.30378996084E+02  0.25500000000E-02 0.  1.
        -24    2    1    2    0    0  0.00000000000E+00  0.00000000000E+00  0.24029605505E+02  0.84787597800E+02  0.81311221857E+02 0.  0.
         66    2    3    3    0    0 -0.12434499616E+02  0.28908701743E+01 -0.28200413950E+02  0.31019949466E+02  0.20000017110E+01 0.  0.
         13    1    3    3    0    0  0.12434499616E+02 -0.28908701743E+01  0.52230019455E+02  0.53767648334E+02  0.10566000000E+00 0. -1.
         13    1    4    4    0    0 -0.10498344071E+01  0.60729718408E+00 -0.30358463275E+01  0.32708544926E+01  0.10566000000E+00 0. -1.
        -13    1    4    4    0    0 -0.99913386796E+01  0.20863005864E+01 -0.23051113054E+02  0.25210007453E+02  0.10566000000E+00 0.  1.
        -14    1    4    4    0    0 -0.13933265297E+01  0.19727240379E+00 -0.21134545685E+01  0.25390875197E+01  0.00000000000E+00 0.  1.
<mgrwt>
<rscale>  0 0.81311222E+02</rscale>
<asrwt>0</asrwt>
<pdfrwt beam="1">  1        1 0.83705541E-02 0.81311222E+02</pdfrwt>
<pdfrwt beam="2">  1       -2 0.46736917E-02 0.81311222E+02</pdfrwt>
<totfact> 0.12744896E+05</totfact>
</mgrwt>
</event>
<event>
 8    1  0.1372337E-020  0.7255918E+02  0.7818608E-02  0.1351601E+00
          1   -1    0    0  501    0  0.00000000000E+00  0.00000000000E+00  0.45438156304E+01  0.45438184256E+01  0.50400000000E-02 0. -1.
         -2   -1    0    0    0  501 -0.00000000000E+00 -0.00000000000E+00 -0.28967023167E+03  0.28967023168E+03  0.25500000000E-02 0.  1.
        -24    2    1    2    0    0 -0.35527136788E-14  0.35527136788E-14 -0.28512641604E+03  0.29421405010E+03  0.72559176929E+02 0.  0.
         66    2    3    3    0    0  0.27945284717E+02  0.21628268462E+02 -0.10985907771E+03  0.11541983324E+03  0.20000040246E+01 0.  0.
         13    1    3    3    0    0 -0.27945284717E+02 -0.21628268462E+02 -0.17526733833E+03  0.17879421686E+03  0.10566000000E+00 0. -1.
         13    1    4    4    0    0  0.47470136182E+01  0.33127356778E+01 -0.19391552579E+02  0.20237386971E+02  0.10566000000E+00 0.  1.
        -13    1    4    4    0    0  0.45663500634E+01  0.30078512696E+01 -0.17268753672E+02  0.18114075730E+02  0.10566000000E+00 0.  1.
         14    1    4    4    0    0  0.18631921035E+02  0.15307681515E+02 -0.73198771458E+02  0.77068370541E+02  0.00000000000E+00 0. -1.
<mgrwt>
<rscale>  0 0.72559177E+02</rscale>
<asrwt>0</asrwt>
<pdfrwt beam="1">  1        1 0.69904900E-03 0.72559177E+02</pdfrwt>
<pdfrwt beam="2">  1       -2 0.44564637E-01 0.72559177E+02</pdfrwt>
<totfact> 0.92048734E+04</totfact>
</mgrwt>
</event>
<event>
 8    1  0.1372337E-020  0.7951812E+02  0.7818608E-02  0.1330425E+00
         -2   -1    0    0    0  501 -0.00000000000E+00  0.00000000000E+00  0.58981870991E+02  0.58981871046E+02  0.25500000000E-02 0.  1.
          1   -1    0    0  501    0  0.00000000000E+00 -0.00000000000E+00 -0.26801163719E+02  0.26801164193E+02  0.50400000000E-02 0. -1.
        -24    2    1    2    0    0  0.17763568394E-14  0.00000000000E+00  0.32180707272E+02  0.85783035239E+02  0.79518118780E+02 0.  0.
         66    2    3    3    0    0 -0.14416544362E+02 -0.49507855620E+01  0.55685201779E+02  0.57768405935E+02  0.19999995277E+01 0.  0.
         13    1    3    3    0    0  0.14416544362E+02  0.49507855620E+01 -0.23504494506E+02  0.28014629304E+02  0.10566000000E+00 0. -1.
         13    1    4    4    0    0 -0.31596261898E+00 -0.29576941160E-01  0.82029123357E+00  0.88586055083E+00  0.10566000000E+00 0. -1.
        -13    1    4    4    0    0 -0.56309489566E+01 -0.23661206767E+01  0.19951525070E+02  0.20865776522E+02  0.10566000000E+00 0.  1.
        -14    1    4    4    0    0 -0.84696327865E+01 -0.25550879441E+01  0.34913385475E+02  0.36016768862E+02  0.00000000000E+00 0.  1.
<mgrwt>
<rscale>  0 0.79518119E+02</rscale>
<asrwt>0</asrwt>
<pdfrwt beam="1">  1        1 0.41232561E-02 0.79518119E+02</pdfrwt>
<pdfrwt beam="2">  1       -2 0.90741339E-02 0.79518119E+02</pdfrwt>
<totfact> 0.12059425E+05</totfact>
</mgrwt>
</event>
<event>
 8    1  0.1372337E-020  0.7937906E+02  0.7818608E-02  0.1330823E+00
         -2   -1    0    0    0  501 -0.00000000000E+00  0.00000000000E+00  0.18174706237E+03  0.18174706239E+03  0.25500000000E-02 0.  1.
          1   -1    0    0  501    0  0.00000000000E+00 -0.00000000000E+00 -0.86673136193E+01  0.86673150846E+01  0.50400000000E-02 0. -1.
        -24    2    1    2    0    0  0.35527136788E-14  0.88817841970E-15  0.17307974875E+03  0.19041437747E+03  0.79379063491E+02 0.  0.
         66    2    3    3    0    0 -0.26046035328E+02  0.71315706441E+01  0.15628372702E+03  0.15861229002E+03  0.19999898946E+01 0.  0.
         13    1    3    3    0    0  0.26046035328E+02 -0.71315706441E+01  0.16796021735E+02  0.31802087452E+02  0.10566000000E+00 0. -1.
         13    1    4    4    0    0 -0.13101911079E+02  0.37118349314E+01  0.83494886073E+02  0.84598138022E+02  0.10566000000E+00 0. -1.
        -13    1    4    4    0    0 -0.48675808766E+01  0.16701890364E+01  0.27542376135E+02  0.28019217016E+02  0.10566000000E+00 0.  1.
        -14    1    4    4    0    0 -0.80765433721E+01  0.17495466763E+01  0.45246464809E+02  0.45994934983E+02  0.00000000000E+00 0.  1.
<mgrwt>
<rscale>  0 0.79379063E+02</rscale>
<asrwt>0</asrwt>
<pdfrwt beam="1">  1        1 0.13334330E-02 0.79379063E+02</pdfrwt>
<pdfrwt beam="2">  1       -2 0.27961086E-01 0.79379063E+02</pdfrwt>
<totfact> 0.90118927E+04</totfact>
</mgrwt>
</event>
<event>
 8    1  0.1372337E-020  0.8143960E+02  0.7818608E-02  0.1325015E+00
          1   -1    0    0  501    0  0.00000000000E+00  0.00000000000E+00  0.81624397671E+02  0.81624397827E+02  0.50400000000E-02 0. -1.
         -2   -1    0    0    0  501 -0.00000000000E+00 -0.00000000000E+00 -0.20313803046E+02  0.20313803206E+02  0.25500000000E-02 0.  1.
        -24    2    1    2    0    0  0.00000000000E+00 -0.22204460493E-15  0.61310594626E+02  0.10193820103E+03  0.81439596121E+02 0.  0.
         66    2    3    3    0    0 -0.24214954989E+02  0.11332966037E+01 -0.10240852368E+02  0.26391730981E+02  0.20000001615E+01 0.  0.
         13    1    3    3    0    0  0.24214954989E+02 -0.11332966037E+01  0.71551446993E+02  0.75546470051E+02  0.10566000000E+00 0. -1.
         13    1    4    4    0    0 -0.21200955882E+02  0.73919023610E+00 -0.90947481294E+01  0.23081432800E+02  0.10566000000E+00 0. -1.
        -13    1    4    4    0    0 -0.28548045437E+01  0.50858752544E+00 -0.11286018682E+01  0.31134348341E+01  0.10566000000E+00 0.  1.
         14    1    4    4    0    0 -0.15919456322E+00 -0.11448115787E+00 -0.17502370056E-01  0.19686334708E+00  0.00000000000E+00 0. -1.
<mgrwt>
<rscale>  0 0.81439596E+02</rscale>
<asrwt>0</asrwt>
<pdfrwt beam="1">  1        1 0.12557600E-01 0.81439596E+02</pdfrwt>
<pdfrwt beam="2">  1       -2 0.31252005E-02 0.81439596E+02</pdfrwt>
<totfact> 0.13541020E+05</totfact>
</mgrwt>
</event>
<event>
 8    1  0.1372337E-020  0.8001393E+02  0.7818608E-02  0.1329012E+00
          1   -1    0    0  501    0  0.00000000000E+00  0.00000000000E+00  0.30875607697E+03  0.30875607702E+03  0.50400000000E-02 0. -1.
         -2   -1    0    0    0  501 -0.00000000000E+00 -0.00000000000E+00 -0.51838884553E+01  0.51838890824E+01  0.25500000000E-02 0.  1.
        -24    2    1    2    0    0  0.00000000000E+00  0.00000000000E+00  0.30357218852E+03  0.31393996610E+03  0.80013927983E+02 0.  0.
         66    2    3    3    0    0 -0.39454815830E+02  0.51815706388E+01  0.13667410187E+03  0.14236341276E+03  0.20000005765E+01 0.  0.
         13    1    3    3    0    0  0.39454815830E+02 -0.51815706388E+01  0.16689808665E+03  0.17157655334E+03  0.10566000000E+00 0. -1.
         13    1    4    4    0    0 -0.46949876675E+01  0.40448953925E-01  0.15695484477E+02  0.16383038250E+02  0.10566000000E+00 0. -1.
        -13    1    4    4    0    0 -0.14812293958E+02  0.24918680391E+01  0.52426166452E+02  0.54535562264E+02  0.10566000000E+00 0.  1.
        -14    1    4    4    0    0 -0.19947534205E+02  0.26492536458E+01  0.68552450946E+02  0.71444812243E+02  0.00000000000E+00 0.  1.
<mgrwt>
<rscale>  0 0.80013928E+02</rscale>
<asrwt>0</asrwt>
<pdfrwt beam="1">  1        1 0.47500942E-01 0.80013928E+02</pdfrwt>
<pdfrwt beam="2">  1       -2 0.79752123E-03 0.80013928E+02</pdfrwt>
<totfact> 0.18131927E+05</totfact>
</mgrwt>
</event>
<event>
 8    1  0.1372337E-020  0.8080164E+02  0.7818608E-02  0.1326792E+00
          1   -1    0    0  501    0  0.00000000000E+00  0.00000000000E+00  0.44996550507E+01  0.44996578733E+01  0.50400000000E-02 0. -1.
         -2   -1    0    0    0  501 -0.00000000000E+00 -0.00000000000E+00 -0.36274463391E+03  0.36274463392E+03  0.25500000000E-02 0.  1.
        -24    2    1    2    0    0  0.22204460493E-15  0.00000000000E+00 -0.35824497886E+03  0.36724429179E+03  0.80801639687E+02 0.  0.
         66    2    3    3    0    0 -0.18418314770E+01 -0.19213811474E+02 -0.34041380750E+03  0.34096645454E+03  0.19999724439E+01 0.  0.
         13    1    3    3    0    0  0.18418314770E+01  0.19213811474E+02 -0.17831171354E+02  0.26277837248E+02  0.10566000000E+00 0. -1.
         13    1    4    4    0    0 -0.69847373910E+00 -0.71412948621E+01 -0.12851913574E+03  0.12871932789E+03  0.10566000000E+00 0.  1.
        -13    1    4    4    0    0 -0.12743507243E+01 -0.95289310243E+01 -0.17580198944E+03  0.17606469024E+03  0.10566000000E+00 0.  1.
        -14    1    4    4    0    0  0.13099298641E+00 -0.25435855873E+01 -0.36092682330E+02  0.36182436410E+02  0.00000000000E+00 0.  1.
<mgrwt>
<rscale>  0 0.80801640E+02</rscale>
<asrwt>0</asrwt>
<pdfrwt beam="1">  1        1 0.69225513E-03 0.80801640E+02</pdfrwt>
<pdfrwt beam="2">  1       -2 0.55806844E-01 0.80801640E+02</pdfrwt>
<totfact> 0.61317541E+04</totfact>
</mgrwt>
</event>
<event>
 8    1  0.1372337E-020  0.8012788E+02  0.7818608E-02  0.1328689E+00
          1   -1    0    0  501    0  0.00000000000E+00  0.00000000000E+00  0.16398984336E+03  0.16398984344E+03  0.50400000000E-02 0. -1.
         -2   -1    0    0    0  501 -0.00000000000E+00 -0.00000000000E+00 -0.97879180811E+01  0.97879184133E+01  0.25500000000E-02 0.  1.
        -24    2    1    2    0    0  0.00000000000E+00  0.35527136788E-14  0.15420192528E+03  0.17377776185E+03  0.80127877509E+02 0.  0.
         66    2    3    3    0    0 -0.52348273119E+01 -0.24201053142E+02  0.89098859742E+01  0.26390916306E+02  0.20000013070E+01 0.  0.
         13    1    3    3    0    0  0.52348273119E+01  0.24201053142E+02  0.14529203930E+03  0.14738684554E+03  0.10566000000E+00 0. -1.
         13    1    4    4    0    0  0.50659075553E-01 -0.51741509256E+00  0.29938403335E+00  0.60916299541E+00  0.10566000000E+00 0. -1.
        -13    1    4    4    0    0 -0.39316042149E+01 -0.15789267131E+02  0.62599007241E+01  0.17434333636E+02  0.10566000000E+00 0.  1.
        -14    1    4    4    0    0 -0.13538821725E+01 -0.78943709188E+01  0.23506012168E+01  0.83474196745E+01  0.00000000000E+00 0.  1.
<mgrwt>
<rscale>  0 0.80127878E+02</rscale>
<asrwt>0</asrwt>
<pdfrwt beam="1">  1        1 0.25229207E-01 0.80127878E+02</pdfrwt>
<pdfrwt beam="2">  1       -2 0.15058335E-02 0.80127878E+02</pdfrwt>
<totfact> 0.15984446E+05</totfact>
</mgrwt>
</event>
<event>
 8    1  0.1372337E-020  0.8009853E+02  0.7818608E-02  0.1328772E+00
          1   -1    0    0  501    0  0.00000000000E+00  0.00000000000E+00  0.16833902462E+03  0.16833902470E+03  0.50400000000E-02 0. -1.
         -2   -1    0    0    0  501 -0.00000000000E+00 -0.00000000000E+00 -0.95280559263E+01  0.95280562675E+01  0.25500000000E-02 0.  1.
        -24    2    1    2    0    0 -0.35527136788E-14  0.71054273576E-14  0.15881096869E+03  0.17786708096E+03  0.80098531278E+02 0.  0.
         66    2    3    3    0    0 -0.22394316877E+02 -0.32127367711E+02  0.61107569165E+02  0.72607218585E+02  0.19999992249E+01 0.  0.
         13    1    3    3    0    0  0.22394316877E+02  0.32127367711E+02  0.97703399529E+02  0.10525986238E+03  0.10566000000E+00 0. -1.
         13    1    4    4    0    0 -0.30276384485E+01 -0.36858740653E+01  0.76936337888E+01  0.90529236776E+01  0.10566000000E+00 0. -1.
        -13    1    4    4    0    0 -0.32313623998E+01 -0.40760878006E+01  0.74485971414E+01  0.90856457188E+01  0.10566000000E+00 0. -1.
        -14    1    4    4    0    0 -0.16135316029E+02 -0.24365405845E+02  0.45965338235E+02  0.54468649188E+02  0.00000000000E+00 0.  1.
<mgrwt>
<rscale>  0 0.80098531E+02</rscale>
<asrwt>0</asrwt>
<pdfrwt beam="1">  1        1 0.25898312E-01 0.80098531E+02</pdfrwt>
<pdfrwt beam="2">  1       -2 0.14658547E-02 0.80098531E+02</pdfrwt>
<totfact> 0.16079084E+05</totfact>
</mgrwt>
</event>
<event>
 8    1  0.1372337E-020  0.8029766E+02  0.7818608E-02  0.1328209E+00
          1   -1    0    0  501    0  0.00000000000E+00  0.00000000000E+00  0.38613669040E+02  0.38613669368E+02  0.50400000000E-02 0. -1.
         -2   -1    0    0    0  501 -0.00000000000E+00 -0.00000000000E+00 -0.41745026397E+02  0.41745026475E+02  0.25500000000E-02 0.  1.
        -24    2    1    2    0    0  0.71054273576E-14  0.00000000000E+00 -0.31313573571E+01  0.80358695843E+02  0.80297662473E+02 0.  0.
         66    2    3    3    0    0  0.36059071212E+02  0.11818068641E+02 -0.14614974686E+02  0.40712662068E+02  0.20000011215E+01 0.  0.
         13    1    3    3    0    0 -0.36059071212E+02 -0.11818068641E+02  0.11483617329E+02  0.39646033775E+02  0.10566000000E+00 0. -1.
         13    1    4    4    0    0  0.43795533348E+01  0.16658553720E+01 -0.22036327251E+01  0.51790658188E+01  0.10566000000E+00 0. -1.
        -13    1    4    4    0    0  0.10919334643E+02  0.36071803836E+01 -0.49853312444E+01  0.12534285421E+02  0.10566000000E+00 0.  1.
        -14    1    4    4    0    0  0.20760183234E+02  0.65450328853E+01 -0.74260107161E+01  0.22999310828E+02  0.00000000000E+00 0.  1.
<mgrwt>
<rscale>  0 0.80297662E+02</rscale>
<asrwt>0</asrwt>
<pdfrwt beam="1">  1        1 0.59405645E-02 0.80297662E+02</pdfrwt>
<pdfrwt beam="2">  1       -2 0.64223118E-02 0.80297662E+02</pdfrwt>
<totfact> 0.12492914E+05</totfact>
</mgrwt>
</event>
<event>
 8    1  0.1372337E-020  0.8541650E+02  0.7818608E-02  0.1314347E+00
          1   -1    0    0  501    0  0.00000000000E+00  0.00000000000E+00  0.40513922053E+02  0.40513922367E+02  0.50400000000E-02 0. -1.
         -2   -1    0    0    0  501 -0.00000000000E+00 -0.00000000000E+00 -0.45021430997E+02  0.45021431069E+02  0.25500000000E-02 0.  1.
        -24    2    1    2    0    0  0.00000000000E+00  0.00000000000E+00 -0.45075089436E+01  0.85535353436E+02  0.85416503385E+02 0.  0.
         66    2    3    3    0    0 -0.27521252245E+02  0.23558468738E+02 -0.24860029973E+02  0.43982290364E+02  0.20000002610E+01 0.  0.
         13    1    3    3    0    0  0.27521252245E+02 -0.23558468738E+02  0.20352521029E+02  0.41553063072E+02  0.10566000000E+00 0. -1.
         13    1    4    4    0    0 -0.84163330871E+01  0.77970979581E+01 -0.75155273072E+01  0.13715819842E+02  0.10566000000E+00 0. -1.
        -13    1    4    4    0    0 -0.93949343149E+01  0.79510959686E+01 -0.78255494234E+01  0.14585441567E+02  0.10566000000E+00 0.  1.
         14    1    4    4    0    0 -0.97099848426E+01  0.78102748114E+01 -0.95189532419E+01  0.15681028955E+02  0.00000000000E+00 0. -1.
<mgrwt>
<rscale>  0 0.85416503E+02</rscale>
<asrwt>0</asrwt>
<pdfrwt beam="1">  1        1 0.62329111E-02 0.85416503E+02</pdfrwt>
<pdfrwt beam="2">  1       -2 0.69263740E-02 0.85416503E+02</pdfrwt>
<totfact> 0.10568330E+05</totfact>
</mgrwt>
</event>
<event>
 8    1  0.1372337E-020  0.8013896E+02  0.7818608E-02  0.1328658E+00
          1   -1    0    0  501    0  0.00000000000E+00  0.00000000000E+00  0.36126969391E+02  0.36126969742E+02  0.50400000000E-02 0. -1.
         -2   -1    0    0    0  501 -0.00000000000E+00 -0.00000000000E+00 -0.44442231689E+02  0.44442231762E+02  0.25500000000E-02 0.  1.
        -24    2    1    2    0    0  0.00000000000E+00  0.00000000000E+00 -0.83152622984E+01  0.80569201505E+02  0.80138958341E+02 0.  0.
         66    2    3    3    0    0  0.12371605566E+02 -0.27023146988E+02 -0.31141790722E+02  0.43094294416E+02  0.19999961153E+01 0.  0.
         13    1    3    3    0    0 -0.12371605566E+02  0.27023146988E+02  0.22826528423E+02  0.37474907089E+02  0.10566000000E+00 0. -1.
         13    1    4    4    0    0  0.67415020445E+01 -0.13638228158E+02 -0.15652338169E+02  0.21827871433E+02  0.10566000000E+00 0. -1.
        -13    1    4    4    0    0  0.46681940069E+01 -0.98660613481E+01 -0.11921704257E+02  0.16163829937E+02  0.10566000000E+00 0.  1.
         14    1    4    4    0    0  0.96190951504E+00 -0.35188574815E+01 -0.35677482953E+01  0.51025930456E+01  0.00000000000E+00 0. -1.
<mgrwt>
<rscale>  0 0.80138958E+02</rscale>
<asrwt>0</asrwt>
<pdfrwt beam="1">  1        1 0.55579953E-02 0.80138958E+02</pdfrwt>
<pdfrwt beam="2">  1       -2 0.68372664E-02 0.80138958E+02</pdfrwt>
<totfact> 0.12425254E+05</totfact>
</mgrwt>
</event>
<event>
 8    1  0.1372337E-020  0.8185216E+02  0.7818608E-02  0.1323876E+00
          1   -1    0    0  501    0  0.00000000000E+00  0.00000000000E+00  0.50301846168E+02  0.50301846421E+02  0.50400000000E-02 0. -1.
         -2   -1    0    0    0  501 -0.00000000000E+00 -0.00000000000E+00 -0.33297866794E+02  0.33297866892E+02  0.25500000000E-02 0.  1.
        -24    2    1    2    0    0 -0.35527136788E-14  0.00000000000E+00  0.17003979374E+02  0.83599713313E+02  0.81852163999E+02 0.  0.
         66    2    3    3    0    0 -0.27185451196E+02  0.30176953428E+02  0.13430967941E+02  0.42826255651E+02  0.19999995706E+01 0.  0.
         13    1    3    3    0    0  0.27185451196E+02 -0.30176953428E+02  0.35730114331E+01  0.40773457662E+02  0.10566000000E+00 0. -1.
         13    1    4    4    0    0 -0.20805890066E+01  0.19255908027E+01  0.77860255820E+00  0.29417913816E+01  0.10566000000E+00 0. -1.
        -13    1    4    4    0    0 -0.21832505184E+02  0.23914057070E+02  0.11150829431E+02  0.34247519169E+02  0.10566000000E+00 0.  1.
        -14    1    4    4    0    0 -0.32723570051E+01  0.43373055553E+01  0.15015359525E+01  0.56369451005E+01  0.00000000000E+00 0.  1.
<mgrwt>
<rscale>  0 0.81852164E+02</rscale>
<asrwt>0</asrwt>
<pdfrwt beam="1">  1        1 0.77387456E-02 0.81852164E+02</pdfrwt>
<pdfrwt beam="2">  1       -2 0.51227488E-02 0.81852164E+02</pdfrwt>
<totfact> 0.12355946E+05</totfact>
</mgrwt>
</event>
<event>
 8    1  0.1372337E-020  0.8108756E+02  0.7818608E-02  0.1325993E+00
          1   -1    0    0  501    0  0.00000000000E+00  0.00000000000E+00  0.10796112364E+03  0.10796112375E+03  0.50400000000E-02 0. -1.
         -2   -1    0    0    0  501 -0.00000000000E+00 -0.00000000000E+00 -0.15225832345E+02  0.15225832558E+02  0.25500000000E-02 0.  1.
        -24    2    1    2    0    0  0.00000000000E+00  0.00000000000E+00  0.92735291291E+02  0.12318695631E+03  0.81087557334E+02 0.  0.
         66    2    3    3    0    0  0.16397173812E+02  0.33001819069E+02  0.20802785431E+02  0.42364410359E+02  0.20000031303E+01 0.  0.
         13    1    3    3    0    0 -0.16397173812E+02 -0.33001819069E+02  0.71932505860E+02  0.80822545952E+02  0.10566000000E+00 0. -1.
         13    1    4    4    0    0  0.23762454374E+01  0.51681788482E+01  0.38720884023E+01  0.68819217967E+01  0.10566000000E+00 0. -1.
        -13    1    4    4    0    0  0.82859050692E+01  0.16824982482E+02  0.10721246911E+02  0.21603068248E+02  0.10566000000E+00 0.  1.
        -14    1    4    4    0    0  0.57350233052E+01  0.11008657739E+02  0.62094501172E+01  0.13879420315E+02  0.00000000000E+00 0.  1.
<mgrwt>
<rscale>  0 0.81087557E+02</rscale>
<asrwt>0</asrwt>
<pdfrwt beam="1">  1        1 0.16609404E-01 0.81087557E+02</pdfrwt>
<pdfrwt beam="2">  1       -2 0.23424357E-02 0.81087557E+02</pdfrwt>
<totfact> 0.14358484E+05</totfact>
</mgrwt>
</event>
<event>
 8    1  0.1372337E-020  0.8061884E+02  0.7818608E-02  0.1327304E+00
         -2   -1    0    0    0  501 -0.00000000000E+00  0.00000000000E+00  0.15997359432E+03  0.15997359434E+03  0.25500000000E-02 0.  1.
          1   -1    0    0  501    0  0.00000000000E+00 -0.00000000000E+00 -0.10156983682E+02  0.10156984932E+02  0.50400000000E-02 0. -1.
        -24    2    1    2    0    0  0.00000000000E+00 -0.17763568394E-14  0.14981661063E+03  0.17013057927E+03  0.80618838867E+02 0.  0.
         66    2    3    3    0    0 -0.54256730098E+01  0.12128322209E+02  0.15521010382E+03  0.15579059810E+03  0.19999999320E+01 0.  0.
         13    1    3    3    0    0  0.54256730098E+01 -0.12128322209E+02 -0.53934931872E+01  0.14339981172E+02  0.10566000000E+00 0. -1.
         13    1    4    4    0    0 -0.45091250732E+01  0.87152749991E+01  0.11024794866E+03  0.11068382707E+03  0.10566000000E+00 0. -1.
        -13    1    4    4    0    0 -0.88347316909E+00  0.23815306506E+01  0.28964218454E+02  0.29075579577E+02  0.10566000000E+00 0.  1.
         14    1    4    4    0    0 -0.33074767514E-01  0.10315165596E+01  0.15997936703E+02  0.16031191444E+02  0.00000000000E+00 0. -1.
<mgrwt>
<rscale>  0 0.80618839E+02</rscale>
<asrwt>0</asrwt>
<pdfrwt beam="1">  1        1 0.15626130E-02 0.80618839E+02</pdfrwt>
<pdfrwt beam="2">  1       -2 0.24611322E-01 0.80618839E+02</pdfrwt>
<totfact> 0.90668901E+04</totfact>
</mgrwt>
</event>
<event>
 8    1  0.1372337E-020  0.7869820E+02  0.7818608E-02  0.1332787E+00
         -2   -1    0    0    0  501 -0.00000000000E+00  0.00000000000E+00  0.12674785702E+02  0.12674785959E+02  0.25500000000E-02 0.  1.
          1   -1    0    0  501    0  0.00000000000E+00 -0.00000000000E+00 -0.12215998806E+03  0.12215998816E+03  0.50400000000E-02 0. -1.
        -24    2    1    2    0    0  0.00000000000E+00  0.00000000000E+00 -0.10948520235E+03  0.13483477412E+03  0.78698200597E+02 0.  0.
         66    2    3    3    0    0  0.34461363640E+02 -0.94193230724E+01 -0.82932445240E+02  0.90322199430E+02  0.20000013156E+01 0.  0.
         13    1    3    3    0    0 -0.34461363640E+02  0.94193230724E+01 -0.26552757114E+02  0.44512574689E+02  0.10566000000E+00 0. -1.
         13    1    4    4    0    0  0.72775421937E+01 -0.19255584047E+01 -0.18236025221E+02  0.19729018613E+02  0.10566000000E+00 0. -1.
        -13    1    4    4    0    0  0.24990622523E+02 -0.70501627655E+01 -0.60515316243E+02  0.65850973213E+02  0.10566000000E+00 0.  1.
        -14    1    4    4    0    0  0.21931989235E+01 -0.44360190211E+00 -0.41811037765E+01  0.47422076036E+01  0.00000000000E+00 0.  1.
<mgrwt>
<rscale>  0 0.78698201E+02</rscale>
<asrwt>0</asrwt>
<pdfrwt beam="1">  1        1 0.18793844E-01 0.78698201E+02</pdfrwt>
<pdfrwt beam="2">  1       -2 0.19499671E-02 0.78698201E+02</pdfrwt>
<totfact> 0.15898810E+05</totfact>
</mgrwt>
</event>
<event>
 8    1  0.1372337E-020  0.8037620E+02  0.7818608E-02  0.1327987E+00
          1   -1    0    0  501    0  0.00000000000E+00  0.00000000000E+00  0.30438344198E+02  0.30438344615E+02  0.50400000000E-02 0. -1.
         -2   -1    0    0    0  501 -0.00000000000E+00 -0.00000000000E+00 -0.53060813353E+02  0.53060813414E+02  0.25500000000E-02 0.  1.
        -24    2    1    2    0    0  0.00000000000E+00  0.17763568394E-14 -0.22622469155E+02  0.83499158029E+02  0.80376198473E+02 0.  0.
         66    2    3    3    0    0  0.38446767466E+02 -0.11358095063E+02 -0.87909818599E+01  0.41090651137E+02  0.19999991887E+01 0.  0.
         13    1    3    3    0    0 -0.38446767466E+02  0.11358095063E+02 -0.13831487295E+02  0.42408506893E+02  0.10566000000E+00 0. -1.
         13    1    4    4    0    0  0.17586682396E+02 -0.60708802626E+01 -0.36066812974E+01  0.18951683273E+02  0.10566000000E+00 0. -1.
        -13    1    4    4    0    0  0.18627063465E+02 -0.47283300413E+01 -0.45075547361E+01  0.19739650758E+02  0.10566000000E+00 0.  1.
        -14    1    4    4    0    0  0.22330216046E+01 -0.55888475872E+00 -0.67674582632E+00  0.23993171057E+01  0.00000000000E+00 0.  1.
<mgrwt>
<rscale>  0 0.80376198E+02</rscale>
<asrwt>0</asrwt>
<pdfrwt beam="1">  1        1 0.46828222E-02 0.80376198E+02</pdfrwt>
<pdfrwt beam="2">  1       -2 0.81632021E-02 0.80376198E+02</pdfrwt>
<totfact> 0.11963522E+05</totfact>
</mgrwt>
</event>
<event>
 8    1  0.1372337E-020  0.7992799E+02  0.7818608E-02  0.1329256E+00
         -2   -1    0    0    0  501 -0.00000000000E+00  0.00000000000E+00  0.24638082801E+02  0.24638082933E+02  0.25500000000E-02 0.  1.
          1   -1    0    0  501    0  0.00000000000E+00 -0.00000000000E+00 -0.64823269080E+02  0.64823269276E+02  0.50400000000E-02 0. -1.
        -24    2    1    2    0    0  0.00000000000E+00  0.88817841970E-15 -0.40185186279E+02  0.89461352209E+02  0.79927994738E+02 0.  0.
         66    2    3    3    0    0  0.33099885972E+02  0.70769159472E+01  0.36232378693E+01  0.34100044592E+02  0.19999994636E+01 0.  0.
         13    1    3    3    0    0 -0.33099885972E+02 -0.70769159472E+01 -0.43808424149E+02  0.55361307617E+02  0.10566000000E+00 0. -1.
         13    1    4    4    0    0  0.86654986518E+01  0.17203430088E+01  0.90335414945E+00  0.88813095717E+01  0.10566000000E+00 0. -1.
        -13    1    4    4    0    0  0.21966097537E+01  0.82592317704E+00 -0.89873189188E-01  0.23508476620E+01  0.10566000000E+00 0.  1.
        -14    1    4    4    0    0  0.22237777566E+02  0.45306497614E+01  0.28097569091E+01  0.22867887358E+02  0.00000000000E+00 0.  1.
<mgrwt>
<rscale>  0 0.79927995E+02</rscale>
<asrwt>0</asrwt>
<pdfrwt beam="1">  1        1 0.99728106E-02 0.79927995E+02</pdfrwt>
<pdfrwt beam="2">  1       -2 0.37904743E-02 0.79927995E+02</pdfrwt>
<totfact> 0.13737547E+05</totfact>
</mgrwt>
</event>
<event>
 8    1  0.1372337E-020  0.8072158E+02  0.7818608E-02  0.1327016E+00
          1   -1    0    0  501    0  0.00000000000E+00  0.00000000000E+00  0.61470275219E+01  0.61470295881E+01  0.50400000000E-02 0. -1.
         -2   -1    0    0    0  501 -0.00000000000E+00 -0.00000000000E+00 -0.26500499509E+03  0.26500499510E+03  0.25500000000E-02 0.  1.
        -24    2    1    2    0    0  0.00000000000E+00  0.00000000000E+00 -0.25885796757E+03  0.27115202469E+03  0.80721577786E+02 0.  0.
         66    2    3    3    0    0 -0.37882451750E+02 -0.10930970342E+02 -0.15809455864E+03  0.16294924282E+03  0.19999996400E+01 0.  0.
         13    1    3    3    0    0  0.37882451750E+02  0.10930970342E+02 -0.10076340893E+03  0.10820278188E+03  0.10566000000E+00 0. -1.
         13    1    4    4    0    0 -0.11681013600E+02 -0.42934954301E+01 -0.49390297333E+02  0.50934200852E+02  0.10566000000E+00 0.  1.
        -13    1    4    4    0    0 -0.60431201993E+01 -0.16283109180E+01 -0.24671119463E+02  0.25452819054E+02  0.10566000000E+00 0.  1.
         14    1    4    4    0    0 -0.20158317950E+02 -0.50091639936E+01 -0.84033141847E+02  0.86562222910E+02  0.00000000000E+00 0. -1.
<mgrwt>
<rscale>  0 0.80721578E+02</rscale>
<asrwt>0</asrwt>
<pdfrwt beam="1">  1        1 0.94569691E-03 0.80721578E+02</pdfrwt>
<pdfrwt beam="2">  1       -2 0.40769990E-01 0.80721578E+02</pdfrwt>
<totfact> 0.73237180E+04</totfact>
</mgrwt>
</event>
<event>
 8    1  0.1372337E-020  0.7896165E+02  0.7818608E-02  0.1332024E+00
         -2   -1    0    0    0  501 -0.00000000000E+00  0.00000000000E+00  0.19278476861E+03  0.19278476863E+03  0.25500000000E-02 0.  1.
          1   -1    0    0  501    0  0.00000000000E+00 -0.00000000000E+00 -0.80853656468E+01  0.80853672176E+01  0.50400000000E-02 0. -1.
        -24    2    1    2    0    0  0.00000000000E+00  0.71054273576E-14  0.18469940296E+03  0.20087013584E+03  0.78961649041E+02 0.  0.
         66    2    3    3    0    0 -0.13828039408E+02 -0.36931681332E+02  0.89224538970E+02  0.97571420565E+02  0.19999991888E+01 0.  0.
         13    1    3    3    0    0  0.13828039408E+02  0.36931681332E+02  0.95474863994E+02  0.10329871528E+03  0.10566000000E+00 0. -1.
         13    1    4    4    0    0 -0.24345499146E+01 -0.60934975082E+01  0.15869790985E+02  0.17173210973E+02  0.10566000000E+00 0. -1.
        -13    1    4    4    0    0 -0.90641534137E+01 -0.22698898524E+02  0.54617993316E+02  0.59837573724E+02  0.10566000000E+00 0.  1.
         14    1    4    4    0    0 -0.23293360793E+01 -0.81392852996E+01  0.18736754669E+02  0.20560635868E+02  0.00000000000E+00 0. -1.
<mgrwt>
<rscale>  0 0.78961649E+02</rscale>
<asrwt>0</asrwt>
<pdfrwt beam="1">  1        1 0.12439025E-02 0.78961649E+02</pdfrwt>
<pdfrwt beam="2">  1       -2 0.29659196E-01 0.78961649E+02</pdfrwt>
<totfact> 0.89293792E+04</totfact>
</mgrwt>
</event>
<event>
 8    1  0.1372337E-020  0.7908666E+02  0.7818608E-02  0.1331664E+00
         -2   -1    0    0    0  501 -0.00000000000E+00  0.00000000000E+00  0.57638500006E+03  0.57638500006E+03  0.25500000000E-02 0.  1.
          1   -1    0    0  501    0  0.00000000000E+00 -0.00000000000E+00 -0.27128978871E+01  0.27129025688E+01  0.50400000000E-02 0. -1.
        -24    2    1    2    0    0  0.00000000000E+00  0.17763568394E-14  0.57367210217E+03  0.57909790263E+03  0.79086661480E+02 0.  0.
         66    2    3    3    0    0 -0.21289569632E+02 -0.13858681489E+02  0.50867630891E+03  0.50931414282E+03  0.20000009812E+01 0.  0.
         13    1    3    3    0    0  0.21289569632E+02  0.13858681489E+02  0.64995793261E+02  0.69783759811E+02  0.10566000000E+00 0. -1.
         13    1    4    4    0    0 -0.85766257236E+01 -0.60067837317E+01  0.22255604072E+03  0.22280224951E+03  0.10566000000E+00 0. -1.
        -13    1    4    4    0    0 -0.75604705814E+01 -0.48829993799E+01  0.18071426687E+03  0.18093828178E+03  0.10566000000E+00 0.  1.
        -14    1    4    4    0    0 -0.51524733267E+01 -0.29688983773E+01  0.10540600131E+03  0.10557361153E+03  0.00000000000E+00 0.  1.
<mgrwt>
<rscale>  0 0.79086661E+02</rscale>
<asrwt>0</asrwt>
<pdfrwt beam="1">  1        1 0.41736946E-03 0.79086661E+02</pdfrwt>
<pdfrwt beam="2">  1       -2 0.88674575E-01 0.79086661E+02</pdfrwt>
<totfact> 0.46320093E+04</totfact>
</mgrwt>
</event>
<event>
 8    1  0.1372337E-020  0.8238784E+02  0.7818608E-02  0.1322408E+00
          1   -1    0    0  501    0  0.00000000000E+00  0.00000000000E+00  0.10529557161E+03  0.10529557173E+03  0.50400000000E-02 0. -1.
         -2   -1    0    0    0  501 -0.00000000000E+00 -0.00000000000E+00 -0.16115957845E+02  0.16115958046E+02  0.25500000000E-02 0.  1.
        -24    2    1    2    0    0  0.00000000000E+00  0.00000000000E+00  0.89179613762E+02  0.12141152977E+03  0.82387839220E+02 0.  0.
         66    2    3    3    0    0  0.34569974658E+02 -0.16573421439E+02  0.22502659227E+02  0.44498664295E+02  0.20000014430E+01 0.  0.
         13    1    3    3    0    0 -0.34569974658E+02  0.16573421439E+02  0.66676954536E+02  0.76912865479E+02  0.10566000000E+00 0. -1.
         13    1    4    4    0    0  0.10940864577E+02 -0.51232328349E+01  0.64864847873E+01  0.13712610302E+02  0.10566000000E+00 0. -1.
        -13    1    4    4    0    0  0.46318241002E+01 -0.18760800372E+01  0.25838167804E+01  0.56267880706E+01  0.10566000000E+00 0.  1.
        -14    1    4    4    0    0  0.18997285980E+02 -0.95741085665E+01  0.13432357659E+02  0.25159265922E+02  0.00000000000E+00 0.  1.
<mgrwt>
<rscale>  0 0.82387839E+02</rscale>
<asrwt>0</asrwt>
<pdfrwt beam="1">  1        1 0.16199319E-01 0.82387839E+02</pdfrwt>
<pdfrwt beam="2">  1       -2 0.24793782E-02 0.82387839E+02</pdfrwt>
<totfact> 0.13694623E+05</totfact>
</mgrwt>
</event>
<event>
 8    1  0.1372337E-020  0.7961526E+02  0.7818608E-02  0.1330147E+00
         -2   -1    0    0    0  501 -0.00000000000E+00  0.00000000000E+00  0.23289841781E+03  0.23289841782E+03  0.25500000000E-02 0.  1.
          1   -1    0    0  501    0  0.00000000000E+00 -0.00000000000E+00 -0.68040278881E+01  0.68040297547E+01  0.50400000000E-02 0. -1.
        -24    2    1    2    0    0  0.00000000000E+00  0.00000000000E+00  0.22609438992E+03  0.23970244758E+03  0.79615263744E+02 0.  0.
         66    2    3    3    0    0 -0.28277568770E+02 -0.19336277975E+02  0.17401686710E+03  0.17736792995E+03  0.19999989437E+01 0.  0.
         13    1    3    3    0    0  0.28277568770E+02  0.19336277975E+02  0.52077522820E+02  0.62334517633E+02  0.10566000000E+00 0. -1.
         13    1    4    4    0    0 -0.10557204366E+02 -0.71019091148E+01  0.63984229374E+02  0.65237140110E+02  0.10566000000E+00 0. -1.
        -13    1    4    4    0    0 -0.17142092116E+02 -0.11453930058E+02  0.10538253326E+03  0.10738032090E+03  0.10566000000E+00 0.  1.
         14    1    4    4    0    0 -0.57827228805E+00 -0.78043880276E+00  0.46501044684E+01  0.47504689380E+01  0.00000000000E+00 0. -1.
<mgrwt>
<rscale>  0 0.79615264E+02</rscale>
<asrwt>0</asrwt>
<pdfrwt beam="1">  1        1 0.10467736E-02 0.79615264E+02</pdfrwt>
<pdfrwt beam="2">  1       -2 0.35830530E-01 0.79615264E+02</pdfrwt>
<totfact> 0.80695002E+04</totfact>
</mgrwt>
</event>
<event>
 8    1  0.1372337E-020  0.7814476E+02  0.7818608E-02  0.1334400E+00
          1   -1    0    0  501    0  0.00000000000E+00  0.00000000000E+00  0.58424497052E+02  0.58424497270E+02  0.50400000000E-02 0. -1.
         -2   -1    0    0    0  501 -0.00000000000E+00 -0.00000000000E+00 -0.26130318323E+02  0.26130318448E+02  0.25500000000E-02 0.  1.
        -24    2    1    2    0    0  0.00000000000E+00 -0.17763568394E-14  0.32294178729E+02  0.84554815717E+02  0.78144755942E+02 0.  0.
         66    2    3    3    0    0 -0.24227868902E+02 -0.75937089035E+01 -0.15940351111E+02  0.30045779041E+02  0.19999995406E+01 0.  0.
         13    1    3    3    0    0  0.24227868902E+02  0.75937089035E+01  0.48234529840E+02  0.54509036676E+02  0.10566000000E+00 0. -1.
         13    1    4    4    0    0 -0.45703851368E+01 -0.15202565656E+01 -0.25796199194E+01  0.54649065214E+01  0.10566000000E+00 0. -1.
        -13    1    4    4    0    0 -0.37207336933E+01 -0.53235710264E+00 -0.24579940392E+01  0.44922335239E+01  0.10566000000E+00 0.  1.
        -14    1    4    4    0    0 -0.15936750072E+02 -0.55410952353E+01 -0.10902737153E+02  0.20088638996E+02  0.00000000000E+00 0.  1.
<mgrwt>
<rscale>  0 0.78144756E+02</rscale>
<asrwt>0</asrwt>
<pdfrwt beam="1">  1        1 0.89883841E-02 0.78144756E+02</pdfrwt>
<pdfrwt beam="2">  1       -2 0.40200490E-02 0.78144756E+02</pdfrwt>
<totfact> 0.14382388E+05</totfact>
</mgrwt>
</event>
<event>
 8    1  0.1372337E-020  0.8245469E+02  0.7818608E-02  0.1322226E+00
          1   -1    0    0  501    0  0.00000000000E+00  0.00000000000E+00  0.73415654958E+02  0.73415655131E+02  0.50400000000E-02 0. -1.
         -2   -1    0    0    0  501 -0.00000000000E+00 -0.00000000000E+00 -0.23151653742E+02  0.23151653882E+02  0.25500000000E-02 0.  1.
        -24    2    1    2    0    0 -0.71054273576E-14  0.44408920985E-15  0.50264001216E+02  0.96567309013E+02  0.82454686658E+02 0.  0.
         66    2    3    3    0    0  0.34350397745E+02 -0.28282673364E+01 -0.12949383163E+01  0.34548889724E+02  0.19999986296E+01 0.  0.
         13    1    3    3    0    0 -0.34350397745E+02  0.28282673364E+01  0.51558939532E+02  0.62018419289E+02  0.10566000000E+00 0. -1.
         13    1    4    4    0    0  0.23515771536E+01 -0.51473975334E-03 -0.42437858837E+00  0.23918981158E+01  0.10566000000E+00 0. -1.
        -13    1    4    4    0    0  0.10362596917E+02 -0.12024549723E+01 -0.74826547389E+00  0.10459463565E+02  0.10566000000E+00 0.  1.
        -14    1    4    4    0    0  0.21636223675E+02 -0.16252976244E+01 -0.12229425400E+00  0.21697528043E+02  0.00000000000E+00 0.  1.
<mgrwt>
<rscale>  0 0.82454687E+02</rscale>
<asrwt>0</asrwt>
<pdfrwt beam="1">  1        1 0.11294716E-01 0.82454687E+02</pdfrwt>
<pdfrwt beam="2">  1       -2 0.35617929E-02 0.82454687E+02</pdfrwt>
<totfact> 0.12865597E+05</totfact>
</mgrwt>
</event>
<event>
 8    1  0.1372337E-020  0.8032422E+02  0.7818608E-02  0.1328134E+00
         -2   -1    0    0    0  501 -0.00000000000E+00  0.00000000000E+00  0.10894681754E+03  0.10894681757E+03  0.25500000000E-02 0.  1.
          1   -1    0    0  501    0  0.00000000000E+00 -0.00000000000E+00 -0.14805342595E+02  0.14805343453E+02  0.50400000000E-02 0. -1.
        -24    2    1    2    0    0  0.00000000000E+00  0.00000000000E+00  0.94141474943E+02  0.12375216102E+03  0.80324218345E+02 0.  0.
         66    2    3    3    0    0 -0.22968147050E+02  0.29380013356E+02  0.24234213593E+02  0.44519861311E+02  0.19999947368E+01 0.  0.
         13    1    3    3    0    0  0.22968147050E+02 -0.29380013356E+02  0.69907261351E+02  0.79232299710E+02  0.10566000000E+00 0. -1.
         13    1    4    4    0    0 -0.72645439995E+01  0.88068490998E+01  0.80866693658E+01  0.13990696053E+02  0.10566000000E+00 0. -1.
        -13    1    4    4    0    0 -0.40462503406E+01  0.47415785299E+01  0.43291340087E+01  0.75899455911E+01  0.10566000000E+00 0.  1.
        -14    1    4    4    0    0 -0.11657352710E+02  0.15831585726E+02  0.11818410218E+02  0.22939219666E+02  0.00000000000E+00 0.  1.
<mgrwt>
<rscale>  0 0.80324218E+02</rscale>
<asrwt>0</asrwt>
<pdfrwt beam="1">  1        1 0.22777451E-02 0.80324218E+02</pdfrwt>
<pdfrwt beam="2">  1       -2 0.16761049E-01 0.80324218E+02</pdfrwt>
<totfact> 0.10276018E+05</totfact>
</mgrwt>
</event>
<event>
 8    1  0.1372337E-020  0.7928462E+02  0.7818608E-02  0.1331094E+00
          1   -1    0    0  501    0  0.00000000000E+00  0.00000000000E+00  0.34626959116E+02  0.34626959483E+02  0.50400000000E-02 0. -1.
         -2   -1    0    0    0  501 -0.00000000000E+00 -0.00000000000E+00 -0.45384077573E+02  0.45384077645E+02  0.25500000000E-02 0.  1.
        -24    2    1    2    0    0  0.00000000000E+00  0.00000000000E+00 -0.10757118457E+02  0.80011037128E+02  0.79284616823E+02 0.  0.
         66    2    3    3    0    0  0.29511654272E+02  0.25077990977E+02 -0.13804958739E+02  0.41163336246E+02  0.19999989499E+01 0.  0.
         13    1    3    3    0    0 -0.29511654272E+02 -0.25077990977E+02  0.30478402825E+01  0.38847700881E+02  0.10566000000E+00 0. -1.
         13    1    4    4    0    0  0.10611658326E+02  0.82002713915E+01 -0.44831849720E+01  0.14140786925E+02  0.10566000000E+00 0. -1.
        -13    1    4    4    0    0  0.87671826201E+01  0.82285605860E+01 -0.39246483513E+01  0.12648586053E+02  0.10566000000E+00 0.  1.
        -14    1    4    4    0    0  0.10132813326E+02  0.86491589999E+01 -0.53971254160E+01  0.14373963269E+02  0.00000000000E+00 0.  1.
<mgrwt>
<rscale>  0 0.79284617E+02</rscale>
<asrwt>0</asrwt>
<pdfrwt beam="1">  1        1 0.53272245E-02 0.79284617E+02</pdfrwt>
<pdfrwt beam="2">  1       -2 0.69821658E-02 0.79284617E+02</pdfrwt>
<totfact> 0.12718674E+05</totfact>
</mgrwt>
</event>
<event>
 8    1  0.1372337E-020  0.8572958E+02  0.7818608E-02  0.1313536E+00
          1   -1    0    0  501    0  0.00000000000E+00  0.00000000000E+00  0.53807661484E+02  0.53807661720E+02  0.50400000000E-02 0. -1.
         -2   -1    0    0    0  501 -0.00000000000E+00 -0.00000000000E+00 -0.34147375008E+02  0.34147375103E+02  0.25500000000E-02 0.  1.
        -24    2    1    2    0    0  0.00000000000E+00 -0.88817841970E-15  0.19660286476E+02  0.87955036823E+02  0.85729584381E+02 0.  0.
         66    2    3    3    0    0  0.38508404374E+02 -0.62104556367E+01 -0.83421987421E+01  0.39938192808E+02  0.19999995659E+01 0.  0.
         13    1    3    3    0    0 -0.38508404374E+02  0.62104556367E+01  0.28002485218E+02  0.48016844015E+02  0.10566000000E+00 0. -1.
         13    1    4    4    0    0  0.85277336915E+01 -0.81356349359E+00 -0.16211547245E+01  0.87191418241E+01  0.10566000000E+00 0. -1.
        -13    1    4    4    0    0  0.18373578721E+02 -0.28631671014E+01 -0.45084843267E+01  0.19134359561E+02  0.10566000000E+00 0.  1.
         14    1    4    4    0    0  0.11607091962E+02 -0.25337250417E+01 -0.22125596908E+01  0.12084691423E+02  0.00000000000E+00 0. -1.
<mgrwt>
<rscale>  0 0.85729584E+02</rscale>
<asrwt>0</asrwt>
<pdfrwt beam="1">  1        1 0.82781018E-02 0.85729584E+02</pdfrwt>
<pdfrwt beam="2">  1       -2 0.52534423E-02 0.85729584E+02</pdfrwt>
<totfact> 0.10975501E+05</totfact>
</mgrwt>
</event>
<event>
 8    1  0.1372337E-020  0.7966476E+02  0.7818608E-02  0.1330005E+00
          1   -1    0    0  501    0  0.00000000000E+00  0.00000000000E+00  0.83687273383E+02  0.83687273535E+02  0.50400000000E-02 0. -1.
         -2   -1    0    0    0  501 -0.00000000000E+00 -0.00000000000E+00 -0.18958899344E+02  0.18958899515E+02  0.25500000000E-02 0.  1.
        -24    2    1    2    0    0  0.00000000000E+00  0.00000000000E+00  0.64728374039E+02  0.10264617305E+03  0.79664762825E+02 0.  0.
         66    2    3    3    0    0 -0.26157280701E+02 -0.17784431008E+02  0.12437728130E+01  0.31718075114E+02  0.19999995401E+01 0.  0.
         13    1    3    3    0    0  0.26157280701E+02  0.17784431008E+02  0.63484601226E+02  0.70928097936E+02  0.10566000000E+00 0. -1.
         13    1    4    4    0    0 -0.18435030934E+01 -0.17122362542E+01  0.39598161241E+00  0.25491610616E+01  0.10566000000E+00 0. -1.
        -13    1    4    4    0    0 -0.22816133241E+02 -0.15227133815E+02  0.93838114262E+00  0.27446917195E+02  0.10566000000E+00 0.  1.
        -14    1    4    4    0    0 -0.14976443661E+01 -0.84506093966E+00 -0.90589942077E-01  0.17219968573E+01  0.00000000000E+00 0.  1.
<mgrwt>
<rscale>  0 0.79664763E+02</rscale>
<asrwt>0</asrwt>
<pdfrwt beam="1">  1        1 0.12874965E-01 0.79664763E+02</pdfrwt>
<pdfrwt beam="2">  1       -2 0.29167538E-02 0.79664763E+02</pdfrwt>
<totfact> 0.14436902E+05</totfact>
</mgrwt>
</event>
<event>
 8    1  0.1372337E-020  0.7870916E+02  0.7818608E-02  0.1332755E+00
         -2   -1    0    0    0  501 -0.00000000000E+00  0.00000000000E+00  0.72921101459E+01  0.72921105917E+01  0.25500000000E-02 0.  1.
          1   -1    0    0  501    0  0.00000000000E+00 -0.00000000000E+00 -0.21239161246E+03  0.21239161252E+03  0.50400000000E-02 0. -1.
        -24    2    1    2    0    0  0.00000000000E+00  0.00000000000E+00 -0.20509950231E+03  0.21968372311E+03  0.78709163066E+02 0.  0.
         66    2    3    3    0    0 -0.12258419545E+02 -0.36954815679E+02 -0.87113110237E+02  0.95439096945E+02  0.19999997572E+01 0.  0.
         13    1    3    3    0    0  0.12258419545E+02  0.36954815679E+02 -0.11798639207E+03  0.12424462616E+03  0.10566000000E+00 0. -1.
         13    1    4    4    0    0 -0.38292386058E+01 -0.12059307915E+02 -0.28058521609E+02  0.30779567486E+02  0.10566000000E+00 0. -1.
        -13    1    4    4    0    0 -0.84605404591E+01 -0.24434440897E+02 -0.57726088555E+02  0.63252945470E+02  0.10566000000E+00 0.  1.
         14    1    4    4    0    0  0.31359519739E-01 -0.46106686708E+00 -0.13285000722E+01  0.14065839887E+01  0.00000000000E+00 0. -1.
<mgrwt>
<rscale>  0 0.78709163E+02</rscale>
<asrwt>0</asrwt>
<pdfrwt beam="1">  1        1 0.32675628E-01 0.78709163E+02</pdfrwt>
<pdfrwt beam="2">  1       -2 0.11218633E-02 0.78709163E+02</pdfrwt>
<totfact> 0.17613043E+05</totfact>
</mgrwt>
</event>
<event>
 8    1  0.1372337E-020  0.7863645E+02  0.7818608E-02  0.1332966E+00
          1   -1    0    0  501    0  0.00000000000E+00  0.00000000000E+00  0.12189782327E+03  0.12189782337E+03  0.50400000000E-02 0. -1.
         -2   -1    0    0    0  501 -0.00000000000E+00 -0.00000000000E+00 -0.12682119187E+02  0.12682119443E+02  0.25500000000E-02 0.  1.
        -24    2    1    2    0    0  0.00000000000E+00  0.00000000000E+00  0.10921570408E+03  0.13457994282E+03  0.78636448231E+02 0.  0.
         66    2    3    3    0    0 -0.33958261981E+02  0.41627508289E+01  0.21571220477E+02  0.40494562859E+02  0.20000042544E+01 0.  0.
         13    1    3    3    0    0  0.33958261981E+02 -0.41627508289E+01  0.87644483606E+02  0.94085379958E+02  0.10566000000E+00 0. -1.
         13    1    4    4    0    0 -0.16602935829E+02  0.21206848036E+01  0.11103511715E+02  0.20086162367E+02  0.10566000000E+00 0. -1.
        -13    1    4    4    0    0 -0.70792660967E+01  0.48444841629E+00  0.48306120605E+01  0.85846767936E+01  0.10566000000E+00 0.  1.
        -14    1    4    4    0    0 -0.10276060055E+02  0.15576176090E+01  0.56370967015E+01  0.11823723699E+02  0.00000000000E+00 0.  1.
<mgrwt>
<rscale>  0 0.78636448E+02</rscale>
<asrwt>0</asrwt>
<pdfrwt beam="1">  1        1 0.18753512E-01 0.78636448E+02</pdfrwt>
<pdfrwt beam="2">  1       -2 0.19510952E-02 0.78636448E+02</pdfrwt>
<totfact> 0.15926309E+05</totfact>
</mgrwt>
</event>
<event>
 8    1  0.1372337E-020  0.7742665E+02  0.7818608E-02  0.1336517E+00
          1   -1    0    0  501    0  0.00000000000E+00  0.00000000000E+00  0.46403438654E+01  0.46403466024E+01  0.50400000000E-02 0. -1.
         -2   -1    0    0    0  501 -0.00000000000E+00 -0.00000000000E+00 -0.32297633921E+03  0.32297633922E+03  0.25500000000E-02 0.  1.
        -24    2    1    2    0    0  0.17763568394E-14  0.00000000000E+00 -0.31833599534E+03  0.32761668582E+03  0.77426654953E+02 0.  0.
         66    2    3    3    0    0 -0.14783612451E+02  0.11616385764E+02 -0.30234129183E+03  0.30293192697E+03  0.20000030233E+01 0.  0.
         13    1    3    3    0    0  0.14783612451E+02 -0.11616385764E+02 -0.15994703508E+02  0.24684758854E+02  0.10566000000E+00 0. -1.
         13    1    4    4    0    0 -0.46541850048E+01  0.42501490095E+01 -0.10551989116E+03  0.10570801199E+03  0.10566000000E+00 0. -1.
        -13    1    4    4    0    0 -0.21354910185E+01  0.14732270376E+01 -0.33189249183E+02  0.33290661531E+02  0.10566000000E+00 0. -1.
        -14    1    4    4    0    0 -0.79939364279E+01  0.58930097170E+01 -0.16363215149E+03  0.16393325345E+03  0.00000000000E+00 0.  1.
<mgrwt>
<rscale>  0 0.77426655E+02</rscale>
<asrwt>0</asrwt>
<pdfrwt beam="1">  1        1 0.71389952E-03 0.77426655E+02</pdfrwt>
<pdfrwt beam="2">  1       -2 0.49688650E-01 0.77426655E+02</pdfrwt>
<totfact> 0.73370639E+04</totfact>
</mgrwt>
</event>
<event>
 8    1  0.1372337E-020  0.8002179E+02  0.7818608E-02  0.1328990E+00
          1   -1    0    0  501    0  0.00000000000E+00  0.00000000000E+00  0.71434879875E+01  0.71434897655E+01  0.50400000000E-02 0. -1.
         -2   -1    0    0    0  501 -0.00000000000E+00 -0.00000000000E+00 -0.22410220756E+03  0.22410220757E+03  0.25500000000E-02 0.  1.
        -24    2    1    2    0    0  0.00000000000E+00  0.00000000000E+00 -0.21695871957E+03  0.23124569734E+03  0.80021787906E+02 0.  0.
         66    2    3    3    0    0 -0.22778200961E+01  0.39808892358E+02 -0.11718265232E+03  0.12379705316E+03  0.19999979396E+01 0.  0.
         13    1    3    3    0    0  0.22778200961E+01 -0.39808892358E+02 -0.99776067254E+02  0.10744864418E+03  0.10566000000E+00 0. -1.
         13    1    4    4    0    0 -0.14743747221E+01  0.15819261373E+02 -0.45973261659E+02  0.48641286608E+02  0.10566000000E+00 0. -1.
        -13    1    4    4    0    0 -0.86258334707E+00  0.89756671124E+01 -0.27172056263E+02  0.28629328594E+02  0.10566000000E+00 0.  1.
         14    1    4    4    0    0  0.59137973136E-01  0.15013963873E+02 -0.44037334396E+02  0.46526437959E+02  0.00000000000E+00 0. -1.
<mgrwt>
<rscale>  0 0.80021788E+02</rscale>
<asrwt>0</asrwt>
<pdfrwt beam="1">  1        1 0.10989985E-02 0.80021788E+02</pdfrwt>
<pdfrwt beam="2">  1       -2 0.34477257E-01 0.80021788E+02</pdfrwt>
<totfact> 0.81022646E+04</totfact>
</mgrwt>
</event>
<event>
 8    1  0.1372337E-020  0.8335734E+02  0.7818608E-02  0.1319785E+00
          1   -1    0    0  501    0  0.00000000000E+00  0.00000000000E+00  0.11635799026E+02  0.11635800118E+02  0.50400000000E-02 0. -1.
         -2   -1    0    0    0  501 -0.00000000000E+00 -0.00000000000E+00 -0.14929027300E+03  0.14929027302E+03  0.25500000000E-02 0.  1.
        -24    2    1    2    0    0  0.00000000000E+00  0.35527136788E-14 -0.13765447397E+03  0.16092607314E+03  0.83357344074E+02 0.  0.
         66    2    3    3    0    0  0.12470952165E+02 -0.24219511679E+02 -0.12970217762E+03  0.13254721525E+03  0.19999992249E+01 0.  0.
         13    1    3    3    0    0 -0.12470952165E+02  0.24219511679E+02 -0.79522963538E+01  0.28378857891E+02  0.10566000000E+00 0. -1.
         13    1    4    4    0    0  0.67455365678E+00 -0.10138843061E+01 -0.76308036417E+01  0.77280859387E+01  0.10566000000E+00 0. -1.
        -13    1    4    4    0    0  0.33127187298E+01 -0.61742126883E+01 -0.31269285121E+02  0.32044880460E+02  0.10566000000E+00 0.  1.
         14    1    4    4    0    0  0.84836797788E+01 -0.17031414685E+02 -0.90802088854E+02  0.92774248847E+02  0.00000000000E+00 0. -1.
<mgrwt>
<rscale>  0 0.83357344E+02</rscale>
<asrwt>0</asrwt>
<pdfrwt beam="1">  1        1 0.17901231E-02 0.83357344E+02</pdfrwt>
<pdfrwt beam="2">  1       -2 0.22967733E-01 0.83357344E+02</pdfrwt>
<totfact> 0.85144928E+04</totfact>
</mgrwt>
</event>
<event>
 8    1  0.1372337E-020  0.8043223E+02  0.7818608E-02  0.1327829E+00
         -2   -1    0    0    0  501 -0.00000000000E+00  0.00000000000E+00  0.11500494535E+03  0.11500494538E+03  0.25500000000E-02 0.  1.
          1   -1    0    0  501    0  0.00000000000E+00 -0.00000000000E+00 -0.14063184449E+02  0.14063185353E+02  0.50400000000E-02 0. -1.
        -24    2    1    2    0    0  0.00000000000E+00 -0.35527136788E-14  0.10094176090E+03  0.12906813073E+03  0.80432227848E+02 0.  0.
         66    2    3    3    0    0 -0.15095704975E+02  0.16956402787E+02  0.10372160274E+03  0.10619590765E+03  0.20000056167E+01 0.  0.
         13    1    3    3    0    0  0.15095704975E+02 -0.16956402787E+02 -0.27798418352E+01  0.22872223085E+02  0.10566000000E+00 0. -1.
         13    1    4    4    0    0 -0.10904091948E+01  0.89203065653E+00  0.56636259601E+01  0.58371683165E+01  0.10566000000E+00 0. -1.
        -13    1    4    4    0    0 -0.55441759624E+01  0.54013708793E+01  0.37241431380E+02  0.38037456142E+02  0.10566000000E+00 0.  1.
        -14    1    4    4    0    0 -0.84611198179E+01  0.10663001252E+02  0.60816545395E+02  0.62321283187E+02  0.00000000000E+00 0.  1.
<mgrwt>
<rscale>  0 0.80432228E+02</rscale>
<asrwt>0</asrwt>
<pdfrwt beam="1">  1        1 0.21635668E-02 0.80432228E+02</pdfrwt>
<pdfrwt beam="2">  1       -2 0.17693070E-01 0.80432228E+02</pdfrwt>
<totfact> 0.10093485E+05</totfact>
</mgrwt>
</event>
<event>
 8    1  0.1372337E-020  0.7870362E+02  0.7818608E-02  0.1332771E+00
          1   -1    0    0  501    0  0.00000000000E+00  0.00000000000E+00  0.14481079054E+03  0.14481079062E+03  0.50400000000E-02 0. -1.
         -2   -1    0    0    0  501 -0.00000000000E+00 -0.00000000000E+00 -0.10693711787E+02  0.10693712091E+02  0.25500000000E-02 0.  1.
        -24    2    1    2    0    0  0.00000000000E+00  0.00000000000E+00  0.13411707875E+03  0.15550450271E+03  0.78703618419E+02 0.  0.
         66    2    3    3    0    0 -0.34205738389E+02  0.19206310973E+02  0.72564804802E+02  0.82514034076E+02  0.20000009116E+01 0.  0.
         13    1    3    3    0    0  0.34205738389E+02 -0.19206310973E+02  0.61552273948E+02  0.72990468639E+02  0.10566000000E+00 0. -1.
         13    1    4    4    0    0 -0.61022095576E+00  0.24800712209E+00  0.16960374286E+01  0.18225213695E+01  0.10566000000E+00 0.  1.
        -13    1    4    4    0    0 -0.94211778737E+01  0.52787608538E+01  0.19109436257E+02  0.21950071225E+02  0.10566000000E+00 0. -1.
        -14    1    4    4    0    0 -0.24174339559E+02  0.13679542997E+02  0.51759331116E+02  0.58741441481E+02  0.00000000000E+00 0.  1.
<mgrwt>
<rscale>  0 0.78703618E+02</rscale>
<asrwt>0</asrwt>
<pdfrwt beam="1">  1        1 0.22278584E-01 0.78703618E+02</pdfrwt>
<pdfrwt beam="2">  1       -2 0.16451864E-02 0.78703618E+02</pdfrwt>
<totfact> 0.16386456E+05</totfact>
</mgrwt>
</event>
<event>
 8    1  0.1372337E-020  0.7966210E+02  0.7818608E-02  0.1330013E+00
          1   -1    0    0  501    0  0.00000000000E+00  0.00000000000E+00  0.19024824404E+02  0.19024825072E+02  0.50400000000E-02 0. -1.
         -2   -1    0    0    0  501 -0.00000000000E+00 -0.00000000000E+00 -0.83391694576E+02  0.83391694615E+02  0.25500000000E-02 0.  1.
        -24    2    1    2    0    0 -0.71054273576E-14 -0.17763568394E-14 -0.64366870172E+02  0.10241651969E+03  0.79662095937E+02 0.  0.
         66    2    3    3    0    0  0.35340379426E+02  0.10609513250E+02 -0.51402455123E+02  0.63306528495E+02  0.19999920373E+01 0.  0.
         13    1    3    3    0    0 -0.35340379426E+02 -0.10609513250E+02 -0.12964415050E+02  0.39109991191E+02  0.10566000000E+00 0. -1.
         13    1    4    4    0    0  0.10513457508E+02  0.40058255481E+01 -0.15136366265E+02  0.18860015240E+02  0.10566000000E+00 0. -1.
        -13    1    4    4    0    0  0.58625130456E+01  0.17604230641E+01 -0.87543614939E+01  0.10682610064E+02  0.10566000000E+00 0.  1.
        -14    1    4    4    0    0  0.18964408872E+02  0.48432646381E+01 -0.27511727363E+02  0.33763903192E+02  0.00000000000E+00 0.  1.
<mgrwt>
<rscale>  0 0.79662096E+02</rscale>
<asrwt>0</asrwt>
<pdfrwt beam="1">  1        1 0.29268962E-02 0.79662096E+02</pdfrwt>
<pdfrwt beam="2">  1       -2 0.12829491E-01 0.79662096E+02</pdfrwt>
<totfact> 0.11195224E+05</totfact>
</mgrwt>
</event>
<event>
 8    1  0.1372337E-020  0.7766111E+02  0.7818608E-02  0.1335823E+00
          1   -1    0    0  501    0  0.00000000000E+00  0.00000000000E+00  0.58571234445E+02  0.58571234662E+02  0.50400000000E-02 0. -1.
         -2   -1    0    0    0  501 -0.00000000000E+00 -0.00000000000E+00 -0.25743213706E+02  0.25743213832E+02  0.25500000000E-02 0.  1.
        -24    2    1    2    0    0  0.00000000000E+00  0.71054273576E-14  0.32828020739E+02  0.84314448494E+02  0.77661105318E+02 0.  0.
         66    2    3    3    0    0 -0.52089944517E+01 -0.36499474628E+02  0.32859252227E+01  0.37069429256E+02  0.20000023639E+01 0.  0.
         13    1    3    3    0    0  0.52089944517E+01  0.36499474628E+02  0.29542095516E+02  0.47245019238E+02  0.10566000000E+00 0. -1.
         13    1    4    4    0    0 -0.90903866564E+00 -0.89390520579E+01  0.15218768514E+01  0.91137410637E+01  0.10566000000E+00 0. -1.
        -13    1    4    4    0    0 -0.26290510845E+01 -0.17024531180E+02  0.81344055026E+00  0.17245852286E+02  0.10566000000E+00 0.  1.
         14    1    4    4    0    0 -0.16709047016E+01 -0.10535891390E+02  0.95060782106E+00  0.10709835906E+02  0.00000000000E+00 0. -1.
<mgrwt>
<rscale>  0 0.77661105E+02</rscale>
<asrwt>0</asrwt>
<pdfrwt beam="1">  1        1 0.90109591E-02 0.77661105E+02</pdfrwt>
<pdfrwt beam="2">  1       -2 0.39604945E-02 0.77661105E+02</pdfrwt>
<totfact> 0.14635483E+05</totfact>
</mgrwt>
</event>
<event>
 8    1  0.1372337E-020  0.7942258E+02  0.7818608E-02  0.1330698E+00
          1   -1    0    0  501    0  0.00000000000E+00  0.00000000000E+00  0.15743429856E+02  0.15743430662E+02  0.50400000000E-02 0. -1.
         -2   -1    0    0    0  501 -0.00000000000E+00 -0.00000000000E+00 -0.10016791261E+03  0.10016791264E+03  0.25500000000E-02 0.  1.
        -24    2    1    2    0    0 -0.17763568394E-14  0.17763568394E-14 -0.84424482754E+02  0.11591134330E+03  0.79422580028E+02 0.  0.
         66    2    3    3    0    0  0.13954165871E+02  0.78275117023E+01 -0.95242267289E+02  0.96597506014E+02  0.20000013052E+01 0.  0.
         13    1    3    3    0    0 -0.13954165871E+02 -0.78275117023E+01  0.10817784535E+02  0.19313837290E+02  0.10566000000E+00 0. -1.
         13    1    4    4    0    0  0.10910801881E+02  0.65981991201E+01 -0.76374889694E+02  0.77432013852E+02  0.10566000000E+00 0. -1.
        -13    1    4    4    0    0  0.30793752791E+01  0.12074696840E+01 -0.18320319756E+02  0.18616815387E+02  0.10566000000E+00 0.  1.
        -14    1    4    4    0    0 -0.36011289147E-01  0.21842898293E-01 -0.54705783834E+00  0.54867677520E+00  0.00000000000E+00 0.  1.
<mgrwt>
<rscale>  0 0.79422580E+02</rscale>
<asrwt>0</asrwt>
<pdfrwt beam="1">  1        1 0.24220663E-02 0.79422580E+02</pdfrwt>
<pdfrwt beam="2">  1       -2 0.15410448E-01 0.79422580E+02</pdfrwt>
<totfact> 0.10806856E+05</totfact>
</mgrwt>
</event>
<event>
 8    1  0.1372337E-020  0.7973191E+02  0.7818608E-02  0.1329814E+00
          1   -1    0    0  501    0  0.00000000000E+00  0.00000000000E+00  0.14587969774E+02  0.14587970645E+02  0.50400000000E-02 0. -1.
         -2   -1    0    0    0  501 -0.00000000000E+00 -0.00000000000E+00 -0.10894554647E+03  0.10894554650E+03  0.25500000000E-02 0.  1.
        -24    2    1    2    0    0  0.00000000000E+00  0.00000000000E+00 -0.94357576699E+02  0.12353351715E+03  0.79731910666E+02 0.  0.
         66    2    3    3    0    0 -0.35885162510E+02  0.24813446200E+01 -0.73746710668E+02  0.82076057962E+02  0.19999992063E+01 0.  0.
         13    1    3    3    0    0  0.35885162510E+02 -0.24813446200E+01 -0.20610866031E+02  0.41457459185E+02  0.10566000000E+00 0. -1.
         13    1    4    4    0    0 -0.15092225020E+02  0.14688362272E+01 -0.31091319027E+02  0.34592109199E+02  0.10566000000E+00 0. -1.
        -13    1    4    4    0    0 -0.94590955965E+01  0.66955694553E+00 -0.20899717188E+02  0.22950645711E+02  0.10566000000E+00 0.  1.
         14    1    4    4    0    0 -0.11333841894E+02  0.34295144734E+00 -0.21755674452E+02  0.24533303052E+02  0.00000000000E+00 0. -1.
<mgrwt>
<rscale>  0 0.79731911E+02</rscale>
<asrwt>0</asrwt>
<pdfrwt beam="1">  1        1 0.22443032E-02 0.79731911E+02</pdfrwt>
<pdfrwt beam="2">  1       -2 0.16760853E-01 0.79731911E+02</pdfrwt>
<totfact> 0.10472859E+05</totfact>
</mgrwt>
</event>
<event>
 8    1  0.1372337E-020  0.8749815E+02  0.7818608E-02  0.1309026E+00
          1   -1    0    0  501    0  0.00000000000E+00  0.00000000000E+00  0.10165563756E+02  0.10165565005E+02  0.50400000000E-02 0. -1.
         -2   -1    0    0    0  501 -0.00000000000E+00 -0.00000000000E+00 -0.18828090576E+03  0.18828090577E+03  0.25500000000E-02 0.  1.
        -24    2    1    2    0    0  0.00000000000E+00  0.00000000000E+00 -0.17811534200E+03  0.19844647078E+03  0.87498152600E+02 0.  0.
         66    2    3    3    0    0  0.37749080391E+02 -0.53439621008E+01 -0.40544042564E+02  0.55689948707E+02  0.19999995522E+01 0.  0.
         13    1    3    3    0    0 -0.37749080391E+02  0.53439621008E+01 -0.13757129944E+03  0.14275652207E+03  0.10566000000E+00 0. -1.
         13    1    4    4    0    0  0.15411452361E+02 -0.24899486402E+01 -0.17886647106E+02  0.23741440917E+02  0.10566000000E+00 0.  1.
        -13    1    4    4    0    0  0.79829147258E+01 -0.12378450396E+01 -0.81140899966E+01  0.11450275471E+02  0.10566000000E+00 0. -1.
        -14    1    4    4    0    0  0.14354713304E+02 -0.16161684211E+01 -0.14543305462E+02  0.20498232318E+02  0.00000000000E+00 0.  1.
<mgrwt>
<rscale>  0 0.87498153E+02</rscale>
<asrwt>0</asrwt>
<pdfrwt beam="1">  1        1 0.15639331E-02 0.87498153E+02</pdfrwt>
<pdfrwt beam="2">  1       -2 0.28966291E-01 0.87498153E+02</pdfrwt>
<totfact> 0.69122945E+04</totfact>
</mgrwt>
</event>
<event>
 8    1  0.1372337E-020  0.7649803E+02  0.7818608E-02  0.1339294E+00
          1   -1    0    0  501    0  0.00000000000E+00  0.00000000000E+00  0.96334283545E+02  0.96334283677E+02  0.50400000000E-02 0. -1.
         -2   -1    0    0    0  501 -0.00000000000E+00 -0.00000000000E+00 -0.15186568095E+02  0.15186568309E+02  0.25500000000E-02 0.  1.
        -24    2    1    2    0    0  0.41633363423E-16  0.00000000000E+00  0.81147715451E+02  0.11152085199E+03  0.76498030726E+02 0.  0.
         66    2    3    3    0    0 -0.11731445829E+00 -0.17091950264E+02 -0.92389636354E+01  0.19532203520E+02  0.19999996923E+01 0.  0.
         13    1    3    3    0    0  0.11731445829E+00  0.17091950264E+02  0.90386679086E+02  0.91988648467E+02  0.10566000000E+00 0. -1.
         13    1    4    4    0    0 -0.34685000225E+00 -0.14352513834E+01 -0.60521203564E+00  0.15992801822E+01  0.10566000000E+00 0. -1.
        -13    1    4    4    0    0 -0.36279900818E+00 -0.14641705539E+01 -0.77986624841E+00  0.17014035184E+01  0.10566000000E+00 0.  1.
        -14    1    4    4    0    0  0.59233455215E+00 -0.14192528327E+02 -0.78538853513E+01  0.16231519819E+02  0.00000000000E+00 0.  1.
<mgrwt>
<rscale>  0 0.76498031E+02</rscale>
<asrwt>0</asrwt>
<pdfrwt beam="1">  1        1 0.14820660E-01 0.76498031E+02</pdfrwt>
<pdfrwt beam="2">  1       -2 0.23363950E-02 0.76498031E+02</pdfrwt>
<totfact> 0.16482363E+05</totfact>
</mgrwt>
</event>
<event>
 8    1  0.1372337E-020  0.7761870E+02  0.7818608E-02  0.1335948E+00
          1   -1    0    0  501    0  0.00000000000E+00  0.00000000000E+00  0.13215749055E+02  0.13215750016E+02  0.50400000000E-02 0. -1.
         -2   -1    0    0    0  501 -0.00000000000E+00 -0.00000000000E+00 -0.11396747174E+03  0.11396747177E+03  0.25500000000E-02 0.  1.
        -24    2    1    2    0    0  0.00000000000E+00 -0.88817841970E-15 -0.10075172268E+03  0.12718322178E+03  0.77618698002E+02 0.  0.
         66    2    3    3    0    0  0.18272443219E+02  0.78924078332E+01 -0.10495121563E+03  0.10684067554E+03  0.20000015349E+01 0.  0.
         13    1    3    3    0    0 -0.18272443219E+02 -0.78924078332E+01  0.41994929430E+01  0.20342546242E+02  0.10566000000E+00 0. -1.
         13    1    4    4    0    0  0.31300391829E+01  0.66146792691E+00 -0.17981597257E+02  0.18264273571E+02  0.10566000000E+00 0. -1.
        -13    1    4    4    0    0  0.10583528990E+02  0.47028748659E+01 -0.60022697640E+02  0.61129890511E+02  0.10566000000E+00 0.  1.
         14    1    4    4    0    0  0.45588750459E+01  0.25280650404E+01 -0.26946920730E+02  0.27446511461E+02  0.00000000000E+00 0. -1.
<mgrwt>
<rscale>  0 0.77618698E+02</rscale>
<asrwt>0</asrwt>
<pdfrwt beam="1">  1        1 0.20331923E-02 0.77618698E+02</pdfrwt>
<pdfrwt beam="2">  1       -2 0.17533457E-01 0.77618698E+02</pdfrwt>
<totfact> 0.11085407E+05</totfact>
</mgrwt>
</event>
<event>
 8    1  0.1372337E-020  0.7967643E+02  0.7818608E-02  0.1329972E+00
          1   -1    0    0  501    0  0.00000000000E+00  0.00000000000E+00  0.19346569038E+03  0.19346569045E+03  0.50400000000E-02 0. -1.
         -2   -1    0    0    0  501 -0.00000000000E+00 -0.00000000000E+00 -0.82034356949E+01  0.82034360912E+01  0.25500000000E-02 0.  1.
        -24    2    1    2    0    0  0.00000000000E+00  0.00000000000E+00  0.18526225469E+03  0.20166912654E+03  0.79676430563E+02 0.  0.
         66    2    3    3    0    0  0.36903105048E+02 -0.25181116085E+01  0.55412606794E+02  0.66653859734E+02  0.19999943856E+01 0.  0.
         13    1    3    3    0    0 -0.36903105048E+02  0.25181116085E+01  0.12984964789E+03  0.13501526681E+03  0.10566000000E+00 0. -1.
         13    1    4    4    0    0  0.25888518072E+01 -0.53694099091E+00  0.37568518123E+01  0.45951669048E+01  0.10566000000E+00 0. -1.
        -13    1    4    4    0    0  0.12912170093E+02 -0.13454127445E+01  0.19390726260E+02  0.23335503014E+02  0.10566000000E+00 0.  1.
        -14    1    4    4    0    0  0.21402083147E+02 -0.63575787309E+00  0.32265028721E+02  0.38723189816E+02  0.00000000000E+00 0.  1.
<mgrwt>
<rscale>  0 0.79676431E+02</rscale>
<asrwt>0</asrwt>
<pdfrwt beam="1">  1        1 0.29763949E-01 0.79676431E+02</pdfrwt>
<pdfrwt beam="2">  1       -2 0.12620672E-02 0.79676431E+02</pdfrwt>
<totfact> 0.16746262E+05</totfact>
</mgrwt>
</event>
<event>
 8    1  0.1372337E-020  0.8127394E+02  0.7818608E-02  0.1325475E+00
          1   -1    0    0  501    0  0.00000000000E+00  0.00000000000E+00  0.38386472471E+02  0.38386472802E+02  0.50400000000E-02 0. -1.
         -2   -1    0    0    0  501 -0.00000000000E+00 -0.00000000000E+00 -0.43019403590E+02  0.43019403665E+02  0.25500000000E-02 0.  1.
        -24    2    1    2    0    0  0.00000000000E+00  0.00000000000E+00 -0.46329311187E+01  0.81405876468E+02  0.81273935999E+02 0.  0.
         66    2    3    3    0    0 -0.11361275142E+02  0.30806572930E+02 -0.26257180876E+02  0.42089940129E+02  0.20000009929E+01 0.  0.
         13    1    3    3    0    0  0.11361275142E+02 -0.30806572930E+02  0.21624249757E+02  0.39315936338E+02  0.10566000000E+00 0. -1.
         13    1    4    4    0    0 -0.10222076919E+01  0.19845402342E+01 -0.20924832261E+01  0.30615288001E+01  0.10566000000E+00 0. -1.
        -13    1    4    4    0    0 -0.98025679168E+01  0.27976094338E+02 -0.23292361721E+02  0.37700099081E+02  0.10566000000E+00 0.  1.
        -14    1    4    4    0    0 -0.53649953304E+00  0.84593835819E+00 -0.87233592885E+00  0.13283122478E+01  0.00000000000E+00 0.  1.
<mgrwt>
<rscale>  0 0.81273936E+02</rscale>
<asrwt>0</asrwt>
<pdfrwt beam="1">  1        1 0.59056112E-02 0.81273936E+02</pdfrwt>
<pdfrwt beam="2">  1       -2 0.66183698E-02 0.81273936E+02</pdfrwt>
<totfact> 0.12061084E+05</totfact>
</mgrwt>
</event>
<event>
 8    1  0.1372337E-020  0.7497286E+02  0.7818608E-02  0.1343955E+00
          1   -1    0    0  501    0  0.00000000000E+00  0.00000000000E+00  0.10378067546E+02  0.10378068770E+02  0.50400000000E-02 0. -1.
         -2   -1    0    0    0  501 -0.00000000000E+00 -0.00000000000E+00 -0.13540404837E+03  0.13540404840E+03  0.25500000000E-02 0.  1.
        -24    2    1    2    0    0 -0.35527136788E-14 -0.35527136788E-14 -0.12502598083E+03  0.14578211717E+03  0.74972860449E+02 0.  0.
         66    2    3    3    0    0 -0.25278544989E+02 -0.23101896915E+02 -0.92080271198E+02  0.98262295779E+02  0.19999874892E+01 0.  0.
         13    1    3    3    0    0  0.25278544989E+02  0.23101896915E+02 -0.32945709630E+02  0.47519821389E+02  0.10566000000E+00 0. -1.
         13    1    4    4    0    0 -0.39186057308E+00 -0.42070469264E+00 -0.19786234079E+01  0.20631678974E+01  0.10566000000E+00 0. -1.
        -13    1    4    4    0    0 -0.49715189558E+01 -0.52442445184E+01 -0.20145481623E+02  0.21402562818E+02  0.10566000000E+00 0.  1.
        -14    1    4    4    0    0 -0.19915165460E+02 -0.17436947704E+02 -0.69956166167E+02  0.74796565063E+02  0.00000000000E+00 0.  1.
<mgrwt>
<rscale>  0 0.74972860E+02</rscale>
<asrwt>0</asrwt>
<pdfrwt beam="1">  1        1 0.15966260E-02 0.74972860E+02</pdfrwt>
<pdfrwt beam="2">  1       -2 0.20831391E-01 0.74972860E+02</pdfrwt>
<totfact> 0.11531641E+05</totfact>
</mgrwt>
</event>
<event>
 8    1  0.1372337E-020  0.7697983E+02  0.7818608E-02  0.1337847E+00
          1   -1    0    0  501    0  0.00000000000E+00  0.00000000000E+00  0.28031741149E+02  0.28031741603E+02  0.50400000000E-02 0. -1.
         -2   -1    0    0    0  501 -0.00000000000E+00 -0.00000000000E+00 -0.52849856734E+02  0.52849856796E+02  0.25500000000E-02 0.  1.
        -24    2    1    2    0    0  0.00000000000E+00  0.00000000000E+00 -0.24818115585E+02  0.80881598398E+02  0.76979829165E+02 0.  0.
         66    2    3    3    0    0 -0.43372893848E+01  0.37459789571E+02 -0.44556882181E+01  0.38025005834E+02  0.19999993095E+01 0.  0.
         13    1    3    3    0    0  0.43372893848E+01 -0.37459789571E+02 -0.20362427367E+02  0.42856592564E+02  0.10566000000E+00 0. -1.
         13    1    4    4    0    0 -0.52454850519E+00  0.32464168708E+01 -0.36418075682E+00  0.33103119630E+01  0.10566000000E+00 0.  1.
        -13    1    4    4    0    0 -0.36013919010E+01  0.32882024678E+02 -0.42762057276E+01  0.33354080260E+02  0.10566000000E+00 0.  1.
        -14    1    4    4    0    0 -0.21134897854E+00  0.13313480223E+01  0.18469826629E+00  0.13606136104E+01  0.00000000000E+00 0.  1.
<mgrwt>
<rscale>  0 0.76979829E+02</rscale>
<asrwt>0</asrwt>
<pdfrwt beam="1">  1        1 0.43125756E-02 0.76979829E+02</pdfrwt>
<pdfrwt beam="2">  1       -2 0.81307472E-02 0.76979829E+02</pdfrwt>
<totfact> 0.13347329E+05</totfact>
</mgrwt>
</event>
<event>
 8    1  0.1372337E-020  0.8018432E+02  0.7818608E-02  0.1328529E+00
          1   -1    0    0  501    0  0.00000000000E+00  0.00000000000E+00  0.47239942381E+02  0.47239942650E+02  0.50400000000E-02 0. -1.
         -2   -1    0    0    0  501 -0.00000000000E+00 -0.00000000000E+00 -0.34025889918E+02  0.34025890013E+02  0.25500000000E-02 0.  1.
        -24    2    1    2    0    0  0.00000000000E+00  0.00000000000E+00  0.13214052464E+02  0.81265832663E+02  0.80184315024E+02 0.  0.
         66    2    3    3    0    0 -0.34490756011E+02 -0.70642346057E+01 -0.12774343833E+02  0.37505993005E+02  0.19999975209E+01 0.  0.
         13    1    3    3    0    0  0.34490756011E+02  0.70642346057E+01  0.25988396297E+02  0.43759839659E+02  0.10566000000E+00 0. -1.
         13    1    4    4    0    0 -0.10765153401E+01 -0.10935994895E+00 -0.94039731332E-01  0.10912618304E+01  0.10566000000E+00 0. -1.
        -13    1    4    4    0    0 -0.15179501834E+02 -0.34544536345E+01 -0.57884257699E+01  0.16609261356E+02  0.10566000000E+00 0.  1.
        -14    1    4    4    0    0 -0.18234738837E+02 -0.35004210223E+01 -0.68918783322E+01  0.19805469818E+02  0.00000000000E+00 0.  1.
<mgrwt>
<rscale>  0 0.80184315E+02</rscale>
<asrwt>0</asrwt>
<pdfrwt beam="1">  1        1 0.72676835E-02 0.80184315E+02</pdfrwt>
<pdfrwt beam="2">  1       -2 0.52347523E-02 0.80184315E+02</pdfrwt>
<totfact> 0.12956403E+05</totfact>
</mgrwt>
</event>
<event>
 8    1  0.1372337E-020  0.8206271E+02  0.7818608E-02  0.1323298E+00
         -2   -1    0    0    0  501 -0.00000000000E+00  0.00000000000E+00  0.17986123555E+02  0.17986123736E+02  0.25500000000E-02 0.  1.
          1   -1    0    0  501    0  0.00000000000E+00 -0.00000000000E+00 -0.93603941901E+02  0.93603942037E+02  0.50400000000E-02 0. -1.
        -24    2    1    2    0    0 -0.17763568394E-14  0.00000000000E+00 -0.75617818346E+02  0.11159006577E+03  0.82062709726E+02 0.  0.
         66    2    3    3    0    0 -0.10857034697E+02 -0.33099693438E+02 -0.84108066300E+01  0.35891594876E+02  0.20000016186E+01 0.  0.
         13    1    3    3    0    0  0.10857034697E+02  0.33099693438E+02 -0.67207011716E+02  0.75698470896E+02  0.10566000000E+00 0. -1.
         13    1    4    4    0    0 -0.71336333357E+01 -0.21249916915E+02 -0.51350947498E+01  0.22996261774E+02  0.10566000000E+00 0. -1.
        -13    1    4    4    0    0 -0.34804859435E+01 -0.11094325579E+02 -0.27666684486E+01  0.11952550389E+02  0.10566000000E+00 0.  1.
         14    1    4    4    0    0 -0.24291541781E+00 -0.75545094524E+00 -0.50904343168E+00  0.94278271421E+00  0.00000000000E+00 0. -1.
<mgrwt>
<rscale>  0 0.82062710E+02</rscale>
<asrwt>0</asrwt>
<pdfrwt beam="1">  1        1 0.14400606E-01 0.82062710E+02</pdfrwt>
<pdfrwt beam="2">  1       -2 0.27670960E-02 0.82062710E+02</pdfrwt>
<totfact> 0.13567541E+05</totfact>
</mgrwt>
</event>
<event>
 8    1  0.1372337E-020  0.8012073E+02  0.7818608E-02  0.1328709E+00
         -2   -1    0    0    0  501 -0.00000000000E+00  0.00000000000E+00  0.22026915088E+02  0.22026915235E+02  0.25500000000E-02 0.  1.
          1   -1    0    0  501    0  0.00000000000E+00 -0.00000000000E+00 -0.72857807388E+02  0.72857807562E+02  0.50400000000E-02 0. -1.
        -24    2    1    2    0    0 -0.22204460493E-15  0.00000000000E+00 -0.50830892300E+02  0.94884722797E+02  0.80120727707E+02 0.  0.
         66    2    3    3    0    0  0.15473486578E+01  0.26681066117E+02  0.98702786079E+01  0.28560391737E+02  0.19999998323E+01 0.  0.
         13    1    3    3    0    0 -0.15473486578E+01 -0.26681066117E+02 -0.60701170908E+02  0.66324331061E+02  0.10566000000E+00 0. -1.
         13    1    4    4    0    0 -0.20295243958E+00  0.64256215056E+01  0.22270667577E+01  0.68044685175E+01  0.10566000000E+00 0.  1.
        -13    1    4    4    0    0 -0.14983790395E+00  0.37424204769E+01  0.14464515911E+01  0.40164099224E+01  0.10566000000E+00 0. -1.
        -14    1    4    4    0    0  0.19001390013E+01  0.16513024135E+02  0.61967602591E+01  0.17739513297E+02  0.00000000000E+00 0.  1.
<mgrwt>
<rscale>  0 0.80120728E+02</rscale>
<asrwt>0</asrwt>
<pdfrwt beam="1">  1        1 0.11208893E-01 0.80120728E+02</pdfrwt>
<pdfrwt beam="2">  1       -2 0.33887562E-02 0.80120728E+02</pdfrwt>
<totfact> 0.13901518E+05</totfact>
</mgrwt>
</event>
<event>
 8    1  0.1372337E-020  0.8051523E+02  0.7818608E-02  0.1327596E+00
         -2   -1    0    0    0  501 -0.00000000000E+00  0.00000000000E+00  0.23134409600E+02  0.23134409741E+02  0.25500000000E-02 0.  1.
          1   -1    0    0  501    0  0.00000000000E+00 -0.00000000000E+00 -0.70054754142E+02  0.70054754323E+02  0.50400000000E-02 0. -1.
        -24    2    1    2    0    0  0.00000000000E+00 -0.55511151231E-16 -0.46920344542E+02  0.93189164064E+02  0.80515225685E+02 0.  0.
         66    2    3    3    0    0  0.16150156755E+02  0.20642388775E+00  0.19174047993E+02  0.25149836741E+02  0.19999994112E+01 0.  0.
         13    1    3    3    0    0 -0.16150156755E+02 -0.20642388775E+00 -0.66094392535E+02  0.68039327323E+02  0.10566000000E+00 0. -1.
         13    1    4    4    0    0 -0.21307863962E-02 -0.28850900948E-01  0.80817684062E-01  0.13613393549E+00  0.10566000000E+00 0. -1.
        -13    1    4    4    0    0  0.12827594976E+02  0.24175278308E+00  0.15402742390E+02  0.20046477856E+02  0.10566000000E+00 0.  1.
         14    1    4    4    0    0  0.33246925656E+01 -0.64779943772E-02  0.36904879185E+01  0.49672249493E+01  0.00000000000E+00 0. -1.
<mgrwt>
<rscale>  0 0.80515226E+02</rscale>
<asrwt>0</asrwt>
<pdfrwt beam="1">  1        1 0.10777654E-01 0.80515226E+02</pdfrwt>
<pdfrwt beam="2">  1       -2 0.35591400E-02 0.80515226E+02</pdfrwt>
<totfact> 0.13630530E+05</totfact>
</mgrwt>
</event>
<event>
 8    1  0.1372337E-020  0.8071401E+02  0.7818608E-02  0.1327037E+00
         -2   -1    0    0    0  501 -0.00000000000E+00  0.00000000000E+00  0.20673187161E+02  0.20673187318E+02  0.25500000000E-02 0.  1.
          1   -1    0    0  501    0  0.00000000000E+00 -0.00000000000E+00 -0.78782624671E+02  0.78782624832E+02  0.50400000000E-02 0. -1.
        -24    2    1    2    0    0 -0.35527136788E-14 -0.35527136788E-14 -0.58109437510E+02  0.99455812151E+02  0.80714012680E+02 0.  0.
         66    2    3    3    0    0  0.25071282301E+02  0.20739636969E+02  0.29372391845E+00  0.32600429670E+02  0.20000007703E+01 0.  0.
         13    1    3    3    0    0 -0.25071282301E+02 -0.20739636969E+02 -0.58403161428E+02  0.66855382481E+02  0.10566000000E+00 0. -1.
         13    1    4    4    0    0  0.10750328668E+01  0.59633406901E+00 -0.23470037727E+00  0.12560088731E+01  0.10566000000E+00 0. -1.
        -13    1    4    4    0    0  0.77645195935E+01  0.61380831104E+01 -0.37862953547E-01  0.98983042197E+01  0.10566000000E+00 0.  1.
         14    1    4    4    0    0  0.16231729841E+02  0.14005219790E+02  0.56628724927E+00  0.21446116577E+02  0.00000000000E+00 0. -1.
<mgrwt>
<rscale>  0 0.80714013E+02</rscale>
<asrwt>0</asrwt>
<pdfrwt beam="1">  1        1 0.12120404E-01 0.80714013E+02</pdfrwt>
<pdfrwt beam="2">  1       -2 0.31804904E-02 0.80714013E+02</pdfrwt>
<totfact> 0.13796082E+05</totfact>
</mgrwt>
</event>
<event>
 8    1  0.1372337E-020  0.7801764E+02  0.7818608E-02  0.1334773E+00
          1   -1    0    0  501    0  0.00000000000E+00  0.00000000000E+00  0.20360376445E+03  0.20360376451E+03  0.50400000000E-02 0. -1.
         -2   -1    0    0    0  501 -0.00000000000E+00 -0.00000000000E+00 -0.74737712798E+01  0.74737717148E+01  0.25500000000E-02 0.  1.
        -24    2    1    2    0    0 -0.35527136788E-14 -0.35527136788E-14  0.19612999317E+03  0.21107753623E+03  0.78017639536E+02 0.  0.
         66    2    3    3    0    0  0.28563635934E+02  0.26327574161E+02  0.10696292130E+03  0.11381603136E+03  0.20000006456E+01 0.  0.
         13    1    3    3    0    0 -0.28563635934E+02 -0.26327574161E+02  0.89167071868E+02  0.97261504865E+02  0.10566000000E+00 0. -1.
         13    1    4    4    0    0  0.11146085569E+02  0.94508285883E+01  0.38382034609E+02  0.41070002792E+02  0.10566000000E+00 0. -1.
        -13    1    4    4    0    0  0.55033061925E+01  0.50315334106E+01  0.20476154760E+02  0.21791897240E+02  0.10566000000E+00 0.  1.
        -14    1    4    4    0    0  0.11914244173E+02  0.11845212162E+02  0.48104731933E+02  0.50954131332E+02  0.00000000000E+00 0.  1.
<mgrwt>
<rscale>  0 0.78017640E+02</rscale>
<asrwt>0</asrwt>
<pdfrwt beam="1">  1        1 0.31323657E-01 0.78017640E+02</pdfrwt>
<pdfrwt beam="2">  1       -2 0.11498110E-02 0.78017640E+02</pdfrwt>
<totfact> 0.17882408E+05</totfact>
</mgrwt>
</event>
<event>
 8    1  0.1372337E-020  0.7882020E+02  0.7818608E-02  0.1332433E+00
          1   -1    0    0  501    0  0.00000000000E+00  0.00000000000E+00  0.14682791951E+03  0.14682791960E+03  0.50400000000E-02 0. -1.
         -2   -1    0    0    0  501 -0.00000000000E+00 -0.00000000000E+00 -0.10578069555E+02  0.10578069863E+02  0.25500000000E-02 0.  1.
        -24    2    1    2    0    0  0.00000000000E+00  0.00000000000E+00  0.13624984995E+03  0.15740598946E+03  0.78820199853E+02 0.  0.
         66    2    3    3    0    0  0.31889489903E+02  0.45445506732E+01  0.22912401430E+02  0.39579927362E+02  0.20000009147E+01 0.  0.
         13    1    3    3    0    0 -0.31889489903E+02 -0.45445506732E+01  0.11333744852E+03  0.11782606210E+03  0.10566000000E+00 0. -1.
         13    1    4    4    0    0  0.23164016269E+02  0.39137188748E+01  0.16148652911E+02  0.28507525322E+02  0.10566000000E+00 0.  1.
        -13    1    4    4    0    0  0.71713418879E+01  0.66885060417E+00  0.53717636744E+01  0.89856838700E+01  0.10566000000E+00 0. -1.
         14    1    4    4    0    0  0.15541317459E+01 -0.38018805834E-01  0.13919848447E+01  0.20867181700E+01  0.00000000000E+00 0. -1.
<mgrwt>
<rscale>  0 0.78820200E+02</rscale>
<asrwt>0</asrwt>
<pdfrwt beam="1">  1        1 0.22588910E-01 0.78820200E+02</pdfrwt>
<pdfrwt beam="2">  1       -2 0.16273954E-02 0.78820200E+02</pdfrwt>
<totfact> 0.16363094E+05</totfact>
</mgrwt>
</event>
<event>
 8    1  0.1372337E-020  0.8020531E+02  0.7818608E-02  0.1328470E+00
          1   -1    0    0  501    0  0.00000000000E+00  0.00000000000E+00  0.23624915417E+03  0.23624915423E+03  0.50400000000E-02 0. -1.
         -2   -1    0    0    0  501 -0.00000000000E+00 -0.00000000000E+00 -0.68073169687E+01  0.68073174463E+01  0.25500000000E-02 0.  1.
        -24    2    1    2    0    0  0.00000000000E+00  0.00000000000E+00  0.22944183720E+03  0.24305647167E+03  0.80205310064E+02 0.  0.
         66    2    3    3    0    0  0.81496562328E+01 -0.39231570604E+02  0.11228406839E+03  0.11923608972E+03  0.20000123451E+01 0.  0.
         13    1    3    3    0    0 -0.81496562328E+01  0.39231570604E+02  0.11715776882E+03  0.12382038195E+03  0.10566000000E+00 0. -1.
         13    1    4    4    0    0  0.11417040011E+01 -0.51266584398E+01  0.16160841020E+02  0.16993235751E+02  0.10566000000E+00 0. -1.
        -13    1    4    4    0    0  0.38204343104E+01 -0.16477169944E+02  0.48091757591E+02  0.50979615141E+02  0.10566000000E+00 0.  1.
         14    1    4    4    0    0  0.31875179213E+01 -0.17627742220E+02  0.48031469776E+02  0.51263238828E+02  0.00000000000E+00 0. -1.
<mgrwt>
<rscale>  0 0.80205310E+02</rscale>
<asrwt>0</asrwt>
<pdfrwt beam="1">  1        1 0.36346019E-01 0.80205310E+02</pdfrwt>
<pdfrwt beam="2">  1       -2 0.10472797E-02 0.80205310E+02</pdfrwt>
<totfact> 0.17107751E+05</totfact>
</mgrwt>
</event>
<event>
 8    1  0.1428189E-020  0.7841453E+02  0.7818608E-02  0.1333612E+00
         -2   -1    0    0    0  501 -0.00000000000E+00  0.00000000000E+00  0.46480258895E+01  0.46480265890E+01  0.25500000000E-02 0.  1.
          1   -1    0    0  501    0  0.00000000000E+00 -0.00000000000E+00 -0.33072311349E+03  0.33072311353E+03  0.50400000000E-02 0. -1.
        -24    2    1    2    0    0 -0.17763568394E-14  0.00000000000E+00 -0.32607508760E+03  0.33537114012E+03  0.78414532262E+02 0.  0.
         66    2    3    3    0    0 -0.11277863028E+02  0.35772486896E+02 -0.11469077136E+03  0.12068485428E+03  0.20000006457E+01 0.  0.
         13    1    3    3    0    0  0.11277863028E+02 -0.35772486896E+02 -0.21138431624E+03  0.21468628584E+03  0.10566000000E+00 0. -1.
         13    1    4    4    0    0 -0.28326809153E+01  0.11053961866E+02 -0.34492564103E+02  0.36331285369E+02  0.10566000000E+00 0. -1.
        -13    1    4    4    0    0 -0.69866242500E+01  0.21687096624E+02 -0.69852299175E+02  0.73474471366E+02  0.10566000000E+00 0.  1.
         14    1    4    4    0    0 -0.14585578625E+01  0.30314284053E+01 -0.10345908084E+02  0.10879097540E+02  0.00000000000E+00 0. -1.
<mgrwt>
<rscale>  0 0.78414532E+02</rscale>
<asrwt>0</asrwt>
<pdfrwt beam="1">  1        1 0.50880461E-01 0.78414532E+02</pdfrwt>
<pdfrwt beam="2">  1       -2 0.71508122E-03 0.78414532E+02</pdfrwt>
<totfact> 0.19367132E+05</totfact>
</mgrwt>
</event>
<event>
 8    1  0.1372337E-020  0.8019773E+02  0.7818608E-02  0.1328491E+00
          1   -1    0    0  501    0  0.00000000000E+00  0.00000000000E+00  0.54608436144E+02  0.54608436376E+02  0.50400000000E-02 0. -1.
         -2   -1    0    0    0  501 -0.00000000000E+00 -0.00000000000E+00 -0.29444516978E+02  0.29444517089E+02  0.25500000000E-02 0.  1.
        -24    2    1    2    0    0  0.00000000000E+00  0.00000000000E+00  0.25163919166E+02  0.84052953465E+02  0.80197731629E+02 0.  0.
         66    2    3    3    0    0 -0.21796971955E+02  0.10341350839E+02 -0.20946272946E+02  0.32012464381E+02  0.20000004545E+01 0.  0.
         13    1    3    3    0    0  0.21796971955E+02 -0.10341350839E+02  0.46110192111E+02  0.52040489085E+02  0.10566000000E+00 0. -1.
         13    1    4    4    0    0 -0.96732086528E+01  0.42389186795E+01 -0.86307460739E+01  0.13639660518E+02  0.10566000000E+00 0. -1.
        -13    1    4    4    0    0 -0.91928121805E+01  0.48524159677E+01 -0.10083243974E+02  0.14482289515E+02  0.10566000000E+00 0.  1.
         14    1    4    4    0    0 -0.29309511219E+01  0.12500161917E+01 -0.22322828977E+01  0.38905143482E+01  0.00000000000E+00 0. -1.
<mgrwt>
<rscale>  0 0.80197732E+02</rscale>
<asrwt>0</asrwt>
<pdfrwt beam="1">  1        1 0.84012979E-02 0.80197732E+02</pdfrwt>
<pdfrwt beam="2">  1       -2 0.45299257E-02 0.80197732E+02</pdfrwt>
<totfact> 0.13249462E+05</totfact>
</mgrwt>
</event>
<event>
 8    1  0.1372337E-020  0.7925951E+02  0.7818608E-02  0.1331166E+00
         -2   -1    0    0    0  501 -0.00000000000E+00  0.00000000000E+00  0.70485916698E+01  0.70485921311E+01  0.25500000000E-02 0.  1.
          1   -1    0    0  501    0  0.00000000000E+00 -0.00000000000E+00 -0.22281296422E+03  0.22281296427E+03  0.50400000000E-02 0. -1.
        -24    2    1    2    0    0  0.00000000000E+00  0.71054273576E-14 -0.21576437255E+03  0.22986155641E+03  0.79259514585E+02 0.  0.
         66    2    3    3    0    0 -0.21474834594E+01 -0.38081902714E+02 -0.77030840137E+02  0.85980191460E+02  0.19999979115E+01 0.  0.
         13    1    3    3    0    0  0.21474834594E+01  0.38081902714E+02 -0.13873353241E+03  0.14388136495E+03  0.10566000000E+00 0. -1.
         13    1    4    4    0    0 -0.27950389518E-01 -0.49774301019E+01 -0.11222004002E+02  0.12276812677E+02  0.10566000000E+00 0. -1.
        -13    1    4    4    0    0 -0.12475328611E+01 -0.16754124050E+02 -0.34347174903E+02  0.38236064112E+02  0.10566000000E+00 0.  1.
        -14    1    4    4    0    0 -0.87200020881E+00 -0.16350348563E+02 -0.31461661232E+02  0.35467314671E+02  0.00000000000E+00 0.  1.
<mgrwt>
<rscale>  0 0.79259515E+02</rscale>
<asrwt>0</asrwt>
<pdfrwt beam="1">  1        1 0.34278912E-01 0.79259515E+02</pdfrwt>
<pdfrwt beam="2">  1       -2 0.10843989E-02 0.79259515E+02</pdfrwt>
<totfact> 0.17452973E+05</totfact>
</mgrwt>
</event>
<event>
 8    1  0.1372337E-020  0.7918851E+02  0.7818608E-02  0.1331370E+00
          1   -1    0    0  501    0  0.00000000000E+00  0.00000000000E+00  0.93754474822E+01  0.93754488369E+01  0.50400000000E-02 0. -1.
         -2   -1    0    0    0  501 -0.00000000000E+00 -0.00000000000E+00 -0.16721386310E+03  0.16721386312E+03  0.25500000000E-02 0.  1.
        -24    2    1    2    0    0  0.00000000000E+00 -0.35527136788E-14 -0.15783841561E+03  0.17658931195E+03  0.79188507072E+02 0.  0.
         66    2    3    3    0    0 -0.46375679068E+01 -0.29101954546E+02 -0.13785411120E+03  0.14098293076E+03  0.19999993977E+01 0.  0.
         13    1    3    3    0    0  0.46375679068E+01  0.29101954546E+02 -0.19984304417E+02  0.35606381192E+02  0.10566000000E+00 0. -1.
         13    1    4    4    0    0 -0.36986112349E+01 -0.20229054265E+02 -0.92647475115E+02  0.94902371787E+02  0.10566000000E+00 0. -1.
        -13    1    4    4    0    0 -0.83074091398E+00 -0.72404670230E+01 -0.36185793419E+02  0.36912562937E+02  0.10566000000E+00 0.  1.
         14    1    4    4    0    0 -0.10821575793E+00 -0.16324332584E+01 -0.90208426629E+01  0.91679960374E+01  0.00000000000E+00 0. -1.
<mgrwt>
<rscale>  0 0.79188507E+02</rscale>
<asrwt>0</asrwt>
<pdfrwt beam="1">  1        1 0.14423768E-02 0.79188507E+02</pdfrwt>
<pdfrwt beam="2">  1       -2 0.25725208E-01 0.79188507E+02</pdfrwt>
<totfact> 0.93489441E+04</totfact>
</mgrwt>
</event>
<event>
 8    1  0.1372337E-020  0.7965187E+02  0.7818608E-02  0.1330042E+00
          1   -1    0    0  501    0  0.00000000000E+00  0.00000000000E+00  0.43290425619E+02  0.43290425913E+02  0.50400000000E-02 0. -1.
         -2   -1    0    0    0  501 -0.00000000000E+00 -0.00000000000E+00 -0.36638699857E+02  0.36638699946E+02  0.25500000000E-02 0.  1.
        -24    2    1    2    0    0  0.00000000000E+00 -0.35527136788E-14  0.66517257619E+01  0.79929125859E+02  0.79651865671E+02 0.  0.
         66    2    3    3    0    0 -0.16656152297E+02  0.27708257982E+02  0.26623520457E+02  0.41928353273E+02  0.19999992225E+01 0.  0.
         13    1    3    3    0    0  0.16656152297E+02 -0.27708257982E+02 -0.19971794695E+02  0.38000772586E+02  0.10566000000E+00 0. -1.
         13    1    4    4    0    0 -0.61233868356E+01  0.11478919902E+02  0.10625709709E+02  0.16798164761E+02  0.10566000000E+00 0.  1.
        -13    1    4    4    0    0 -0.82858385999E+01  0.12843602481E+02  0.12033708628E+02  0.19453394392E+02  0.10566000000E+00 0. -1.
        -14    1    4    4    0    0 -0.22469268617E+01  0.33857355986E+01  0.39641021195E+01  0.56767941199E+01  0.00000000000E+00 0.  1.
<mgrwt>
<rscale>  0 0.79651866E+02</rscale>
<asrwt>0</asrwt>
<pdfrwt beam="1">  1        1 0.66600655E-02 0.79651866E+02</pdfrwt>
<pdfrwt beam="2">  1       -2 0.56367231E-02 0.79651866E+02</pdfrwt>
<totfact> 0.13018383E+05</totfact>
</mgrwt>
</event>
<event>
 8    1  0.1372337E-020  0.7856620E+02  0.7818608E-02  0.1333170E+00
         -2   -1    0    0    0  501 -0.00000000000E+00  0.00000000000E+00  0.10339288024E+03  0.10339288027E+03  0.25500000000E-02 0.  1.
          1   -1    0    0  501    0  0.00000000000E+00 -0.00000000000E+00 -0.14925222396E+02  0.14925223246E+02  0.50400000000E-02 0. -1.
        -24    2    1    2    0    0  0.11102230246E-15  0.00000000000E+00  0.88467657848E+02  0.11831810352E+03  0.78566195885E+02 0.  0.
         66    2    3    3    0    0  0.99940827529E+00  0.15787882157E+02  0.98370466784E+02  0.99654426800E+02  0.20000014151E+01 0.  0.
         13    1    3    3    0    0 -0.99940827529E+00 -0.15787882157E+02 -0.99028089359E+01  0.18663676721E+02  0.10566000000E+00 0. -1.
         13    1    4    4    0    0  0.14488470292E+00  0.11451480432E+02  0.68851843424E+02  0.69797886089E+02  0.10566000000E+00 0. -1.
        -13    1    4    4    0    0  0.28290317874E+00  0.29262178201E+01  0.18230896361E+02  0.18466714139E+02  0.10566000000E+00 0.  1.
         14    1    4    4    0    0  0.57162039363E+00  0.14101839049E+01  0.11287726999E+02  0.11389826571E+02  0.00000000000E+00 0. -1.
<mgrwt>
<rscale>  0 0.78566196E+02</rscale>
<asrwt>0</asrwt>
<pdfrwt beam="1">  1        1 0.22961882E-02 0.78566196E+02</pdfrwt>
<pdfrwt beam="2">  1       -2 0.15906597E-01 0.78566196E+02</pdfrwt>
<totfact> 0.11022986E+05</totfact>
</mgrwt>
</event>
<event>
 8    1  0.1372337E-020  0.7875498E+02  0.7818608E-02  0.1332622E+00
          1   -1    0    0  501    0  0.00000000000E+00  0.00000000000E+00  0.84205723896E+02  0.84205724047E+02  0.50400000000E-02 0. -1.
         -2   -1    0    0    0  501 -0.00000000000E+00 -0.00000000000E+00 -0.18414268862E+02  0.18414269039E+02  0.25500000000E-02 0.  1.
        -24    2    1    2    0    0  0.71054273576E-14 -0.71054273576E-14  0.65791455034E+02  0.10261999309E+03  0.78754983495E+02 0.  0.
         66    2    3    3    0    0  0.30884556269E+02 -0.24108464502E+02  0.28127825708E+02  0.48272647109E+02  0.20000008060E+01 0.  0.
         13    1    3    3    0    0 -0.30884556269E+02  0.24108464502E+02  0.37663629326E+02  0.54347345976E+02  0.10566000000E+00 0. -1.
         13    1    4    4    0    0  0.14564669568E+02 -0.11767893672E+02  0.12647520473E+02  0.22596102744E+02  0.10566000000E+00 0.  1.
        -13    1    4    4    0    0  0.47190493687E+01 -0.34949646586E+01  0.50069652990E+01  0.77178410485E+01  0.10566000000E+00 0. -1.
         14    1    4    4    0    0  0.11600837333E+02 -0.88456061721E+01  0.10473339936E+02  0.17958703316E+02  0.00000000000E+00 0. -1.
<mgrwt>
<rscale>  0 0.78754983E+02</rscale>
<asrwt>0</asrwt>
<pdfrwt beam="1">  1        1 0.12954727E-01 0.78754983E+02</pdfrwt>
<pdfrwt beam="2">  1       -2 0.28329644E-02 0.78754983E+02</pdfrwt>
<totfact> 0.14909027E+05</totfact>
</mgrwt>
</event>
<event>
 8    1  0.1372337E-020  0.7691771E+02  0.7818608E-02  0.1338033E+00
          1   -1    0    0  501    0  0.00000000000E+00  0.00000000000E+00  0.91599359108E+02  0.91599359246E+02  0.50400000000E-02 0. -1.
         -2   -1    0    0    0  501 -0.00000000000E+00 -0.00000000000E+00 -0.16147312703E+02  0.16147312904E+02  0.25500000000E-02 0.  1.
        -24    2    1    2    0    0  0.00000000000E+00  0.00000000000E+00  0.75452046405E+02  0.10774667215E+03  0.76917709617E+02 0.  0.
         66    2    3    3    0    0  0.22947200424E+02 -0.17055128029E+02  0.17743051501E+01  0.28715841964E+02  0.20000053923E+01 0.  0.
         13    1    3    3    0    0 -0.22947200424E+02  0.17055128029E+02  0.73677741255E+02  0.79030830186E+02  0.10566000000E+00 0. -1.
         13    1    4    4    0    0  0.10850135164E+02 -0.89210416239E+01  0.76593987242E+00  0.14067986518E+02  0.10566000000E+00 0.  1.
        -13    1    4    4    0    0  0.28617971113E+01 -0.21619807637E+01  0.63178976918E+00  0.36434003179E+01  0.10566000000E+00 0. -1.
         14    1    4    4    0    0  0.92352681483E+01 -0.59721056417E+01  0.37657550847E+00  0.11004455129E+02  0.00000000000E+00 0. -1.
<mgrwt>
<rscale>  0 0.76917710E+02</rscale>
<asrwt>0</asrwt>
<pdfrwt beam="1">  1        1 0.14092209E-01 0.76917710E+02</pdfrwt>
<pdfrwt beam="2">  1       -2 0.24842020E-02 0.76917710E+02</pdfrwt>
<totfact> 0.16108948E+05</totfact>
</mgrwt>
</event>
<event>
 8    1  0.1372337E-020  0.8610968E+02  0.7818608E-02  0.1312556E+00
         -2   -1    0    0    0  501 -0.00000000000E+00  0.00000000000E+00  0.23663828181E+02  0.23663828318E+02  0.25500000000E-02 0.  1.
          1   -1    0    0  501    0  0.00000000000E+00 -0.00000000000E+00 -0.78335559096E+02  0.78335559258E+02  0.50400000000E-02 0. -1.
        -24    2    1    2    0    0  0.00000000000E+00 -0.88817841970E-15 -0.54671730915E+02  0.10199938758E+03  0.86109679506E+02 0.  0.
         66    2    3    3    0    0  0.17751205788E+02  0.47875082121E+01  0.18734882844E+02  0.26325299213E+02  0.20000004179E+01 0.  0.
         13    1    3    3    0    0 -0.17751205788E+02 -0.47875082121E+01 -0.73406613760E+02  0.75674088363E+02  0.10566000000E+00 0. -1.
         13    1    4    4    0    0  0.45617701081E+01  0.63214292020E+00  0.54234479961E+01  0.71157784811E+01  0.10566000000E+00 0. -1.
        -13    1    4    4    0    0  0.41172528385E+01  0.94175548053E+00  0.41021346833E+01  0.58887475168E+01  0.10566000000E+00 0.  1.
        -14    1    4    4    0    0  0.90721828412E+01  0.32136098114E+01  0.92093001650E+01  0.13320773215E+02  0.00000000000E+00 0.  1.
<mgrwt>
<rscale>  0 0.86109680E+02</rscale>
<asrwt>0</asrwt>
<pdfrwt beam="1">  1        1 0.12051624E-01 0.86109680E+02</pdfrwt>
<pdfrwt beam="2">  1       -2 0.36405890E-02 0.86109680E+02</pdfrwt>
<totfact> 0.11542142E+05</totfact>
</mgrwt>
</event>
<event>
 8    1  0.1372337E-020  0.7544176E+02  0.7818608E-02  0.1342508E+00
          1   -1    0    0  501    0  0.00000000000E+00  0.00000000000E+00  0.17258946754E+03  0.17258946761E+03  0.50400000000E-02 0. -1.
         -2   -1    0    0    0  501 -0.00000000000E+00 -0.00000000000E+00 -0.82442163934E+01  0.82442167878E+01  0.25500000000E-02 0.  1.
        -24    2    1    2    0    0  0.00000000000E+00  0.00000000000E+00  0.16434525115E+03  0.18083368440E+03  0.75441764559E+02 0.  0.
         66    2    3    3    0    0  0.13872604920E+02  0.27557941990E+02  0.30321490455E+02  0.43304527754E+02  0.20000016579E+01 0.  0.
         13    1    3    3    0    0 -0.13872604920E+02 -0.27557941990E+02  0.13402376069E+03  0.13752915665E+03  0.10566000000E+00 0. -1.
         13    1    4    4    0    0  0.15117469073E+01  0.22466508965E+01  0.25701819376E+01  0.37349455405E+01  0.10566000000E+00 0. -1.
        -13    1    4    4    0    0  0.10476569994E+02  0.21243735014E+02  0.22567839629E+02  0.32716560726E+02  0.10566000000E+00 0.  1.
        -14    1    4    4    0    0  0.18842880189E+01  0.40675560793E+01  0.51834688878E+01  0.68530214874E+01  0.00000000000E+00 0.  1.
<mgrwt>
<rscale>  0 0.75441765E+02</rscale>
<asrwt>0</asrwt>
<pdfrwt beam="1">  1        1 0.26552224E-01 0.75441765E+02</pdfrwt>
<pdfrwt beam="2">  1       -2 0.12683411E-02 0.75441765E+02</pdfrwt>
<totfact> 0.18939131E+05</totfact>
</mgrwt>
</event>
<event>
 8    1  0.1372337E-020  0.7912626E+02  0.7818608E-02  0.1331549E+00
         -2   -1    0    0    0  501 -0.00000000000E+00  0.00000000000E+00  0.94170037450E+02  0.94170037485E+02  0.25500000000E-02 0.  1.
          1   -1    0    0  501    0  0.00000000000E+00 -0.00000000000E+00 -0.16621436988E+02  0.16621437752E+02  0.50400000000E-02 0. -1.
        -24    2    1    2    0    0  0.00000000000E+00  0.00000000000E+00  0.77548600462E+02  0.11079147524E+03  0.79126263347E+02 0.  0.
         66    2    3    3    0    0  0.35801050674E+02  0.11910209611E+02  0.55346574830E+02  0.67013519270E+02  0.20000243194E+01 0.  0.
         13    1    3    3    0    0 -0.35801050674E+02 -0.11910209611E+02  0.22202025633E+02  0.43777955966E+02  0.10566000000E+00 0. -1.
         13    1    4    4    0    0  0.17838093158E+02  0.64668321014E+01  0.28690682652E+02  0.34397440603E+02  0.10566000000E+00 0. -1.
        -13    1    4    4    0    0  0.94237783067E+01  0.30064277556E+01  0.14852532418E+02  0.17845309992E+02  0.10566000000E+00 0.  1.
         14    1    4    4    0    0  0.85391792095E+01  0.24369497537E+01  0.11803359759E+02  0.14770768676E+02  0.00000000000E+00 0. -1.
<mgrwt>
<rscale>  0 0.79126263E+02</rscale>
<asrwt>0</asrwt>
<pdfrwt beam="1">  1        1 0.25571443E-02 0.79126263E+02</pdfrwt>
<pdfrwt beam="2">  1       -2 0.14487698E-01 0.79126263E+02</pdfrwt>
<totfact> 0.11075831E+05</totfact>
</mgrwt>
</event>
<event>
 8    1  0.1372337E-020  0.8572177E+02  0.7818608E-02  0.1313556E+00
         -2   -1    0    0    0  501 -0.00000000000E+00  0.00000000000E+00  0.42926256900E+01  0.42926264474E+01  0.25500000000E-02 0.  1.
          1   -1    0    0  501    0  0.00000000000E+00 -0.00000000000E+00 -0.42795604887E+03  0.42795604890E+03  0.50400000000E-02 0. -1.
        -24    2    1    2    0    0  0.00000000000E+00 -0.71054273576E-14 -0.42366342318E+03  0.43224867535E+03  0.85721766190E+02 0.  0.
         66    2    3    3    0    0  0.10238119290E+02  0.40206853981E+02 -0.26570039267E+03  0.26892770191E+03  0.19999985080E+01 0.  0.
         13    1    3    3    0    0 -0.10238119290E+02 -0.40206853981E+02 -0.15796303051E+03  0.16332097345E+03  0.10566000000E+00 0. -1.
         13    1    4    4    0    0  0.17323223409E+01  0.94118343177E+01 -0.63297932697E+02  0.64017364939E+02  0.10566000000E+00 0. -1.
        -13    1    4    4    0    0  0.56349476235E+01  0.20149278484E+02 -0.13520373773E+03  0.13681304002E+03  0.10566000000E+00 0.  1.
        -14    1    4    4    0    0  0.28708493261E+01  0.10645741179E+02 -0.67198722242E+02  0.68097296951E+02  0.00000000000E+00 0.  1.
<mgrwt>
<rscale>  0 0.85721766E+02</rscale>
<asrwt>0</asrwt>
<pdfrwt beam="1">  1        1 0.65839359E-01 0.85721766E+02</pdfrwt>
<pdfrwt beam="2">  1       -2 0.66040435E-03 0.85721766E+02</pdfrwt>
<totfact> 0.16004143E+05</totfact>
</mgrwt>
</event>
<event>
 8    1  0.1372337E-020  0.8227343E+02  0.7818608E-02  0.1322721E+00
         -2   -1    0    0    0  501 -0.00000000000E+00  0.00000000000E+00  0.11093214182E+02  0.11093214475E+02  0.25500000000E-02 0.  1.
          1   -1    0    0  501    0  0.00000000000E+00 -0.00000000000E+00 -0.15254634568E+03  0.15254634576E+03  0.50400000000E-02 0. -1.
        -24    2    1    2    0    0  0.00000000000E+00  0.00000000000E+00 -0.14145313150E+03  0.16363956024E+03  0.82273429882E+02 0.  0.
         66    2    3    3    0    0  0.18369265364E+02 -0.32075660474E+02 -0.34969706296E+02  0.50923062282E+02  0.20000022272E+01 0.  0.
         13    1    3    3    0    0 -0.18369265364E+02  0.32075660474E+02 -0.10648342520E+03  0.11271649796E+03  0.10566000000E+00 0. -1.
         13    1    4    4    0    0  0.40312026211E+01 -0.80064265742E+01 -0.81536672401E+01  0.12118040871E+02  0.10566000000E+00 0. -1.
        -13    1    4    4    0    0  0.41049743541E+01 -0.68641728581E+01 -0.68346045561E+01  0.10520963214E+02  0.10566000000E+00 0.  1.
        -14    1    4    4    0    0  0.10233088389E+02 -0.17205061042E+02 -0.19981434500E+02  0.28284058197E+02  0.00000000000E+00 0.  1.
<mgrwt>
<rscale>  0 0.82273430E+02</rscale>
<asrwt>0</asrwt>
<pdfrwt beam="1">  1        1 0.23468667E-01 0.82273430E+02</pdfrwt>
<pdfrwt beam="2">  1       -2 0.17066485E-02 0.82273430E+02</pdfrwt>
<totfact> 0.14693722E+05</totfact>
</mgrwt>
</event>
<event>
 8    1  0.1372337E-020  0.8042744E+02  0.7818608E-02  0.1327843E+00
          1   -1    0    0  501    0  0.00000000000E+00  0.00000000000E+00  0.15561935232E+02  0.15561936048E+02  0.50400000000E-02 0. -1.
         -2   -1    0    0    0  501 -0.00000000000E+00 -0.00000000000E+00 -0.10391658584E+03  0.10391658588E+03  0.25500000000E-02 0.  1.
        -24    2    1    2    0    0  0.88817841970E-15 -0.35527136788E-14 -0.88354650613E+02  0.11947852192E+03  0.80427438827E+02 0.  0.
         66    2    3    3    0    0 -0.67058833548E+01  0.26048553881E+02 -0.88563482427E+02  0.92579622214E+02  0.19999997468E+01 0.  0.
         13    1    3    3    0    0  0.67058833548E+01 -0.26048553881E+02  0.20883181408E+00  0.26898899710E+02  0.10566000000E+00 0. -1.
         13    1    4    4    0    0 -0.13227070529E+01  0.81388206102E+01 -0.25596232811E+02  0.26891787836E+02  0.10566000000E+00 0. -1.
        -13    1    4    4    0    0 -0.30793551043E+01  0.11035868103E+02 -0.38921002862E+02  0.40572508432E+02  0.10566000000E+00 0.  1.
         14    1    4    4    0    0 -0.23038211976E+01  0.68738651678E+01 -0.24046246753E+02  0.25115325946E+02  0.00000000000E+00 0. -1.
<mgrwt>
<rscale>  0 0.80427439E+02</rscale>
<asrwt>0</asrwt>
<pdfrwt beam="1">  1        1 0.23941440E-02 0.80427439E+02</pdfrwt>
<pdfrwt beam="2">  1       -2 0.15987167E-01 0.80427439E+02</pdfrwt>
<totfact> 0.10368278E+05</totfact>
</mgrwt>
</event>
<event>
 8    1  0.1372337E-020  0.7938571E+02  0.7818608E-02  0.1330804E+00
         -2   -1    0    0    0  501 -0.00000000000E+00  0.00000000000E+00  0.37963681098E+02  0.37963681184E+02  0.25500000000E-02 0.  1.
          1   -1    0    0  501    0  0.00000000000E+00 -0.00000000000E+00 -0.41500787641E+02  0.41500787947E+02  0.50400000000E-02 0. -1.
        -24    2    1    2    0    0 -0.71054273576E-14  0.35527136788E-14 -0.35371065434E+01  0.79464469131E+02  0.79385708611E+02 0.  0.
         66    2    3    3    0    0  0.34216242648E+02  0.19728520632E+02  0.19152762277E+01  0.39593358924E+02  0.20000001453E+01 0.  0.
         13    1    3    3    0    0 -0.34216242648E+02 -0.19728520632E+02 -0.54523827711E+01  0.39871110207E+02  0.10566000000E+00 0. -1.
         13    1    4    4    0    0  0.54041137725E+01  0.32490722875E+01 -0.33716055690E+00  0.63155172133E+01  0.10566000000E+00 0. -1.
        -13    1    4    4    0    0  0.38482162711E+01  0.19576126118E+01  0.16267746298E+00  0.43218796374E+01  0.10566000000E+00 0.  1.
         14    1    4    4    0    0  0.24963912604E+02  0.14521835733E+02  0.20897593216E+01  0.28955962073E+02  0.00000000000E+00 0. -1.
<mgrwt>
<rscale>  0 0.79385709E+02</rscale>
<asrwt>0</asrwt>
<pdfrwt beam="1">  1        1 0.63847366E-02 0.79385709E+02</pdfrwt>
<pdfrwt beam="2">  1       -2 0.58405663E-02 0.79385709E+02</pdfrwt>
<totfact> 0.13052980E+05</totfact>
</mgrwt>
</event>
<event>
 8    1  0.1372337E-020  0.7992326E+02  0.7818608E-02  0.1329269E+00
          1   -1    0    0  501    0  0.00000000000E+00  0.00000000000E+00  0.71206065570E+02  0.71206065748E+02  0.50400000000E-02 0. -1.
         -2   -1    0    0    0  501 -0.00000000000E+00 -0.00000000000E+00 -0.22426907655E+02  0.22426907800E+02  0.25500000000E-02 0.  1.
        -24    2    1    2    0    0  0.35527136788E-14  0.71054273576E-14  0.48779157915E+02  0.93632973548E+02  0.79923259997E+02 0.  0.
         66    2    3    3    0    0  0.19408664371E+02  0.27369760278E+02 -0.96988346729E+00  0.33626487959E+02  0.19999970511E+01 0.  0.
         13    1    3    3    0    0 -0.19408664371E+02 -0.27369760278E+02  0.49749041382E+02  0.60006485589E+02  0.10566000000E+00 0. -1.
         13    1    4    4    0    0  0.30332803675E+01  0.37607589693E+01  0.43954059747E+00  0.48526753225E+01  0.10566000000E+00 0. -1.
        -13    1    4    4    0    0  0.11317092527E+02  0.16708817781E+02 -0.81103821995E+00  0.20197280063E+02  0.10566000000E+00 0.  1.
        -14    1    4    4    0    0  0.50582914760E+01  0.69001835274E+01 -0.59838584481E+00  0.85765325736E+01  0.00000000000E+00 0.  1.
<mgrwt>
<rscale>  0 0.79923260E+02</rscale>
<asrwt>0</asrwt>
<pdfrwt beam="1">  1        1 0.10954779E-01 0.79923260E+02</pdfrwt>
<pdfrwt beam="2">  1       -2 0.34502935E-02 0.79923260E+02</pdfrwt>
<totfact> 0.13944784E+05</totfact>
</mgrwt>
</event>
<event>
 8    1  0.1372337E-020  0.7999502E+02  0.7818608E-02  0.1329066E+00
          1   -1    0    0  501    0  0.00000000000E+00  0.00000000000E+00  0.19224858015E+03  0.19224858022E+03  0.50400000000E-02 0. -1.
         -2   -1    0    0    0  501 -0.00000000000E+00 -0.00000000000E+00 -0.83215221224E+01  0.83215225131E+01  0.25500000000E-02 0.  1.
        -24    2    1    2    0    0  0.16653345369E-15 -0.71054273576E-14  0.18392705803E+03  0.20057010273E+03  0.79995021309E+02 0.  0.
         66    2    3    3    0    0  0.49100317017E+00 -0.38183244117E+02  0.62397263631E+02  0.73182099740E+02  0.19999995977E+01 0.  0.
         13    1    3    3    0    0 -0.49100317017E+00  0.38183244117E+02  0.12152979440E+03  0.12738800299E+03  0.10566000000E+00 0. -1.
         13    1    4    4    0    0 -0.23245132598E+00 -0.38133349403E+01  0.53098941149E+01  0.65423005536E+01  0.10566000000E+00 0. -1.
        -13    1    4    4    0    0  0.46336646238E+00 -0.18222330379E+02  0.30090183883E+02  0.35180937496E+02  0.10566000000E+00 0.  1.
         14    1    4    4    0    0  0.26008803377E+00 -0.16147578797E+02  0.26997185632E+02  0.31458861691E+02  0.00000000000E+00 0. -1.
<mgrwt>
<rscale>  0 0.79995021E+02</rscale>
<asrwt>0</asrwt>
<pdfrwt beam="1">  1        1 0.29576703E-01 0.79995021E+02</pdfrwt>
<pdfrwt beam="2">  1       -2 0.12802343E-02 0.79995021E+02</pdfrwt>
<totfact> 0.16549489E+05</totfact>
</mgrwt>
</event>
